Title
42773
    1SAPS     N    1   4.600   3.746   7.225 -0.3660 -0.3981  0.1162
    1SAPS   HN1    2   4.658   3.697   7.154  0.7523 -2.3921  2.2339
    1SAPS   HN2    3   4.650   3.753   7.316  0.2575 -0.1129 -0.2415
    1SAPS   HN3    4   4.521   3.678   7.227 -0.1226 -0.6865  0.2043
    1SAPS   C12    5   4.552   3.878   7.161  0.0329  0.4367 -0.0994
    1SAPS  H12A    6   4.503   3.854   7.067  2.5091  0.0877 -1.3653
    1SAPS   C13    7   4.458   3.968   7.240 -0.1702  0.4730 -0.4389
    1SAPS  O13A    8   4.414   3.934   7.354 -0.1228 -0.3787 -0.0228
    1SAPS  O13B    9   4.433   4.079   7.180  0.2514 -0.0382 -0.6526
    1SAPS   C11   10   4.683   3.962   7.146 -0.2807  0.7070  0.0287
    1SAPS  H11A   11   4.718   3.963   7.252 -4.0225  0.8357  1.4448
    1SAPS  H11B   12   4.667   4.069   7.124 -2.1123  0.3819 -0.3618
    1SAPS     P   13   4.883   3.983   6.975  0.3589  0.4244 -0.2315
    1SAPS   O13   14   4.951   4.079   7.056  0.2672 -0.0240  0.4152
    1SAPS   O14   15   4.965   3.881   6.906  0.0114 -0.4180 -0.1796
    1SAPS   O12   16   4.777   3.902   7.060  0.4203 -0.1244  0.1702
    1SAPS   O11   17   4.795   4.066   6.877  0.2514  0.5642  0.1103
    1SAPS    C1   18   4.672   4.029   6.803  0.3019 -0.3591 -0.5241
    1SAPS    HA   19   4.640   3.923   6.809 -0.7922  0.0418  1.6869
    1SAPS    HB   20   4.585   4.088   6.841 -0.4102 -2.5762  1.5572
    1SAPS    C2   21   4.690   4.050   6.646  0.2822 -0.4508  0.3125
    1SAPS    HS   22   4.589   4.041   6.600 -0.1740 -0.5221  1.3096
    1SAPS   O21   23   4.788   3.960   6.589  0.3813  0.0228  0.4731
    1SAPS   C21   24   4.741   3.841   6.581  0.0526  0.5361  0.5466
    1SAPS   O22   25   4.619   3.811   6.591  0.3050  0.1233 -0.2686
    1SAPS   C22   26   4.852   3.751   6.524 -0.3251  0.5284 -0.6504
    1SAPS   H2R   27   4.956   3.788   6.537 -0.6069  0.6586  1.6320
    1SAPS   H2S   28   4.855   3.667   6.596  1.4677  3.6093  3.2581
    1SAPS    C3   29   4.737   4.200   6.628  0.1091  0.0026  0.3023
    1SAPS    HX   30   4.833   4.205   6.685 -0.1615 -0.4816  0.8194
    1SAPS    HY   31   4.660   4.264   6.676  2.4473  2.3948  1.0814
    1SAPS   O31   32   4.749   4.230   6.490  0.0715 -0.4434 -0.4368
    1SAPS   C31   33   4.861   4.214   6.427 -1.0148 -0.3180  0.0603
    1SAPS   O32   34   4.973   4.206   6.484 -0.6144  0.2328  0.6696
    1SAPS   C32   35   4.828   4.186   6.276 -0.5501  0.4296  0.2444
    1SAPS   H2X   36   4.739   4.249   6.259  0.4651  2.7019  2.6728
    1SAPS   H2Y   37   4.801   4.078   6.270  1.0134  0.0642 -0.9297
    1SAPS   C23   38   4.828   3.698   6.381 -0.6128 -0.1473  0.2856
    1SAPS   H3R   39   4.872   3.776   6.315 -2.1005 -0.5823 -1.3048
    1SAPS   H3S   40   4.720   3.691   6.354 -1.1059 -2.7416  2.4731
    1SAPS   C24   41   4.909   3.572   6.338 -0.0994 -0.0619  0.2187
    1SAPS   H4R   42   4.868   3.527   6.246  1.1875  1.1379 -0.9949
    1SAPS   H4S   43   4.881   3.510   6.426  0.0995  2.2270  2.0279
    1SAPS   C25   44   5.058   3.600   6.327  0.3464 -0.3353  0.6068
    1SAPS   H5R   45   5.121   3.601   6.417  1.2001 -0.6723  0.0349
    1SAPS   C26   46   5.122   3.626   6.214  0.1471  0.3259  0.0846
    1SAPS   H6R   47   5.232   3.627   6.224  0.2008 -0.1565 -0.3719
    1SAPS   C27   48   5.081   3.629   6.067  0.3728 -0.3659 -1.3124
    1SAPS   H7R   49   5.107   3.729   6.026 -1.7040  1.6914  1.9400
    1SAPS   H7S   50   4.971   3.615   6.064  0.2586 -1.7436  3.1527
    1SAPS   C28   51   5.147   3.514   5.994  0.3771 -0.1002 -0.2992
    1SAPS   H8R   52   5.205   3.445   6.057  1.5720  0.9089 -0.2557
    1SAPS   C29   53   5.173   3.514   5.862 -0.2910  0.0337 -0.7070
    1SAPS   H9R   54   5.230   3.428   5.823  3.0619  1.4060  0.7029
    1SAPS  C210   55   5.113   3.611   5.759  0.0801  0.4376  0.3779
    1SAPS  H10R   56   5.048   3.689   5.805  0.7657  0.7850  0.7794
    1SAPS  H10S   57   5.058   3.551   5.683 -0.0921  2.8259 -1.5181
    1SAPS  C211   58   5.228   3.679   5.687 -0.2155 -0.7628  0.2801
    1SAPS  H11R   59   5.272   3.769   5.733 -1.5417 -0.4444  0.9718
    1SAPS  C212   60   5.279   3.637   5.571  0.0904 -0.3854 -0.4892
    1SAPS  H12R   61   5.366   3.695   5.537  0.5400  0.1510  1.4708
    1SAPS  C213   62   5.239   3.518   5.483  0.0362  0.0662 -0.7692
    1SAPS  H13R   63   5.235   3.552   5.377  0.1104  1.8186 -0.2415
    1SAPS  H13S   64   5.134   3.486   5.498 -0.1300  0.2280 -1.5385
    1SAPS  C214   65   5.333   3.404   5.503  0.1913 -0.2314 -0.5361
    1SAPS  H14R   66   5.296   3.342   5.586 -1.4837  0.7034 -0.5417
    1SAPS  C215   67   5.447   3.380   5.431 -0.3057  0.4671 -0.2328
    1SAPS  H15R   68   5.499   3.286   5.456 -1.1392  0.7599  3.1052
    1SAPS  C216   69   5.495   3.459   5.314 -0.6013  0.0581 -0.3598
    1SAPS  H16R   70   5.594   3.496   5.348  0.6390 -2.2379 -1.2030
    1SAPS  H16S   71   5.438   3.550   5.287  0.8691  0.7753 -1.1586
    1SAPS  C217   72   5.508   3.387   5.173 -0.1397  0.0650  0.4584
    1SAPS  H17R   73   5.406   3.380   5.131  0.9053  1.9607 -2.7046
    1SAPS  H17S   74   5.548   3.288   5.203 -0.7924 -0.0487  0.9782
    1SAPS  C218   75   5.601   3.449   5.070  0.4726 -0.4707  0.3830
    1SAPS  H18R   76   5.700   3.477   5.111  0.5260  0.5402 -0.3976
    1SAPS  H18S   77   5.572   3.543   5.019 -1.1984 -1.9453 -1.5856
    1SAPS  C219   78   5.635   3.353   4.946 -0.7073 -0.9667 -0.0377
    1SAPS  H19R   79   5.547   3.329   4.882  0.6049 -0.6233 -2.0617
    1SAPS  H19S   80   5.676   3.268   5.005  0.6156  0.2275  0.8284
    1SAPS  C220   81   5.736   3.425   4.848 -0.0096 -0.0547  0.1363
    1SAPS  H20R   82   5.831   3.454   4.897 -0.0085  0.4030 -0.1227
    1SAPS  H20S   83   5.685   3.513   4.801 -0.8258 -1.8262 -2.5086
    1SAPS  H20T   84   5.766   3.352   4.771  2.7757 -0.2437  1.2729
    1SAPS   C33   85   4.946   4.215   6.188  0.3312 -0.1844 -0.6365
    1SAPS   H3X   86   5.034   4.159   6.226  1.1202  2.3388  1.5893
    1SAPS   H3Y   87   4.979   4.321   6.196 -1.5940  0.3002  1.6876
    1SAPS   C34   88   4.937   4.180   6.034 -0.3203 -0.9929  0.2108
    1SAPS   H4X   89   4.911   4.276   5.985  0.0388  0.5751  2.9213
    1SAPS   H4Y   90   4.854   4.106   6.028  0.1440 -1.6769  1.7104
    1SAPS   C35   91   5.066   4.119   5.954  0.4554  0.2937 -0.1548
    1SAPS   H5X   92   5.099   4.017   5.981 -0.9957  0.2445  1.6662
    1SAPS   H5Y   93   5.149   4.189   5.981  1.5383  0.2305 -3.0256
    1SAPS   C36   94   5.048   4.125   5.798 -0.6400  0.1606  0.0174
    1SAPS   H6X   95   5.151   4.132   5.756 -0.9558 -0.4547 -0.8942
    1SAPS   H6Y   96   4.989   4.216   5.775 -0.4323  0.0015 -1.2065
    1SAPS   C37   97   4.984   4.006   5.728  0.0868  0.5439 -0.0557
    1SAPS   H7X   98   4.875   3.999   5.747 -0.0287  0.6127 -0.6495
    1SAPS   H7Y   99   5.044   3.921   5.767 -0.9004 -0.2848 -0.3168
    1SAPS   C38  100   5.016   4.000   5.572 -0.2903 -0.8581 -0.9718
    1SAPS   H8X  101   5.127   4.004   5.569 -0.3004  0.1307 -0.3429
    1SAPS   H8Y  102   4.983   4.097   5.529 -1.1938 -0.5535  0.3584
    1SAPS   C39  103   4.970   3.877   5.506 -0.1149 -0.0070 -0.2472
    1SAPS   H9X  104   4.859   3.870   5.512 -0.1499 -0.9312 -1.4601
    1SAPS   H9Y  105   5.029   3.805   5.567  1.9077  0.4751 -1.5382
    1SAPS  C310  106   5.021   3.851   5.362  0.6875  0.7638 -0.1873
    1SAPS  H10X  107   5.025   3.741   5.345  1.7758  0.3561  2.3288
    1SAPS  H10Y  108   5.125   3.891   5.368  0.8728  0.1359  1.1402
    1SAPS  C311  109   4.953   3.931   5.248  0.6460 -0.6081  1.6585
    1SAPS  H11X  110   4.972   4.039   5.267 -3.1516  0.2121  1.5143
    1SAPS  H11Y  111   4.844   3.919   5.264  0.2333  0.3390 -0.1753
    1SAPS  C312  112   4.984   3.883   5.104  0.0062 -0.0345 -0.0973
    1SAPS  H12X  113   4.958   3.775   5.106  2.4271 -0.6913 -0.5760
    1SAPS  H12Y  114   5.088   3.901   5.070  0.0426 -2.0132 -1.2006
    1SAPS  C313  115   4.904   3.961   4.999 -0.0568 -0.0591  0.5868
    1SAPS  H13X  116   4.929   3.926   4.897  0.7885  0.9309  0.4354
    1SAPS  H13Y  117   4.920   4.070   5.011  0.6307  0.1089 -1.5080
    1SAPS  C314  118   4.751   3.928   5.008  0.2330  0.3736 -0.0604
    1SAPS  H14X  119   4.711   3.955   5.107  0.3894 -2.4616  0.8683
    1SAPS  H14Y  120   4.743   3.818   4.996 -1.2846  0.1323  2.5579
    1SAPS  C315  121   4.661   3.993   4.899  0.0669 -0.5635 -0.0684
    1SAPS  H15X  122   4.642   4.098   4.929 -1.7706 -0.5730 -1.0078
    1SAPS  H15Y  123   4.562   3.943   4.903 -0.5199  0.5810  0.0761
    1SAPS  C316  124   4.718   3.978   4.758 -0.7201  0.8946 -0.2899
    1SAPS  H16X  125   4.752   3.878   4.725 -3.6900 -0.0033 -0.9041
    1SAPS  H16Y  126   4.801   4.051   4.772 -0.9261  1.1521 -0.4024
    1SAPS  C317  127   4.633   4.031   4.642 -0.1996 -0.0381  0.1250
    1SAPS  H17X  128   4.705   4.078   4.572 -0.7828  1.3579  0.4288
    1SAPS  H17Y  129   4.563   4.112   4.671  1.9515  2.2881 -0.8160
    1SAPS  C318  130   4.561   3.924   4.568 -0.4720 -0.2185  0.0238
    1SAPS  H18X  131   4.634   3.860   4.514 -0.6909 -0.9604  0.5900
    1SAPS  H18Y  132   4.482   3.964   4.500 -0.0777 -1.1655 -1.0357
    1SAPS  H18Z  133   4.508   3.862   4.644  1.4524  0.8317  2.3545
    2SAPS     N  134   5.286   5.818   7.429 -0.1356 -0.4177  0.2054
    2SAPS   HN1  135   5.380   5.784   7.460  0.0720  0.2182  0.2796
    2SAPS   HN2  136   5.238   5.734   7.390 -0.2219 -0.2491 -0.0539
    2SAPS   HN3  137   5.305   5.886   7.353  3.9461  0.7394  1.9359
    2SAPS   C12  138   5.209   5.887   7.529 -0.1810 -0.4189  0.0702
    2SAPS  H12A  139   5.108   5.903   7.495  0.2327  1.2044 -0.4673
    2SAPS   C13  140   5.207   5.818   7.665 -0.8276  0.2751 -0.0991
    2SAPS  O13A  141   5.286   5.724   7.681  0.3122  0.0255 -0.6845
    2SAPS  O13B  142   5.135   5.870   7.753  0.3454  0.5961  0.1185
    2SAPS   C11  143   5.269   6.032   7.532  0.4537  0.2640 -0.5450
    2SAPS  H11A  144   5.370   5.997   7.563 -0.5552 -1.3381  1.1337
    2SAPS  H11B  145   5.224   6.093   7.613  1.5514  1.2875 -0.6824
    2SAPS     P  146   5.337   6.221   7.369 -0.2491 -0.5753 -0.1548
    2SAPS   O13  147   5.391   6.278   7.490 -0.8291 -0.0564 -0.5058
    2SAPS   O14  148   5.432   6.182   7.269  0.0026 -0.0693  0.1178
    2SAPS   O12  149   5.248   6.097   7.401 -0.2146  0.4172  0.5982
    2SAPS   O11  150   5.230   6.320   7.303 -0.5972 -1.4472 -0.0712
    2SAPS    C1  151   5.138   6.282   7.205  0.0592 -0.4161 -0.3461
    2SAPS    HA  152   5.113   6.175   7.224 -1.0676  0.5774  6.4075
    2SAPS    HB  153   5.038   6.331   7.215  0.4703  0.2449  0.6480
    2SAPS    C2  154   5.187   6.311   7.060  0.4537 -0.2203 -0.0163
    2SAPS    HS  155   5.290   6.275   7.040  0.6040 -0.0344  0.4176
    2SAPS   O21  156   5.173   6.455   7.033 -0.8298 -0.1568  0.7285
    2SAPS   C21  157   5.288   6.518   7.041  0.3916 -0.1840  0.1080
    2SAPS   O22  158   5.399   6.473   7.069 -0.0051 -0.4619  0.4878
    2SAPS   C22  159   5.246   6.669   7.032  0.1292  0.7086 -0.7240
    2SAPS   H2R  160   5.200   6.690   7.131  0.8302 -1.2290  0.0518
    2SAPS   H2S  161   5.337   6.731   7.025 -0.5746  1.7905 -0.5593
    2SAPS    C3  162   5.092   6.226   6.956 -0.9170  0.2797 -0.2395
    2SAPS    HX  163   4.987   6.234   6.992 -0.6488  1.7103  0.3046
    2SAPS    HY  164   5.126   6.121   6.963  2.4130  1.2286 -0.1029
    2SAPS   O31  165   5.095   6.283   6.819  1.0029  0.0176  0.2188
    2SAPS   C31  166   5.174   6.238   6.734 -0.4153  0.1592  0.8902
    2SAPS   O32  167   5.255   6.144   6.738 -0.5433  0.0349  0.4202
    2SAPS   C32  168   5.170   6.326   6.607  0.9039  0.4647  0.3902
    2SAPS   H2X  169   5.264   6.322   6.546 -0.0354 -0.1158 -1.0727
    2SAPS   H2Y  170   5.161   6.434   6.634  1.6202  0.5499  0.3128
    2SAPS   C23  171   5.144   6.704   6.924  0.7081  0.0223  0.3601
    2SAPS   H3R  172   5.046   6.663   6.959 -0.0406 -0.0415 -1.6949
    2SAPS   H3S  173   5.163   6.647   6.831 -3.1664 -0.6585 -0.1947
    2SAPS   C24  174   5.149   6.854   6.916  0.2139  0.9839 -0.2766
    2SAPS   H4R  175   5.249   6.862   6.869  0.5205  0.2447  0.2285
    2SAPS   H4S  176   5.165   6.899   7.016  1.9635  0.1632 -0.1451
    2SAPS   C25  177   5.040   6.929   6.849 -0.3047  0.9503 -0.1286
    2SAPS   H5R  178   4.944   6.941   6.901  0.0215  0.8093  0.5090
    2SAPS   C26  179   5.046   6.963   6.717  0.4200  0.6089 -0.0587
    2SAPS   H6R  180   4.963   7.015   6.668  0.4699 -1.1533 -2.1737
    2SAPS   C27  181   5.145   6.915   6.609  0.1377 -0.0076  0.5069
    2SAPS   H7R  182   5.082   6.858   6.537  0.2371  0.1394  0.3040
    2SAPS   H7S  183   5.207   6.832   6.648 -0.3061 -0.9497 -0.7293
    2SAPS   C28  184   5.239   7.024   6.568  0.0872 -0.4599  0.0516
    2SAPS   H8R  185   5.320   7.033   6.642 -1.7554 -2.2951  2.4678
    2SAPS   C29  186   5.222   7.096   6.458  0.0561 -0.2320  0.4183
    2SAPS   H9R  187   5.284   7.186   6.448 -0.8829  0.3130 -0.8081
    2SAPS  C210  188   5.118   7.075   6.348  0.3399  0.0174 -0.2166
    2SAPS  H10R  189   5.027   7.138   6.362  0.8699  0.6585  0.3949
    2SAPS  H10S  190   5.065   6.977   6.356 -1.6863  1.1577  1.1510
    2SAPS  C211  191   5.161   7.103   6.206  0.1178 -0.2003 -0.0415
    2SAPS  H11R  192   5.260   7.148   6.190  0.0563 -0.1960 -0.4265
    2SAPS  C212  193   5.084   7.074   6.098  0.3471 -0.4877 -0.4803
    2SAPS  H12R  194   5.134   7.083   6.001  0.9309  0.8742 -0.0776
    2SAPS  C213  195   4.944   7.008   6.095 -0.5372 -0.5815 -0.2489
    2SAPS  H13R  196   4.887   7.042   6.184  1.4202  0.9279  0.5020
    2SAPS  H13S  197   4.948   6.897   6.108  2.1934 -0.6303 -0.8653
    2SAPS  C214  198   4.863   7.048   5.975 -0.6024 -0.1496  0.5942
    2SAPS  H14R  199   4.794   7.131   5.992  0.1356  0.1178  2.6148
    2SAPS  C215  200   4.886   7.009   5.845  0.0137  0.6518 -0.6313
    2SAPS  H15R  201   4.805   7.029   5.774 -1.9688  0.1384  1.3736
    2SAPS  C216  202   4.983   6.902   5.799 -0.5053  0.8244 -0.5301
    2SAPS  H16R  203   4.922   6.819   5.757  0.6180  0.1212 -0.8181
    2SAPS  H16S  204   5.045   6.863   5.882 -0.9464  0.6267 -0.2874
    2SAPS  C217  205   5.090   6.927   5.692  0.0859  0.0624 -0.9080
    2SAPS  H17R  206   5.177   6.857   5.686  0.4957  0.3265  1.0222
    2SAPS  H17S  207   5.139   7.023   5.718  1.0024 -0.3151 -1.1797
    2SAPS  C218  208   5.025   6.947   5.553 -0.0378 -0.5904  0.1596
    2SAPS  H18R  209   4.935   7.011   5.564  1.7468  2.0244  0.4945
    2SAPS  H18S  210   5.008   6.843   5.518 -1.7088  0.5568 -2.7791
    2SAPS  C219  211   5.136   7.004   5.455  0.1052  0.0370 -0.5126
    2SAPS  H19R  212   5.112   6.963   5.355 -0.9075  1.3009 -0.8051
    2SAPS  H19S  213   5.229   6.947   5.479 -0.0874 -0.6515 -1.3684
    2SAPS  C220  214   5.153   7.151   5.454  0.2814 -0.5685  0.7810
    2SAPS  H20R  215   5.182   7.192   5.553 -0.2436 -0.9744  1.1032
    2SAPS  H20S  216   5.060   7.202   5.423  0.5424 -0.1548  0.6616
    2SAPS  H20T  217   5.222   7.188   5.374 -1.4362 -2.1774 -1.5761
    2SAPS   C33  218   5.043   6.284   6.515 -0.2167 -0.4923  0.3115
    2SAPS   H3X  219   4.955   6.315   6.575 -0.2617  0.7021 -0.3585
    2SAPS   H3Y  220   5.047   6.174   6.496  0.3916 -0.3786 -0.2216
    2SAPS   C34  221   5.045   6.360   6.380 -0.0568 -0.2758 -0.6240
    2SAPS   H4X  222   5.129   6.318   6.320  1.6305  1.7350  0.1899
    2SAPS   H4Y  223   5.054   6.469   6.402 -0.5710 -0.6927  1.9889
    2SAPS   C35  224   4.919   6.313   6.304 -0.2584  1.0762  0.3054
    2SAPS   H5X  225   4.831   6.338   6.365 -0.6872  0.6725 -0.1393
    2SAPS   H5Y  226   4.924   6.202   6.297 -0.7930  1.1016 -0.7498
    2SAPS   C36  227   4.897   6.385   6.170 -0.1939 -0.0425  1.2147
    2SAPS   H6X  228   4.990   6.377   6.108 -0.5413  2.5660  0.2271
    2SAPS   H6Y  229   4.876   6.491   6.197  0.5218  0.0161  1.5568
    2SAPS   C37  230   4.783   6.326   6.095  0.0442  0.2330 -0.5522
    2SAPS   H7X  231   4.689   6.327   6.153  0.4057  0.9236  0.0381
    2SAPS   H7Y  232   4.813   6.222   6.071 -3.0453 -0.8317 -0.2149
    2SAPS   C38  233   4.755   6.392   5.960  0.2535  0.1945 -0.3404
    2SAPS   H8X  234   4.683   6.474   5.983 -3.1338 -3.2392  2.6849
    2SAPS   H8Y  235   4.701   6.323   5.893  0.1439 -0.3055  0.2587
    2SAPS   C39  236   4.866   6.448   5.874  0.3401 -0.0730  0.1232
    2SAPS   H9X  237   4.956   6.382   5.868 -0.7985 -1.5909 -1.3339
    2SAPS   H9Y  238   4.901   6.547   5.911  1.2520 -0.3274 -0.0367
    2SAPS  C310  239   4.808   6.464   5.730  0.4434 -0.8332 -0.0204
    2SAPS  H10X  240   4.713   6.521   5.737  0.9841 -0.0198  0.7231
    2SAPS  H10Y  241   4.795   6.366   5.678  1.4463  0.1546 -2.2629
    2SAPS  C311  242   4.891   6.548   5.630 -0.1301 -0.0386 -0.0460
    2SAPS  H11X  243   4.938   6.638   5.675 -0.1796 -0.0942  0.1151
    2SAPS  H11Y  244   4.825   6.596   5.555  1.2797 -0.6445 -1.7455
    2SAPS  C312  245   5.004   6.485   5.543 -0.3467  0.3485 -0.5417
    2SAPS  H12X  246   4.960   6.400   5.488 -1.9191  1.9513 -1.8788
    2SAPS  H12Y  247   5.076   6.439   5.613 -1.6332 -2.5024 -0.9426
    2SAPS  C313  248   5.054   6.579   5.438 -0.4904 -0.0705  0.5533
    2SAPS  H13X  249   5.103   6.669   5.482  2.4659 -0.6217 -1.3165
    2SAPS  H13Y  250   4.970   6.616   5.375  1.3819  1.0865 -1.4089
    2SAPS  C314  251   5.153   6.518   5.340 -0.6870 -0.1379  0.2248
    2SAPS  H14X  252   5.119   6.440   5.268  0.3859 -0.5745  0.1744
    2SAPS  H14Y  253   5.245   6.473   5.384  0.0464  0.0174 -1.0810
    2SAPS  C315  254   5.226   6.629   5.249  0.4142  0.2071  0.7769
    2SAPS  H15X  255   5.236   6.719   5.314 -0.1965  0.5540  0.3951
    2SAPS  H15Y  256   5.156   6.668   5.172  2.9724  1.8138 -0.8916
    2SAPS  C316  257   5.359   6.587   5.192  0.0408 -0.2793  0.1267
    2SAPS  H16X  258   5.337   6.527   5.101  0.2585  0.0661 -0.1575
    2SAPS  H16Y  259   5.428   6.540   5.265  1.1727  1.1222  0.0179
    2SAPS  C317  260   5.448   6.700   5.136 -0.1911  0.2417 -1.2715
    2SAPS  H17X  261   5.379   6.754   5.067 -1.4053  0.7323  0.2582
    2SAPS  H17Y  262   5.528   6.658   5.071 -1.3783 -1.8442 -1.4492
    2SAPS  C318  263   5.499   6.802   5.245 -0.3989  0.0608 -0.1489
    2SAPS  H18X  264   5.413   6.868   5.269  0.4859  1.6291 -1.1754
    2SAPS  H18Y  265   5.578   6.867   5.203 -1.8767  0.4346 -2.5505
    2SAPS  H18Z  266   5.543   6.744   5.328 -0.1123  0.4525 -0.0269
    3SAPS     N  267   5.292   5.527   6.970 -0.4277 -0.3602  0.1080
    3SAPS   HN1  268   5.382   5.553   6.923 -1.2875 -0.6162 -1.7692
    3SAPS   HN2  269   5.279   5.426   6.949  3.2121 -0.7972 -0.7210
    3SAPS   HN3  270   5.221   5.582   6.918  0.3536 -0.5554 -1.2131
    3SAPS   C12  271   5.297   5.564   7.108 -0.4443 -1.4849 -0.6336
    3SAPS  H12A  272   5.302   5.672   7.113 -0.9479 -1.4962  0.3830
    3SAPS   C13  273   5.159   5.541   7.177  0.0999  0.7993 -0.0835
    3SAPS  O13A  274   5.058   5.497   7.119  0.1443 -0.0011  0.2904
    3SAPS  O13B  275   5.149   5.581   7.296 -0.6912  0.0315  0.0946
    3SAPS   C11  276   5.412   5.494   7.187  0.3106 -0.0305 -1.0303
    3SAPS  H11A  277   5.384   5.387   7.195 -0.1565  0.1953  0.7744
    3SAPS  H11B  278   5.421   5.539   7.288 -1.3522  0.5630 -1.1081
    3SAPS     P  279   5.672   5.467   7.185 -0.2797 -0.1457  0.2577
    3SAPS   O13  280   5.702   5.582   7.269 -0.1631 -0.3459 -0.6418
    3SAPS   O14  281   5.671   5.336   7.253  0.7102  0.6503  0.7848
    3SAPS   O12  282   5.537   5.505   7.113  0.3152  0.1807 -0.3088
    3SAPS   O11  283   5.772   5.459   7.056 -0.3417  0.6233 -0.6445
    3SAPS    C1  284   5.728   5.382   6.952  0.2321  0.1100 -0.2903
    3SAPS    HA  285   5.634   5.324   6.963  0.4723 -0.0155  1.4819
    3SAPS    HB  286   5.691   5.454   6.876  2.1360 -0.6638 -2.0421
    3SAPS    C2  287   5.843   5.283   6.898 -0.5961  0.2163  0.5303
    3SAPS    HS  288   5.851   5.200   6.971  1.3668 -1.3441 -1.3342
    3SAPS   O21  289   5.963   5.367   6.885  0.0304  0.3192 -0.7086
    3SAPS   C21  290   6.075   5.297   6.887 -0.4264 -0.5288 -0.2360
    3SAPS   O22  291   6.090   5.178   6.910  0.1348  0.1097 -0.1749
    3SAPS   C22  292   6.184   5.397   6.839 -0.5303 -0.1398 -0.2286
    3SAPS   H2R  293   6.204   5.392   6.729  1.4477 -1.0000  0.1346
    3SAPS   H2S  294   6.147   5.500   6.860 -2.0766 -0.8904  0.9378
    3SAPS    C3  295   5.820   5.214   6.761  0.3087 -0.1563  0.4005
    3SAPS    HX  296   5.729   5.151   6.756  1.4213 -1.8855  0.8098
    3SAPS    HY  297   5.904   5.143   6.744  0.1161 -0.1057 -0.8488
    3SAPS   O31  298   5.806   5.309   6.648 -0.8629 -0.1963  0.2475
    3SAPS   C31  299   5.909   5.328   6.567  0.1800  0.1990 -0.3872
    3SAPS   O32  300   6.012   5.265   6.566 -0.0554  0.6850  0.0403
    3SAPS   C32  301   5.866   5.429   6.466  0.2622 -0.6697 -0.4877
    3SAPS   H2X  302   5.867   5.533   6.505 -1.7483 -0.8898  0.2614
    3SAPS   H2Y  303   5.770   5.395   6.422  1.2726 -0.5293 -2.9380
    3SAPS   C23  304   6.319   5.371   6.912 -0.5344  0.5869  0.5892
    3SAPS   H3R  305   6.310   5.350   7.020  0.1556  0.5917  0.6547
    3SAPS   H3S  306   6.384   5.461   6.904  1.0287 -0.5873 -0.6100
    3SAPS   C24  307   6.397   5.258   6.840  0.7799 -0.0220 -0.0872
    3SAPS   H4R  308   6.408   5.304   6.739 -1.9125 -0.0581 -0.4818
    3SAPS   H4S  309   6.320   5.179   6.825  0.1656 -0.2079  3.3241
    3SAPS   C25  310   6.513   5.201   6.913  0.1510  0.0747 -0.0209
    3SAPS   H5R  311   6.488   5.163   7.013 -0.1188 -1.6482 -0.7062
    3SAPS   C26  312   6.635   5.179   6.866  0.1206 -0.3649 -0.1712
    3SAPS   H6R  313   6.701   5.130   6.940 -0.4211  0.1399  0.6659
    3SAPS   C27  314   6.688   5.222   6.732  0.2582 -0.3706  0.0439
    3SAPS   H7R  315   6.776   5.289   6.737 -0.8878  1.6485 -3.5336
    3SAPS   H7S  316   6.620   5.291   6.677  0.5620  0.0198  0.1526
    3SAPS   C28  317   6.719   5.110   6.636 -0.1554 -0.3355  1.0573
    3SAPS   H8R  318   6.751   5.016   6.684 -1.8094 -1.6435 -0.2739
    3SAPS   C29  319   6.705   5.113   6.499  0.4594 -0.4227  0.5323
    3SAPS   H9R  320   6.715   5.025   6.434  0.7922 -0.3513  0.4829
    3SAPS  C210  321   6.656   5.229   6.407 -0.4423  1.0071  0.4360
    3SAPS  H10R  322   6.589   5.290   6.472  0.8086  0.4476  2.3107
    3SAPS  H10S  323   6.590   5.188   6.327 -0.0073  0.8989  0.1304
    3SAPS  C211  324   6.773   5.311   6.366 -0.0776  0.0877 -0.1682
    3SAPS  H11R  325   6.830   5.357   6.447 -0.0297 -0.6657  0.2423
    3SAPS  C212  326   6.818   5.323   6.236 -0.0362 -0.0049  0.0216
    3SAPS  H12R  327   6.916   5.373   6.227 -0.1187  0.8067  2.7790
    3SAPS  C213  328   6.756   5.251   6.118 -0.6477 -0.3151  0.8571
    3SAPS  H13R  329   6.649   5.226   6.135 -0.3933 -1.6890  0.5427
    3SAPS  H13S  330   6.807   5.155   6.094 -1.5962 -1.4147  3.0067
    3SAPS  C214  331   6.764   5.348   6.001  0.4092 -0.4558  0.5031
    3SAPS  H14R  332   6.853   5.413   6.001 -1.1951  1.9170 -0.6758
    3SAPS  C215  333   6.666   5.381   5.914 -0.3650  0.3574  0.4803
    3SAPS  H15R  334   6.689   5.445   5.828 -1.4470 -0.3047 -0.3454
    3SAPS  C216  335   6.529   5.317   5.906  0.3549  0.2316  0.5424
    3SAPS  H16R  336   6.449   5.377   5.955  2.1158  1.6722  1.8053
    3SAPS  H16S  337   6.529   5.220   5.959 -1.3909 -0.2508 -0.2616
    3SAPS  C217  338   6.494   5.289   5.755  0.6115 -0.1240 -0.0416
    3SAPS  H17R  339   6.526   5.363   5.679  0.5708  1.0283  1.0106
    3SAPS  H17S  340   6.384   5.292   5.738  0.8386 -1.5721 -2.1122
    3SAPS  C218  341   6.548   5.152   5.716 -0.0683  0.0804  0.3034
    3SAPS  H18R  342   6.532   5.081   5.800 -0.5690  0.9566  0.9645
    3SAPS  H18S  343   6.657   5.167   5.708  0.0186  0.8060  2.3406
    3SAPS  C219  344   6.491   5.092   5.589 -0.5794  0.4578 -0.7481
    3SAPS  H19R  345   6.545   4.998   5.568  0.4510  0.2833  2.2512
    3SAPS  H19S  346   6.382   5.072   5.593 -0.5694  0.0060 -2.1926
    3SAPS  C220  347   6.512   5.180   5.469  0.7621 -0.3564  0.5575
    3SAPS  H20R  348   6.475   5.122   5.382  0.9507 -0.9834  0.8878
    3SAPS  H20S  349   6.617   5.217   5.473  0.6664 -0.1547  3.0029
    3SAPS  H20T  350   6.445   5.267   5.484  1.5763  0.1976  1.0399
    3SAPS   C33  351   5.978   5.430   6.357  0.0402 -0.4634 -0.1485
    3SAPS   H3X  352   5.997   5.326   6.321  2.2398 -1.2082  2.7084
    3SAPS   H3Y  353   6.068   5.459   6.415  0.1972  0.0815 -0.6604
    3SAPS   C34  354   5.955   5.530   6.244  0.3498 -0.3550 -0.3432
    3SAPS   H4X  355   6.045   5.539   6.180 -1.4316  0.5050 -2.8686
    3SAPS   H4Y  356   5.942   5.630   6.292 -1.8751 -0.6124 -0.3116
    3SAPS   C35  357   5.836   5.491   6.168  0.4177  0.4414 -0.0412
    3SAPS   H5X  358   5.843   5.381   6.151 -0.7556  0.0803  1.5760
    3SAPS   H5Y  359   5.738   5.506   6.218 -0.0294  0.0826 -0.8013
    3SAPS   C36  360   5.823   5.554   6.028 -0.1942 -0.1023  0.0200
    3SAPS   H6X  361   5.915   5.531   5.969  0.4593 -2.7291  1.8654
    3SAPS   H6Y  362   5.803   5.662   6.044 -2.9863 -0.7570  1.5629
    3SAPS   C37  363   5.713   5.475   5.960 -0.0432  0.0558 -0.0853
    3SAPS   H7X  364   5.624   5.495   6.024  0.4508  2.1303  0.0283
    3SAPS   H7Y  365   5.733   5.367   5.972  0.2195 -0.0424 -1.2823
    3SAPS   C38  366   5.675   5.523   5.818 -0.3633  0.2097 -0.2505
    3SAPS   H8X  367   5.750   5.493   5.741  0.3660 -1.5097  1.0531
    3SAPS   H8Y  368   5.664   5.633   5.825 -0.3433  0.1884  0.1554
    3SAPS   C39  369   5.531   5.485   5.766 -0.2804 -0.9171  0.1899
    3SAPS   H9X  370   5.470   5.517   5.854 -0.3113  1.2308 -0.5438
    3SAPS   H9Y  371   5.522   5.376   5.747  0.2727 -0.8505 -0.4947
    3SAPS  C310  372   5.484   5.542   5.630  0.2609  0.4493 -0.3230
    3SAPS  H10X  373   5.495   5.652   5.635 -2.2520  0.7219  1.0852
    3SAPS  H10Y  374   5.375   5.527   5.614  0.2018  1.0672 -0.5201
    3SAPS  C311  375   5.551   5.476   5.508  0.1012  0.0391  0.3127
    3SAPS  H11X  376   5.490   5.387   5.484 -0.9093 -0.6495  4.6166
    3SAPS  H11Y  377   5.659   5.450   5.514  0.3186  0.4456 -1.3556
    3SAPS  C312  378   5.547   5.575   5.383  0.5237 -0.2891 -0.0542
    3SAPS  H12X  379   5.628   5.651   5.383  2.1804 -1.9204 -2.1032
    3SAPS  H12Y  380   5.446   5.622   5.388 -0.0480 -1.3715 -1.0570
    3SAPS  C313  381   5.545   5.492   5.248  0.0570  0.1916  0.2845
    3SAPS  H13X  382   5.486   5.562   5.186  2.0564  1.8001  0.0794
    3SAPS  H13Y  383   5.483   5.401   5.262 -0.2433  0.3267 -0.1507
    3SAPS  C314  384   5.678   5.467   5.192 -0.1493  0.4503  1.0196
    3SAPS  H14X  385   5.747   5.406   5.254  0.4422  0.5130  0.4261
    3SAPS  H14Y  386   5.728   5.565   5.181  1.1095 -0.1057  1.6176
    3SAPS  C315  387   5.678   5.394   5.053 -0.2653  0.6204  0.5924
    3SAPS  H15X  388   5.617   5.459   4.986 -0.2751  0.5532  0.5355
    3SAPS  H15Y  389   5.624   5.298   5.059 -0.0910  0.5976  2.6379
    3SAPS  C316  390   5.821   5.375   4.984  1.1018 -0.2601  0.1032
    3SAPS  H16X  391   5.870   5.293   5.041 -0.1068 -0.6675  0.5986
    3SAPS  H16Y  392   5.873   5.473   4.988 -0.4185  0.6515 -1.2269
    3SAPS  C317  393   5.808   5.335   4.838  0.0578 -0.7510 -0.1197
    3SAPS  H17X  394   5.758   5.423   4.791  1.1545 -0.3893 -0.6433
    3SAPS  H17Y  395   5.735   5.252   4.829  0.2770 -1.0824  1.1189
    3SAPS  C318  396   5.930   5.305   4.757 -0.6391  0.0310 -0.2577
    3SAPS  H18X  397   5.905   5.265   4.656  0.1305 -0.4398 -0.2681
    3SAPS  H18Y  398   5.984   5.221   4.805 -1.4513  1.1175  2.7784
    3SAPS  H18Z  399   6.006   5.386   4.745 -0.9979  0.1755 -1.8277
    4SAPS     N  400   4.919   2.579   6.989 -0.2364  0.4650 -0.5766
    4SAPS   HN1  401   4.884   2.553   6.895  1.8725 -0.8344 -1.0603
    4SAPS   HN2  402   5.020   2.596   6.971 -0.2588  0.7248 -0.4642
    4SAPS   HN3  403   4.910   2.504   7.060  3.0836  2.9381  2.8561
    4SAPS   C12  404   4.859   2.697   7.060  1.0540 -0.1636 -0.4237
    4SAPS  H12A  405   4.763   2.660   7.093  1.5948 -2.0764 -0.8841
    4SAPS   C13  406   4.936   2.750   7.181  0.1051  0.1667  0.0103
    4SAPS  O13A  407   5.043   2.697   7.221 -0.2064 -0.5854 -0.6142
    4SAPS  O13B  408   4.864   2.808   7.267  0.3218 -0.0900  0.3223
    4SAPS   C11  409   4.826   2.806   6.954  0.0156 -0.5741  0.0293
    4SAPS  H11A  410   4.926   2.829   6.910  1.6096 -1.1842  3.0792
    4SAPS  H11B  411   4.785   2.900   6.995  1.5795 -0.0071  0.3693
    4SAPS     P  412   4.589   2.796   6.834 -0.4584  0.2965  0.0545
    4SAPS   O13  413   4.526   2.815   6.966  0.7397  0.0459 -0.2033
    4SAPS   O14  414   4.579   2.907   6.735 -0.2286 -0.6311 -0.4418
    4SAPS   O12  415   4.741   2.755   6.844 -0.0022 -0.2573 -0.1355
    4SAPS   O11  416   4.534   2.665   6.774  0.1139  0.3985  0.3588
    4SAPS    C1  417   4.607   2.600   6.665  0.7972  0.3759 -0.0301
    4SAPS    HA  418   4.715   2.612   6.686  0.9170  0.3596 -0.6230
    4SAPS    HB  419   4.575   2.494   6.664  0.5523  0.4389  0.5575
    4SAPS    C2  420   4.554   2.652   6.525 -0.1221 -0.9604  0.2381
    4SAPS    HS  421   4.571   2.761   6.526 -0.1142 -0.9623  0.8097
    4SAPS   O21  422   4.411   2.616   6.515 -0.0406  0.7196  0.2472
    4SAPS   C21  423   4.336   2.698   6.449  0.6962  0.4902 -0.1870
    4SAPS   O22  424   4.365   2.808   6.407  0.2638  0.0187 -0.9617
    4SAPS   C22  425   4.191   2.644   6.444 -1.3310  0.3106  0.6049
    4SAPS   H2R  426   4.190   2.534   6.426 -1.3422  0.1729  1.4191
    4SAPS   H2S  427   4.154   2.657   6.548 -2.1592  1.0535  0.2261
    4SAPS    C3  428   4.639   2.595   6.406 -0.5238 -0.2751  0.4299
    4SAPS    HX  429   4.614   2.487   6.395  1.0173 -0.5206 -0.9422
    4SAPS    HY  430   4.746   2.604   6.433 -0.1219  0.7889 -1.3885
    4SAPS   O31  431   4.622   2.672   6.286 -0.6140 -0.1821  0.0932
    4SAPS   C31  432   4.530   2.636   6.193 -0.4585  0.3564  0.2220
    4SAPS   O32  433   4.465   2.534   6.204  0.8808  0.0690 -0.1417
    4SAPS   C32  434   4.530   2.739   6.078 -0.6487  0.8314  1.3933
    4SAPS   H2X  435   4.634   2.766   6.047 -0.9605  0.5314  0.0226
    4SAPS   H2Y  436   4.465   2.824   6.107  0.4351  2.0159  0.4826
    4SAPS   C23  437   4.091   2.723   6.360 -0.1296 -1.1594  0.3304
    4SAPS   H3R  438   4.104   2.832   6.379 -1.5446 -1.2821  2.3189
    4SAPS   H3S  439   3.990   2.696   6.398 -0.4334 -1.0180 -0.3576
    4SAPS   C24  440   4.101   2.685   6.211 -0.3089 -0.7027 -0.3089
    4SAPS   H4R  441   4.096   2.574   6.209 -1.5293 -0.6531 -1.2570
    4SAPS   H4S  442   4.199   2.724   6.178 -0.5834 -0.5005 -0.8893
    4SAPS   C25  443   3.997   2.747   6.124  0.4137 -0.3354  0.1476
    4SAPS   H5R  444   3.926   2.817   6.170 -1.7841 -1.8132 -0.8527
    4SAPS   C26  445   3.962   2.713   5.996 -0.1859  0.0042 -0.1772
    4SAPS   H6R  446   3.882   2.765   5.941  0.8813  1.5549 -0.3127
    4SAPS   C27  447   4.016   2.611   5.908 -0.1845  0.2231 -0.3093
    4SAPS   H7R  448   4.075   2.531   5.958  1.7932  1.9427  0.2134
    4SAPS   H7S  449   4.088   2.670   5.848  1.1530  2.0072  2.8098
    4SAPS   C28  450   3.911   2.539   5.836  0.2563 -0.2812  0.1095
    4SAPS   H8R  451   3.835   2.498   5.905 -1.8313  0.6453 -1.5082
    4SAPS   C29  452   3.913   2.507   5.702 -0.5949  0.3669  0.1545
    4SAPS   H9R  453   3.821   2.460   5.662 -1.3834 -0.8930  3.1613
    4SAPS  C210  454   4.029   2.536   5.600  0.3054  0.4417 -0.6369
    4SAPS  H10R  455   4.049   2.448   5.536 -2.1256  1.0317 -2.3581
    4SAPS  H10S  456   4.126   2.562   5.648  0.1145  0.6052 -0.3350
    4SAPS  C211  457   4.012   2.651   5.516  0.7638 -0.0141  0.2667
    4SAPS  H11R  458   4.003   2.735   5.586 -1.1381 -0.8832  1.1402
    4SAPS  C212  459   4.017   2.674   5.385 -0.0204  0.6086 -0.2277
    4SAPS  H12R  460   3.989   2.771   5.341 -0.8164  0.6630  0.3892
    4SAPS  C213  461   4.038   2.564   5.285 -0.5275  0.5499 -0.1823
    4SAPS  H13R  462   3.993   2.597   5.189 -1.3301  1.7535  0.5774
    4SAPS  H13S  463   3.988   2.468   5.310  1.3624 -0.6567 -0.8793
    4SAPS  C214  464   4.180   2.542   5.247 -0.6590 -0.0341  0.3680
    4SAPS  H14R  465   4.236   2.627   5.205  0.8793 -1.5629 -0.8950
    4SAPS  C215  466   4.247   2.422   5.250  0.3722 -0.3064  0.3959
    4SAPS  H15R  467   4.355   2.420   5.230  0.9300  0.1631  3.0902
    4SAPS  C216  468   4.195   2.286   5.282 -0.7881  0.0129 -0.5884
    4SAPS  H16R  469   4.097   2.293   5.333 -0.6801  2.4314 -0.6094
    4SAPS  H16S  470   4.252   2.233   5.362 -1.6103 -4.1901 -2.4750
    4SAPS  C217  471   4.174   2.209   5.152  0.1682  0.0863 -0.2005
    4SAPS  H17R  472   4.121   2.277   5.082  0.0913 -0.5646 -0.7809
    4SAPS  H17S  473   4.110   2.120   5.173 -1.3063  1.3784  0.9702
    4SAPS  C218  474   4.307   2.158   5.084 -0.0582  0.1139 -0.6480
    4SAPS  H18R  475   4.373   2.106   5.156 -1.5404 -1.5086 -0.3925
    4SAPS  H18S  476   4.362   2.247   5.048 -0.7653 -0.0505 -2.2436
    4SAPS  C219  477   4.277   2.069   4.965 -0.2174 -0.0454  0.6302
    4SAPS  H19R  478   4.210   2.128   4.899 -1.5017  1.5585  3.2259
    4SAPS  H19S  479   4.216   1.984   5.000  0.1998 -1.5337 -1.9844
    4SAPS  C220  480   4.402   2.016   4.889  0.6621  0.4535 -0.4993
    4SAPS  H20R  481   4.485   2.087   4.869  1.8016 -0.0773  1.9872
    4SAPS  H20S  482   4.361   1.972   4.795  1.2712  1.9903 -1.5220
    4SAPS  H20T  483   4.447   1.944   4.960 -1.4209 -0.8176 -0.3871
    4SAPS   C33  484   4.474   2.672   5.946  0.1623 -0.4824  0.0565
    4SAPS   H3X  485   4.364   2.686   5.947 -0.3158 -3.5401  0.0063
    4SAPS   H3Y  486   4.481   2.561   5.950 -1.9471 -0.6334  0.7340
    4SAPS   C34  487   4.535   2.736   5.826  0.3084  0.1177  0.5518
    4SAPS   H4X  488   4.644   2.716   5.821  0.4937  1.1675  0.0867
    4SAPS   H4Y  489   4.514   2.844   5.842  1.2054  0.1859  1.3371
    4SAPS   C35  490   4.467   2.675   5.693 -0.1707 -0.1887 -0.2004
    4SAPS   H5X  491   4.359   2.700   5.691 -0.2411 -0.5109 -0.6193
    4SAPS   H5Y  492   4.482   2.565   5.692  2.7463 -0.0237  3.6211
    4SAPS   C36  493   4.545   2.741   5.576 -0.1209  0.4062 -0.1382
    4SAPS   H6X  494   4.648   2.701   5.588 -0.8792 -1.9942 -1.0569
    4SAPS   H6Y  495   4.545   2.852   5.588 -0.7835  0.5000 -0.9422
    4SAPS   C37  496   4.496   2.712   5.436  0.4309  0.6015 -0.1628
    4SAPS   H7X  497   4.402   2.768   5.418  1.1120  1.9757  0.3360
    4SAPS   H7Y  498   4.472   2.605   5.425 -0.4216  0.4961  2.2841
    4SAPS   C38  499   4.598   2.762   5.335  0.3718 -0.4654 -0.0099
    4SAPS   H8X  500   4.680   2.690   5.355 -1.0392 -2.0302  0.2662
    4SAPS   H8Y  501   4.604   2.870   5.359 -1.5780 -0.4334  0.4946
    4SAPS   C39  502   4.541   2.755   5.188 -0.2768 -0.3214 -0.5177
    4SAPS   H9X  503   4.445   2.812   5.184  0.0932  1.1207  4.2841
    4SAPS   H9Y  504   4.511   2.650   5.168  0.0049 -0.1541 -1.9367
    4SAPS  C310  505   4.634   2.804   5.077  0.4130 -0.0853 -0.5357
    4SAPS  H10X  506   4.669   2.908   5.098 -1.5493  0.9229 -1.9683
    4SAPS  H10Y  507   4.575   2.815   4.984  0.7406  1.5213 -0.5946
    4SAPS  C311  508   4.746   2.710   5.056 -0.1277 -0.0466  0.2596
    4SAPS  H11X  509   4.706   2.610   5.029  2.6428 -0.9159 -1.0169
    4SAPS  H11Y  510   4.806   2.702   5.149 -0.5379  2.3101  0.7927
    4SAPS  C312  511   4.843   2.737   4.945  0.2966 -0.1971 -0.1337
    4SAPS  H12X  512   4.892   2.837   4.944 -1.6952  0.8275 -0.1634
    4SAPS  H12Y  513   4.795   2.736   4.846  0.3407 -0.2172 -0.1554
    4SAPS  C313  514   4.956   2.636   4.954 -0.2606 -0.5804  0.2061
    4SAPS  H13X  515   4.911   2.536   4.938  1.9473 -2.2674  3.4271
    4SAPS  H13Y  516   4.988   2.628   5.060  0.2606 -0.1582  0.0869
    4SAPS  C314  517   5.087   2.648   4.872 -0.0933 -0.2554 -0.1867
    4SAPS  H14X  518   5.152   2.725   4.918 -0.6294  0.8547 -1.2071
    4SAPS  H14Y  519   5.047   2.681   4.773 -1.7085 -0.8738  0.2254
    4SAPS  C315  520   5.158   2.513   4.853 -0.0400 -0.1983 -0.0447
    4SAPS  H15X  521   5.101   2.459   4.774 -0.7049  0.1717  0.1740
    4SAPS  H15Y  522   5.156   2.459   4.950 -3.0060 -0.7622 -0.3090
    4SAPS  C316  523   5.298   2.536   4.792  0.3806  0.2083  0.5846
    4SAPS  H16X  524   5.364   2.451   4.818  0.6219  0.5229  1.0057
    4SAPS  H16Y  525   5.341   2.629   4.834 -0.5082  1.8455 -1.8636
    4SAPS  C317  526   5.300   2.542   4.638  0.0715  0.2040 -0.2056
    4SAPS  H17X  527   5.207   2.588   4.599 -0.6602 -0.3823  0.7978
    4SAPS  H17Y  528   5.296   2.434   4.609  0.3344 -0.0568  0.7054
    4SAPS  C318  529   5.427   2.610   4.581  0.5114  0.2659 -0.0311
    4SAPS  H18X  530   5.419   2.627   4.471 -0.5189 -1.8096 -0.3402
    4SAPS  H18Y  531   5.515   2.544   4.593 -0.0677 -0.7578 -1.0876
    4SAPS  H18Z  532   5.454   2.705   4.631  0.5435 -1.0199  2.5834
    5SAPS     N  533   6.248   5.614   7.302 -0.8326  0.5125 -0.1335
    5SAPS   HN1  534   6.327   5.564   7.257 -1.3763 -0.6604  0.1894
    5SAPS   HN2  535   6.230   5.567   7.393  0.2889  0.0958 -0.1111
    5SAPS   HN3  536   6.165   5.600   7.242 -2.3745  2.1547  1.5039
    5SAPS   C12  537   6.273   5.754   7.337 -0.6910 -1.0038 -0.3899
    5SAPS  H12A  538   6.302   5.798   7.243  0.1590 -0.7242 -0.0004
    5SAPS   C13  539   6.154   5.838   7.395 -0.1361 -0.1568  0.7664
    5SAPS  O13A  540   6.041   5.781   7.397 -0.0119  0.1472  0.0106
    5SAPS  O13B  541   6.171   5.959   7.421  0.4031 -0.0986 -0.0932
    5SAPS   C11  542   6.400   5.769   7.430  0.3923 -0.1346  0.4703
    5SAPS  H11A  543   6.373   5.750   7.536 -0.1858 -0.3578  0.2869
    5SAPS  H11B  544   6.424   5.878   7.435 -0.5406  0.2646 -2.1101
    5SAPS     P  545   6.645   5.724   7.371 -0.1215  0.3727 -0.1755
    5SAPS   O13  546   6.674   5.855   7.428 -0.6861 -0.2021 -0.1390
    5SAPS   O14  547   6.733   5.616   7.421  0.1187 -0.2709 -0.0894
    5SAPS   O12  548   6.498   5.678   7.388 -0.2391  0.1882  0.5904
    5SAPS   O11  549   6.672   5.734   7.216 -0.3034  0.4019 -0.2268
    5SAPS    C1  550   6.571   5.678   7.126  0.0822  0.5400  0.5486
    5SAPS    HA  551   6.544   5.572   7.146  2.1605  0.1221  1.3445
    5SAPS    HB  552   6.480   5.741   7.122  1.2716  2.4043  1.4923
    5SAPS    C2  553   6.630   5.659   6.982  0.2999 -0.2470  0.0948
    5SAPS    HS  554   6.697   5.746   6.962 -1.5328  0.9488 -1.1909
    5SAPS   O21  555   6.517   5.663   6.891  0.8915  0.0080  0.5056
    5SAPS   C21  556   6.543   5.719   6.772  0.3006  0.1572 -0.8733
    5SAPS   O22  557   6.636   5.796   6.746  0.1177 -0.0671  0.2401
    5SAPS   C22  558   6.430   5.676   6.674  0.0603  0.0015  0.2387
    5SAPS   H2R  559   6.358   5.607   6.723  2.1235 -0.7367  2.4153
    5SAPS   H2S  560   6.391   5.771   6.630  0.5440  0.6024  1.0923
    5SAPS    C3  561   6.707   5.526   6.972  0.1996  0.3304  0.7878
    5SAPS    HX  562   6.643   5.436   6.985 -0.6748  0.7587 -0.3890
    5SAPS    HY  563   6.779   5.515   7.056  0.0187 -1.6909  0.7355
    5SAPS   O31  564   6.763   5.513   6.842 -0.1720 -0.5364  0.1878
    5SAPS   C31  565   6.882   5.560   6.816 -0.4070  0.0426 -0.2093
    5SAPS   O32  566   6.970   5.601   6.889  0.7872 -0.6230 -0.0664
    5SAPS   C32  567   6.917   5.538   6.670  0.6143 -0.6495 -0.7965
    5SAPS   H2X  568   6.824   5.504   6.620 -0.3578  1.9877 -0.9282
    5SAPS   H2Y  569   6.994   5.459   6.661  0.8615 -0.3606 -1.2738
    5SAPS   C23  570   6.488   5.584   6.562  0.3331 -0.4318 -0.0434
    5SAPS   H3R  571   6.541   5.496   6.604 -0.7010 -0.9437  0.2250
    5SAPS   H3S  572   6.561   5.641   6.500  0.6753 -0.4296  0.3569
    5SAPS   C24  573   6.366   5.531   6.480 -0.1333  0.2293  0.2607
    5SAPS   H4R  574   6.293   5.483   6.549  0.4415 -1.2949 -0.1394
    5SAPS   H4S  575   6.401   5.446   6.417  0.4152  0.2195  0.5749
    5SAPS   C25  576   6.307   5.632   6.384  0.1511  0.9630 -0.5528
    5SAPS   H5R  577   6.221   5.687   6.423 -0.8978 -0.8275 -0.2452
    5SAPS   C26  578   6.349   5.650   6.256 -0.3865 -0.3141 -0.1435
    5SAPS   H6R  579   6.295   5.721   6.191  3.3825  1.5075 -1.5839
    5SAPS   C27  580   6.474   5.583   6.197  0.0417 -0.6082  0.7338
    5SAPS   H7R  581   6.455   5.481   6.158  0.5377 -0.3828 -0.1156
    5SAPS   H7S  582   6.553   5.579   6.275  0.0568 -0.4767  0.7257
    5SAPS   C28  583   6.535   5.657   6.079  0.1643 -0.1920 -0.8019
    5SAPS   H8R  584   6.643   5.678   6.084 -0.2187  1.6648  0.6264
    5SAPS   C29  585   6.477   5.704   5.965  0.6031  0.2600 -0.7918
    5SAPS   H9R  586   6.544   5.755   5.895  0.9453 -1.0561 -1.4524
    5SAPS  C210  587   6.330   5.681   5.931 -0.3045  0.1143 -0.2823
    5SAPS  H10R  588   6.286   5.782   5.943  0.5185  0.7655 -2.4189
    5SAPS  H10S  589   6.283   5.615   6.007  0.8135  0.1174  0.4253
    5SAPS  C211  590   6.297   5.634   5.788 -0.5914  0.2246 -0.3434
    5SAPS  H11R  591   6.296   5.524   5.787 -0.4316  0.2289 -1.1017
    5SAPS  C212  592   6.302   5.699   5.663 -0.0142  0.3672 -0.5359
    5SAPS  H12R  593   6.269   5.645   5.573  0.4978 -1.1307  0.1338
    5SAPS  C213  594   6.341   5.844   5.638  0.2276  0.2224  0.2212
    5SAPS  H13R  595   6.304   5.900   5.727 -0.1739  2.4187 -1.2482
    5SAPS  H13S  596   6.287   5.888   5.551  1.6105 -1.1430 -1.3971
    5SAPS  C214  597   6.490   5.845   5.611 -0.4103 -0.0996  0.6596
    5SAPS  H14R  598   6.553   5.880   5.694 -0.6910 -2.9424  2.1839
    5SAPS  C215  599   6.556   5.806   5.498 -0.2306 -0.6373 -0.1131
    5SAPS  H15R  600   6.665   5.813   5.506 -0.1523 -1.0557 -0.7537
    5SAPS  C216  601   6.499   5.760   5.368  0.5702  0.1120 -0.8156
    5SAPS  H16R  602   6.388   5.751   5.362  0.6449 -1.2108 -0.6195
    5SAPS  H16S  603   6.530   5.656   5.342  1.8208  0.7012 -1.7418
    5SAPS  C217  604   6.541   5.843   5.246 -0.2952  0.4607  0.8285
    5SAPS  H17R  605   6.647   5.872   5.263 -0.3570  1.7080 -0.6948
    5SAPS  H17S  606   6.487   5.940   5.240 -2.0184 -0.5099  0.2182
    5SAPS  C218  607   6.535   5.767   5.118  0.1221 -0.3225  0.4332
    5SAPS  H18R  608   6.429   5.767   5.086  0.4818 -1.8429 -0.9003
    5SAPS  H18S  609   6.555   5.661   5.146 -0.9008 -0.0390  2.4384
    5SAPS  C219  610   6.621   5.823   5.005 -0.2368 -0.7991 -0.5443
    5SAPS  H19R  611   6.730   5.829   5.029 -0.0820 -0.9293 -1.2043
    5SAPS  H19S  612   6.593   5.929   4.987  4.3176  0.7083 -0.1873
    5SAPS  C220  613   6.613   5.726   4.884  0.4070 -0.1679 -0.2780
    5SAPS  H20R  614   6.658   5.634   4.928  0.3903 -0.5108 -0.9658
    5SAPS  H20S  615   6.683   5.755   4.803  0.5720 -1.3353 -0.5694
    5SAPS  H20T  616   6.508   5.718   4.848  1.4078  0.9266 -3.8231
    5SAPS   C33  617   6.970   5.672   6.610  0.1296 -0.8881  0.0309
    5SAPS   H3X  618   7.064   5.699   6.662  0.6932 -0.4628 -1.1773
    5SAPS   H3Y  619   6.902   5.758   6.627 -1.7957 -2.5686  1.2106
    5SAPS   C34  620   7.001   5.653   6.464 -0.4979 -0.2497  0.0485
    5SAPS   H4X  621   7.031   5.547   6.447 -1.5909 -0.5835  0.1624
    5SAPS   H4Y  622   7.083   5.721   6.431 -1.0603 -0.3005 -1.5101
    5SAPS   C35  623   6.884   5.701   6.373 -0.7259  0.1012 -0.1751
    5SAPS   H5X  624   6.821   5.774   6.429 -0.4013  0.1566  0.1169
    5SAPS   H5Y  625   6.815   5.616   6.356  0.2033 -0.6633 -0.1710
    5SAPS   C36  626   6.929   5.757   6.237  0.5267  0.2031  0.1585
    5SAPS   H6X  627   7.024   5.811   6.257  0.0932  0.6004  1.2263
    5SAPS   H6Y  628   6.852   5.829   6.202  1.0823  0.2262 -1.0485
    5SAPS   C37  629   6.930   5.661   6.127 -0.1627  1.1033  0.3175
    5SAPS   H7X  630   6.826   5.620   6.126 -0.0427  0.5926  2.5978
    5SAPS   H7Y  631   6.995   5.575   6.154  0.0052  1.6491  1.7011
    5SAPS   C38  632   6.968   5.711   5.980  0.1939  0.7074 -0.2163
    5SAPS   H8X  633   6.993   5.635   5.903 -2.4380  1.4734 -1.9430
    5SAPS   H8Y  634   7.047   5.789   5.985 -0.2079  1.0411  1.6810
    5SAPS   C39  635   6.842   5.766   5.912 -0.8869 -0.1893  0.6482
    5SAPS   H9X  636   6.789   5.834   5.983 -0.3719  0.2800  0.5874
    5SAPS   H9Y  637   6.776   5.679   5.890 -1.8934  0.7200 -0.0461
    5SAPS  C310  638   6.882   5.850   5.792  0.0305 -0.9299  0.1743
    5SAPS  H10X  639   6.967   5.916   5.818  1.4025 -2.4267 -0.3316
    5SAPS  H10Y  640   6.798   5.913   5.754  2.1901  2.1150  0.0712
    5SAPS  C311  641   6.940   5.776   5.672  0.1907  0.0211  0.3270
    5SAPS  H11X  642   6.876   5.687   5.655  0.5598 -0.3442  0.8487
    5SAPS  H11Y  643   7.040   5.733   5.690 -1.0697 -4.3233 -1.6173
    5SAPS  C312  644   6.954   5.869   5.550  0.1294 -0.2108  0.0326
    5SAPS  H12X  645   7.021   5.955   5.569 -0.6662  0.4396 -0.0540
    5SAPS  H12Y  646   6.854   5.913   5.533  0.6186  0.8232 -0.2584
    5SAPS  C313  647   7.007   5.795   5.428 -1.1953 -0.1998  0.0667
    5SAPS  H13X  648   6.998   5.870   5.346 -0.3543  1.7709  1.7029
    5SAPS  H13Y  649   6.943   5.711   5.393 -1.0252 -1.0783  1.7851
    5SAPS  C314  650   7.148   5.758   5.445 -0.5318 -0.0623  0.5400
    5SAPS  H14X  651   7.166   5.690   5.532 -1.9641 -0.1352  0.7933
    5SAPS  H14Y  652   7.209   5.850   5.457 -1.0463  0.3097  0.2914
    5SAPS  C315  653   7.209   5.695   5.319  0.0849  0.0448 -0.4207
    5SAPS  H15X  654   7.165   5.593   5.307  0.6544 -0.1461 -0.9254
    5SAPS  H15Y  655   7.318   5.685   5.335 -0.0233  0.2157  0.4671
    5SAPS  C316  656   7.202   5.770   5.182  0.6621  0.0192 -0.0912
    5SAPS  H16X  657   7.148   5.866   5.189 -1.4701 -1.1682  0.5297
    5SAPS  H16Y  658   7.168   5.700   5.102 -0.3383 -1.2173  1.3516
    5SAPS  C317  659   7.339   5.811   5.126 -0.8220 -0.3120  0.0436
    5SAPS  H17X  660   7.415   5.731   5.126 -1.0583 -0.5378  0.2925
    5SAPS  H17Y  661   7.385   5.870   5.208 -0.0837 -0.0541 -0.5526
    5SAPS  C318  662   7.338   5.892   4.998 -0.1066 -0.2596  0.1157
    5SAPS  H18X  663   7.294   5.992   5.016  1.6465  0.2154  2.0845
    5SAPS  H18Y  664   7.268   5.848   4.924  1.0631 -0.7226 -0.7615
    5SAPS  H18Z  665   7.438   5.887   4.949  0.2543 -2.3129  0.9539
    6SAPS     N  666   4.870   5.316   7.146 -1.0939 -0.2018 -0.4984
    6SAPS   HN1  667   4.850   5.260   7.061 -1.5000 -1.9256  0.6666
    6SAPS   HN2  668   4.787   5.376   7.166 -0.8448  0.0881 -0.3118
    6SAPS   HN3  669   4.959   5.366   7.127 -0.1929 -1.8494 -0.7857
    6SAPS   C12  670   4.891   5.229   7.261 -0.2046  0.2319  0.3512
    6SAPS  H12A  671   4.917   5.297   7.342  1.1269 -0.2874  0.3788
    6SAPS   C13  672   4.766   5.146   7.312  0.3759 -0.7666 -0.0727
    6SAPS  O13A  673   4.670   5.125   7.236 -0.3722  0.0413 -0.2646
    6SAPS  O13B  674   4.779   5.091   7.426 -0.0376 -0.3963  0.0782
    6SAPS   C11  675   4.998   5.126   7.224 -0.2755 -0.1882 -0.5963
    6SAPS  H11A  676   4.953   5.059   7.148 -0.7971  0.0448 -0.4964
    6SAPS  H11B  677   5.009   5.060   7.313  0.0905  0.1838 -0.3588
    6SAPS     P  678   5.208   5.137   7.058  0.3473 -0.5001 -0.0388
    6SAPS   O13  679   5.224   5.262   6.984 -0.3066 -0.4998  0.8840
    6SAPS   O14  680   5.336   5.077   7.111 -0.8755 -0.0152 -0.5505
    6SAPS   O12  681   5.122   5.185   7.187 -0.1158 -0.1931 -0.5443
    6SAPS   O11  682   5.128   5.039   6.967  0.7263 -0.0294  0.0577
    6SAPS    C1  683   5.133   4.893   6.988 -0.1590 -0.8760  0.0474
    6SAPS    HA  684   5.238   4.863   6.970 -0.3119 -0.0142 -2.8074
    6SAPS    HB  685   5.085   4.860   7.083  1.3708  0.1905  1.2324
    6SAPS    C2  686   5.070   4.815   6.861  0.0337  0.0879 -0.1535
    6SAPS    HS  687   5.135   4.728   6.838  0.5861  0.9102 -1.8230
    6SAPS   O21  688   5.062   4.904   6.744  0.1175  0.2052  0.3638
    6SAPS   C21  689   5.171   4.954   6.693  0.1374 -0.1702 -0.1947
    6SAPS   O22  690   5.283   4.908   6.699  0.1870  0.3242  0.2303
    6SAPS   C22  691   5.136   5.080   6.613  0.1001  0.2838 -0.8567
    6SAPS   H2R  692   5.038   5.067   6.562  0.4773  1.0415 -1.8028
    6SAPS   H2S  693   5.129   5.160   6.690  0.7499 -0.0771 -0.4143
    6SAPS    C3  694   4.935   4.754   6.896 -0.1369  0.2955 -0.2218
    6SAPS    HX  695   4.863   4.831   6.929 -3.1583 -2.1234 -0.7297
    6SAPS    HY  696   4.956   4.683   6.979 -1.9562 -0.2559 -0.1923
    6SAPS   O31  697   4.880   4.674   6.787  0.3475 -0.0160  0.7667
    6SAPS   C31  698   4.791   4.728   6.700 -0.8425  0.7908 -1.3876
    6SAPS   O32  699   4.738   4.835   6.703  0.1102  0.2598 -0.2192
    6SAPS   C32  700   4.769   4.624   6.597 -0.4658  0.0173 -0.1719
    6SAPS   H2X  701   4.685   4.558   6.626 -0.7902 -0.2323 -1.6036
    6SAPS   H2Y  702   4.858   4.564   6.568 -1.3057  0.1876 -3.5558
    6SAPS   C23  703   5.247   5.127   6.517 -0.5119 -0.2154  0.0336
    6SAPS   H3R  704   5.236   5.075   6.420  1.2697 -1.0458  0.2346
    6SAPS   H3S  705   5.347   5.109   6.563 -0.8141  0.9432  1.2334
    6SAPS   C24  706   5.236   5.286   6.490  0.4506 -0.0992 -0.4159
    6SAPS   H4R  707   5.338   5.307   6.451  0.8555  1.2648  1.2763
    6SAPS   H4S  708   5.229   5.339   6.587  1.4309 -0.0757 -0.3560
    6SAPS   C25  709   5.118   5.318   6.395 -0.6537  0.5242  0.9633
    6SAPS   H5R  710   5.019   5.330   6.441 -0.8693 -0.4061  0.7671
    6SAPS   C26  711   5.121   5.337   6.257  0.4349  0.5841 -0.2269
    6SAPS   H6R  712   5.029   5.344   6.197 -0.1598 -2.9977  0.0444
    6SAPS   C27  713   5.253   5.330   6.181 -0.6272  0.4387  0.3762
    6SAPS   H7R  714   5.338   5.286   6.238 -1.4964 -2.0006 -0.0686
    6SAPS   H7S  715   5.294   5.432   6.164 -0.4040 -0.0053 -2.1611
    6SAPS   C28  716   5.242   5.256   6.043  0.3312 -0.2531 -0.5552
    6SAPS   H8R  717   5.274   5.151   6.041 -1.8973 -0.9802 -0.7815
    6SAPS   C29  718   5.206   5.307   5.925 -0.3485 -0.2708 -0.0967
    6SAPS   H9R  719   5.197   5.253   5.829 -0.6009  1.7194 -1.2402
    6SAPS  C210  720   5.160   5.446   5.910 -0.4158 -0.0160  1.0170
    6SAPS  H10R  721   5.220   5.489   5.827 -0.7939  0.2163  0.8626
    6SAPS  H10S  722   5.209   5.505   5.990  1.1449  1.6750 -1.0760
    6SAPS  C211  723   5.016   5.485   5.896  0.0951 -0.5401 -0.2216
    6SAPS  H11R  724   4.973   5.489   5.997  1.3254 -0.7395  0.3208
    6SAPS  C212  725   4.935   5.516   5.796 -0.5799  0.3651  0.5627
    6SAPS  H12R  726   4.837   5.561   5.820 -0.2362  1.2440  0.3308
    6SAPS  C213  727   4.977   5.493   5.650  0.8897  0.2994 -0.3512
    6SAPS  H13R  728   4.949   5.387   5.628 -2.0148  1.4124 -2.6451
    6SAPS  H13S  729   5.085   5.500   5.626  0.5416  1.8338 -1.5808
    6SAPS  C214  730   4.888   5.575   5.557 -0.5395  0.6050  0.0179
    6SAPS  H14R  731   4.791   5.607   5.596  0.1274  0.4423  1.8904
    6SAPS  C215  732   4.924   5.627   5.441 -0.4743 -0.3966 -0.4426
    6SAPS  H15R  733   4.840   5.665   5.382 -1.1716 -0.5255  0.4414
    6SAPS  C216  734   5.052   5.606   5.364 -0.3115  0.3671  0.3933
    6SAPS  H16R  735   5.142   5.586   5.426  1.1458  0.2842 -1.6491
    6SAPS  H16S  736   5.079   5.704   5.320  1.3874 -0.3850 -0.3456
    6SAPS  C217  737   5.038   5.512   5.248 -0.3521  0.0016 -0.0204
    6SAPS  H17R  738   4.952   5.539   5.183 -0.1261 -1.7180 -1.0872
    6SAPS  H17S  739   5.021   5.407   5.282  1.8090 -0.2644  0.3521
    6SAPS  C218  740   5.167   5.508   5.155 -0.5901 -0.3962  0.1918
    6SAPS  H18R  741   5.258   5.482   5.214  0.0765  0.8081 -0.2635
    6SAPS  H18S  742   5.173   5.605   5.101 -0.7316 -0.9318 -0.8003
    6SAPS  C219  743   5.153   5.399   5.052 -0.7120  0.4547  0.4668
    6SAPS  H19R  744   5.054   5.412   5.003 -1.2383  0.9323  1.6141
    6SAPS  H19S  745   5.147   5.304   5.108  1.0153 -0.5135 -0.8862
    6SAPS  C220  746   5.268   5.395   4.941  0.3087  0.4137 -0.7901
    6SAPS  H20R  747   5.282   5.492   4.889 -0.0826  0.7217 -0.3339
    6SAPS  H20S  748   5.228   5.325   4.863  0.1056 -1.3221  0.7955
    6SAPS  H20T  749   5.367   5.352   4.966 -1.1037 -2.1631  0.8723
    6SAPS   C33  750   4.729   4.696   6.464 -0.2610  0.6363  0.5811
    6SAPS   H3X  751   4.642   4.764   6.470 -1.8904 -1.1160 -1.4382
    6SAPS   H3Y  752   4.709   4.616   6.390 -1.1984  0.5118  0.9572
    6SAPS   C34  753   4.840   4.785   6.407  0.0198  0.2118 -0.5148
    6SAPS   H4X  754   4.925   4.715   6.390  0.5234  0.5132  0.6307
    6SAPS   H4Y  755   4.865   4.856   6.488 -0.3119  0.4307 -0.6049
    6SAPS   C35  756   4.807   4.862   6.274  0.4181 -0.2113  0.3632
    6SAPS   H5X  757   4.711   4.910   6.301 -0.0450 -1.3607  0.8432
    6SAPS   H5Y  758   4.794   4.800   6.183  0.3824 -0.2866  0.4196
    6SAPS   C36  759   4.919   4.972   6.269  0.2089  0.2926  0.3942
    6SAPS   H6X  760   5.019   4.925   6.257 -0.2767 -0.8830  0.7896
    6SAPS   H6Y  761   4.918   5.027   6.366 -1.2059  1.3402 -0.1873
    6SAPS   C37  762   4.901   5.073   6.153 -0.1004 -0.0988 -0.2565
    6SAPS   H7X  763   4.990   5.139   6.151 -1.4647  1.8940 -2.9710
    6SAPS   H7Y  764   4.813   5.134   6.184  1.1997  0.6726  2.1566
    6SAPS   C38  765   4.873   5.016   6.013  0.7826  0.1791  0.7918
    6SAPS   H8X  766   4.780   4.955   6.017  1.4289 -0.8647  4.5893
    6SAPS   H8Y  767   4.949   4.940   5.984 -2.0559 -2.8023  0.6316
    6SAPS   C39  768   4.864   5.137   5.915 -0.0477  0.5154 -0.5511
    6SAPS   H9X  769   4.955   5.199   5.930 -1.9961  2.7640  4.3290
    6SAPS   H9Y  770   4.779   5.203   5.943  0.9405  0.9890  1.5561
    6SAPS  C310  771   4.849   5.101   5.764  0.2032 -0.4069  0.3175
    6SAPS  H10X  772   4.857   5.195   5.705  0.8466 -0.7930 -0.2263
    6SAPS  H10Y  773   4.744   5.067   5.749  0.2965 -0.2040 -0.8883
    6SAPS  C311  774   4.948   4.990   5.718 -0.3319  0.2320 -0.3166
    6SAPS  H11X  775   4.898   4.899   5.757 -1.1065  1.1013  0.7816
    6SAPS  H11Y  776   5.045   5.013   5.767 -0.6777  1.7974 -0.2918
    6SAPS  C312  777   4.941   4.981   5.566  0.2502  0.4000  0.3858
    6SAPS  H12X  778   4.836   5.007   5.540  0.9606  2.2875 -0.7801
    6SAPS  H12Y  779   4.962   4.875   5.539 -1.0420  0.4815 -1.1393
    6SAPS  C313  780   5.043   5.068   5.491  0.8857 -0.3596 -0.0020
    6SAPS  H13X  781   5.146   5.038   5.519  0.2274 -1.4880  1.3061
    6SAPS  H13Y  782   5.027   5.171   5.531 -1.4411 -0.1264 -1.3470
    6SAPS  C314  783   5.012   5.076   5.337  0.1489 -0.5700 -0.4619
    6SAPS  H14X  784   5.050   5.175   5.304 -1.4803  0.3285  0.2145
    6SAPS  H14Y  785   4.901   5.084   5.328  0.0468 -0.8625  0.4488
    6SAPS  C315  786   5.057   4.958   5.260  0.5425 -0.4641 -0.2370
    6SAPS  H15X  787   5.011   4.869   5.307  0.4434  0.0188  0.6083
    6SAPS  H15Y  788   5.168   4.953   5.261  0.5311 -1.1999  1.6906
    6SAPS  C316  789   4.997   4.967   5.121  0.0496 -0.4200 -0.4475
    6SAPS  H16X  790   5.012   4.876   5.059 -1.5345 -2.0088  1.3607
    6SAPS  H16Y  791   5.048   5.049   5.067 -1.0363 -0.6069 -1.8147
    6SAPS  C317  792   4.843   4.994   5.113 -0.7873  0.2173 -0.2345
    6SAPS  H17X  793   4.823   5.101   5.136 -1.2650 -0.5084  3.4907
    6SAPS  H17Y  794   4.783   4.940   5.189 -0.4710 -0.2240 -0.2975
    6SAPS  C318  795   4.786   4.963   4.980  0.4697 -0.1973  0.3829
    6SAPS  H18X  796   4.676   4.971   4.984  0.5749  1.1969  0.8156
    6SAPS  H18Y  797   4.811   4.863   4.937  1.6644  0.5827 -0.8059
    6SAPS  H18Z  798   4.824   5.022   4.895  0.0035 -0.8977 -0.3319
    7SAPS     N  799   4.709   6.067   7.525 -0.1946 -0.0922 -0.1895
    7SAPS   HN1  800   4.748   6.140   7.588 -0.0225  0.3747 -0.8223
    7SAPS   HN2  801   4.621   6.107   7.486 -0.7964 -0.3783  0.8479
    7SAPS   HN3  802   4.678   5.978   7.569 -1.8944  0.8314  0.5687
    7SAPS   C12  803   4.803   6.043   7.413 -0.6264  0.1498  0.1039
    7SAPS  H12A  804   4.904   6.037   7.450 -0.3480 -0.4162 -0.7102
    7SAPS   C13  805   4.767   5.922   7.330 -0.1130  0.4591 -0.2383
    7SAPS  O13A  806   4.673   5.851   7.369 -0.2024 -0.1865 -0.4228
    7SAPS  O13B  807   4.858   5.875   7.260  0.1088 -0.1382  0.0364
    7SAPS   C11  808   4.781   6.160   7.308  0.3507 -0.0883 -0.6440
    7SAPS  H11A  809   4.674   6.161   7.280 -0.3696 -0.1630  1.8649
    7SAPS  H11B  810   4.845   6.137   7.220  0.4405  0.1536 -0.6413
    7SAPS     P  811   4.761   6.427   7.359 -0.2837  0.1021 -0.2458
    7SAPS   O13  812   4.674   6.435   7.475  0.0630 -0.1836 -0.0758
    7SAPS   O14  813   4.869   6.528   7.354  0.2567 -0.1912  0.5401
    7SAPS   O12  814   4.822   6.285   7.368 -0.2983 -0.2799  0.3647
    7SAPS   O11  815   4.677   6.413   7.223  0.2757 -0.4246 -0.3910
    7SAPS    C1  816   4.728   6.389   7.090 -0.1341  0.6329 -0.2427
    7SAPS    HA  817   4.815   6.320   7.090  0.4570  1.3676  0.1330
    7SAPS    HB  818   4.650   6.337   7.030 -0.8901  0.8251  0.5477
    7SAPS    C2  819   4.749   6.519   7.008 -0.0899  0.1633 -0.0331
    7SAPS    HS  820   4.831   6.566   7.065  0.7705 -0.9170 -0.3379
    7SAPS   O21  821   4.625   6.594   7.013  0.7078 -0.0032 -0.1475
    7SAPS   C21  822   4.633   6.720   7.027 -0.4777  0.2013 -0.3918
    7SAPS   O22  823   4.738   6.787   7.033  0.1643 -0.5044  0.6177
    7SAPS   C22  824   4.498   6.787   7.037 -0.0877  0.0113 -0.1289
    7SAPS   H2R  825   4.410   6.719   7.048 -1.1295  0.7504 -3.0777
    7SAPS   H2S  826   4.513   6.850   7.127  1.0645 -0.0707 -0.2593
    7SAPS    C3  827   4.784   6.479   6.859  0.1924 -0.6671 -1.1518
    7SAPS    HX  828   4.704   6.411   6.823 -1.7860 -0.7979  2.9056
    7SAPS    HY  829   4.876   6.417   6.866  1.3143  1.0813  1.4902
    7SAPS   O31  830   4.796   6.592   6.771  0.7125  0.4131 -0.3583
    7SAPS   C31  831   4.763   6.576   6.642 -0.6766  0.0782  0.0160
    7SAPS   O32  832   4.736   6.471   6.591  0.1291 -0.0280  0.3275
    7SAPS   C32  833   4.778   6.714   6.569  0.2534 -0.3482  0.1459
    7SAPS   H2X  834   4.884   6.749   6.566 -0.4119  2.0445  1.4731
    7SAPS   H2Y  835   4.738   6.788   6.642 -1.3266  1.6427 -2.5717
    7SAPS   C23  836   4.477   6.872   6.907 -0.2524  0.2064 -0.0931
    7SAPS   H3R  837   4.568   6.935   6.897 -0.5046  0.5553 -0.2042
    7SAPS   H3S  838   4.394   6.944   6.920  0.4409  1.1829 -0.9313
    7SAPS   C24  839   4.463   6.788   6.777  0.4213  0.4828 -0.1859
    7SAPS   H4R  840   4.553   6.725   6.763  1.2772  1.7247 -0.3844
    7SAPS   H4S  841   4.468   6.862   6.694  0.6765  0.4704 -0.1826
    7SAPS   C25  842   4.335   6.699   6.773 -0.2265  0.1230  0.3676
    7SAPS   H5R  843   4.311   6.637   6.861  0.9119 -3.5904 -1.6748
    7SAPS   C26  844   4.253   6.705   6.666  1.1345 -0.7943  0.0825
    7SAPS   H6R  845   4.167   6.635   6.665 -1.4067  1.9986  2.5494
    7SAPS   C27  846   4.265   6.768   6.532  0.5900 -0.4311  0.4952
    7SAPS   H7R  847   4.194   6.712   6.468  0.2153 -0.4762  0.9503
    7SAPS   H7S  848   4.367   6.740   6.497  1.1616 -0.1903  1.9269
    7SAPS   C28  849   4.240   6.916   6.526 -0.2398 -0.2291 -0.2668
    7SAPS   H8R  850   4.272   6.985   6.605 -1.5110 -0.7616  0.7626
    7SAPS   C29  851   4.185   6.971   6.422 -0.1879 -0.3638  0.9183
    7SAPS   H9R  852   4.173   7.081   6.426 -1.9139 -0.4696 -0.4375
    7SAPS  C210  853   4.164   6.913   6.279  0.1908  0.0334 -0.5147
    7SAPS  H10R  854   4.077   6.845   6.283 -0.7972  1.2510 -0.5454
    7SAPS  H10S  855   4.250   6.845   6.262 -1.5431 -2.4496  0.1490
    7SAPS  C211  856   4.161   7.005   6.169 -0.6485 -0.1106 -0.2010
    7SAPS  H11R  857   4.184   7.106   6.205  0.5521 -0.7553  0.9395
    7SAPS  C212  858   4.126   6.990   6.041 -0.6727 -0.6984 -0.1366
    7SAPS  H12R  859   4.123   7.083   5.983  2.0454 -1.4802 -1.7293
    7SAPS  C213  860   4.111   6.870   5.965 -0.2551  0.3966  0.0471
    7SAPS  H13R  861   4.100   6.783   6.034  1.6178  2.4283  3.1323
    7SAPS  H13S  862   4.201   6.849   5.904  1.4138 -2.8074  3.1881
    7SAPS  C214  863   3.982   6.883   5.880  0.2308  0.5775 -0.0908
    7SAPS  H14R  864   3.891   6.844   5.926  0.5074  0.8325  0.6850
    7SAPS  C215  865   3.971   6.951   5.762 -0.4500  0.8161 -0.5011
    7SAPS  H15R  866   3.874   6.964   5.711 -0.2516  2.0715 -0.5665
    7SAPS  C216  867   4.086   7.030   5.693 -0.1366 -0.3005  1.0204
    7SAPS  H16R  868   4.183   6.997   5.736  0.2207 -1.1758 -0.4020
    7SAPS  H16S  869   4.050   7.134   5.709 -0.4921 -0.3014  0.2667
    7SAPS  C217  870   4.091   7.001   5.546 -0.1308  0.2039  0.9191
    7SAPS  H17R  871   4.115   6.893   5.532 -0.1979  0.0625  1.8333
    7SAPS  H17S  872   4.173   7.062   5.503  0.1382 -1.7897 -1.5998
    7SAPS  C218  873   3.979   7.037   5.454 -0.0247  0.3732  0.0149
    7SAPS  H18R  874   3.952   7.142   5.479 -1.1239  0.2685 -0.6970
    7SAPS  H18S  875   3.888   6.977   5.471  1.1614 -1.6196 -0.3198
    7SAPS  C219  876   4.018   7.035   5.308 -0.1799  0.9082  0.1517
    7SAPS  H19R  877   3.928   7.055   5.246  0.8554 -0.4152 -1.8845
    7SAPS  H19S  878   4.068   6.939   5.282 -1.7408 -0.1124  0.8156
    7SAPS  C220  879   4.108   7.143   5.255 -0.5911 -0.7256 -0.8072
    7SAPS  H20R  880   4.072   7.244   5.284  3.2508  0.5107  0.1775
    7SAPS  H20S  881   4.095   7.133   5.145 -1.6976 -1.4516 -0.6300
    7SAPS  H20T  882   4.212   7.133   5.293 -2.1113 -0.6929  3.9477
    7SAPS   C33  883   4.685   6.735   6.450 -0.2774 -0.4688 -0.2257
    7SAPS   H3X  884   4.657   6.841   6.436 -0.1072 -0.0494  2.2223
    7SAPS   H3Y  885   4.581   6.699   6.470 -0.1399 -1.3389 -1.0001
    7SAPS   C34  886   4.737   6.669   6.321  0.0368  0.1499  0.4617
    7SAPS   H4X  887   4.744   6.560   6.341 -0.7244  0.2118  1.1333
    7SAPS   H4Y  888   4.834   6.713   6.291  0.3922 -0.9707 -0.0906
    7SAPS   C35  889   4.640   6.676   6.201  0.4795 -0.1035 -0.7903
    7SAPS   H5X  890   4.554   6.612   6.229  0.4107  1.3903  3.0976
    7SAPS   H5Y  891   4.696   6.640   6.112 -1.2241  0.7780 -2.2852
    7SAPS   C36  892   4.575   6.809   6.162 -0.5472 -1.4442  0.3992
    7SAPS   H6X  893   4.662   6.877   6.147 -0.6355 -1.8423 -2.4341
    7SAPS   H6Y  894   4.502   6.861   6.227 -1.9338 -1.8929 -0.7423
    7SAPS   C37  895   4.511   6.818   6.022  0.2315  0.1830 -0.1347
    7SAPS   H7X  896   4.482   6.924   6.008 -1.0110  0.1349  1.8118
    7SAPS   H7Y  897   4.419   6.757   6.030 -1.4821  2.5979 -0.5361
    7SAPS   C38  898   4.592   6.778   5.898 -0.5633  0.3728 -0.7198
    7SAPS   H8X  899   4.635   6.676   5.914 -0.8426  0.4023  0.3008
    7SAPS   H8Y  900   4.673   6.850   5.875 -2.2289  2.6110  0.1291
    7SAPS   C39  901   4.510   6.749   5.772  0.3160 -0.6186  0.3738
    7SAPS   H9X  902   4.412   6.705   5.800  0.0290  0.0371  0.4139
    7SAPS   H9Y  903   4.564   6.672   5.711 -0.6187  0.6283 -2.1987
    7SAPS  C310  904   4.469   6.874   5.687  0.7596  0.9285  0.0078
    7SAPS  H10X  905   4.541   6.951   5.720  0.1998  0.5436  2.2794
    7SAPS  H10Y  906   4.364   6.884   5.722  1.1024  0.1566  1.3122
    7SAPS  C311  907   4.479   6.862   5.536  0.0471  0.1121  0.4034
    7SAPS  H11X  908   4.408   6.933   5.489 -0.7206 -1.4028 -0.8307
    7SAPS  H11Y  909   4.433   6.767   5.501 -0.7016  0.6527 -0.1156
    7SAPS  C312  910   4.614   6.898   5.482 -0.3848 -0.1441  0.6490
    7SAPS  H12X  911   4.694   6.844   5.537  0.2100 -1.0001 -0.9752
    7SAPS  H12Y  912   4.636   7.004   5.505 -1.6912  0.6420 -1.4821
    7SAPS  C313  913   4.635   6.874   5.331  0.5066  0.7618  0.2803
    7SAPS  H13X  914   4.571   6.936   5.265 -0.8109  0.1008  0.9098
    7SAPS  H13Y  915   4.607   6.767   5.319  1.5323  0.3505  1.3776
    7SAPS  C314  916   4.780   6.895   5.283 -0.6339 -0.0192  0.0474
    7SAPS  H14X  917   4.839   6.808   5.319  0.0960  0.8479  1.0425
    7SAPS  H14Y  918   4.819   6.988   5.330 -0.5135  0.6143 -1.2701
    7SAPS  C315  919   4.797   6.913   5.129 -0.5176  0.5127 -1.1493
    7SAPS  H15X  920   4.900   6.947   5.103 -0.0518  0.9438  1.0726
    7SAPS  H15Y  921   4.734   6.999   5.101 -1.8610 -0.3295 -0.7873
    7SAPS  C316  922   4.757   6.797   5.047 -0.0999 -0.1724  0.1195
    7SAPS  H16X  923   4.648   6.783   5.061 -0.3819  1.6217 -0.0364
    7SAPS  H16Y  924   4.808   6.702   5.073  1.2956  0.2558 -0.9004
    7SAPS  C317  925   4.775   6.825   4.899  0.1060  0.2452  0.2589
    7SAPS  H17X  926   4.881   6.805   4.872  0.3465  1.1916  0.4643
    7SAPS  H17Y  927   4.746   6.929   4.873 -1.4544 -0.1239  0.4248
    7SAPS  C318  928   4.690   6.738   4.801 -0.3999  0.0998  0.0916
    7SAPS  H18X  929   4.723   6.633   4.806 -3.0110 -0.7395  1.9135
    7SAPS  H18Y  930   4.677   6.779   4.698 -3.7626 -0.5237  0.1414
    7SAPS  H18Z  931   4.598   6.733   4.863 -1.1327  1.7698 -0.7929
    8SAPS     N  932   4.182   0.390   7.397  0.4870 -0.7870 -0.3633
    8SAPS   HN1  933   4.151   0.447   7.478 -2.6177 -1.0138 -1.2530
    8SAPS   HN2  934   4.264   0.327   7.407 -0.1366 -1.6225 -0.3919
    8SAPS   HN3  935   4.189   0.467   7.327 -0.5690 -1.5502 -1.3513
    8SAPS   C12  936   4.066   0.300   7.367 -0.1306 -0.3472 -0.1030
    8SAPS  H12A  937   4.072   0.265   7.265 -2.5891 -0.2462 -0.3462
    8SAPS   C13  938   4.065   0.173   7.458  0.4518  0.3173 -0.1710
    8SAPS  O13A  939   4.153   0.152   7.541 -0.2317  0.1338 -0.5302
    8SAPS  O13B  940   3.958   0.107   7.459 -0.3590  0.3569 -0.2425
    8SAPS   C11  941   3.928   0.370   7.376 -0.2216  0.0142 -0.0446
    8SAPS  H11A  942   3.899   0.374   7.483 -0.6357 -1.1360 -0.1043
    8SAPS  H11B  943   3.851   0.312   7.321 -1.0306  1.7068 -0.7711
    8SAPS     P  944   3.913   0.526   7.173  0.1012 -0.0435  0.3690
    8SAPS   O13  945   3.779   0.585   7.153  0.4813  0.1969 -0.0934
    8SAPS   O14  946   4.029   0.613   7.134  0.3170  0.5769  0.0773
    8SAPS   O12  947   3.932   0.504   7.326 -0.0208 -0.4689 -0.3842
    8SAPS   O11  948   3.936   0.388   7.101  0.6094  0.3561  0.3605
    8SAPS    C1  949   3.846   0.311   7.022  0.2699 -0.2050  0.1112
    8SAPS    HA  950   3.831   0.209   7.064  0.1919 -0.6039 -0.8459
    8SAPS    HB  951   3.750   0.365   7.008  0.6548  0.8736  1.4895
    8SAPS    C2  952   3.907   0.301   6.885 -0.0166  0.5513  0.1705
    8SAPS    HS  953   4.012   0.270   6.903  0.1161  1.5461  1.2268
    8SAPS   O21  954   3.905   0.419   6.810  0.2981 -0.1218  0.7554
    8SAPS   C21  955   3.987   0.433   6.712 -0.3482 -0.6329  0.6919
    8SAPS   O22  956   4.102   0.391   6.701  0.1192  0.2285  0.2619
    8SAPS   C22  957   3.924   0.527   6.609 -0.2577 -0.2199 -0.7707
    8SAPS   H2R  958   3.817   0.508   6.586 -0.9165  2.4995 -0.3019
    8SAPS   H2S  959   3.928   0.629   6.652  1.3991 -0.7550  0.4718
    8SAPS    C3  960   3.840   0.175   6.799 -0.2105 -0.3704  0.2013
    8SAPS    HX  961   3.733   0.175   6.826  0.0003  2.0954  1.2923
    8SAPS    HY  962   3.880   0.078   6.838 -0.9471 -0.3755  0.9614
    8SAPS   O31  963   3.872   0.192   6.657  0.1374  0.0146  0.3738
    8SAPS   C31  964   3.795   0.123   6.568  0.4184 -0.7156 -0.0710
    8SAPS   O32  965   3.722   0.030   6.598  0.2115  0.7565 -0.4442
    8SAPS   C32  966   3.812   0.178   6.431 -0.5300  0.2045  0.2185
    8SAPS   H2X  967   3.914   0.145   6.403 -1.1337 -3.8520  2.1254
    8SAPS   H2Y  968   3.810   0.289   6.421 -0.7031  0.0204 -2.7953
    8SAPS   C23  969   4.003   0.550   6.478  0.4382  0.3557  0.3791
    8SAPS   H3R  970   3.999   0.454   6.423  0.5840 -0.2625  1.4064
    8SAPS   H3S  971   4.106   0.566   6.517  1.2460 -1.5338 -0.8752
    8SAPS   C24  972   3.936   0.659   6.392 -0.0126 -0.0347  0.4999
    8SAPS   H4R  973   3.922   0.753   6.450 -2.6119  0.5896 -0.9955
    8SAPS   H4S  974   3.832   0.637   6.360  0.0127  1.4228 -0.7149
    8SAPS   C25  975   4.026   0.694   6.275 -0.0654 -0.1927  0.4439
    8SAPS   H5R  976   4.114   0.756   6.294  0.9403 -1.2377 -0.6518
    8SAPS   C26  977   4.014   0.635   6.153  0.6830 -0.7128 -0.2632
    8SAPS   H6R  978   4.070   0.686   6.073 -1.6205  1.5266 -0.5469
    8SAPS   C27  979   3.911   0.538   6.117 -0.1590  0.3453 -0.0298
    8SAPS   H7R  980   3.887   0.482   6.209  2.9783 -0.5131  0.3910
    8SAPS   H7S  981   3.970   0.462   6.060  2.0001  1.8365  0.0680
    8SAPS   C28  982   3.798   0.573   6.031  0.2699 -0.4654  0.5626
    8SAPS   H8R  983   3.701   0.590   6.081 -0.4149  0.2508 -0.9610
    8SAPS   C29  984   3.806   0.594   5.896  0.2970 -1.2967  0.3629
    8SAPS   H9R  985   3.721   0.645   5.848  0.9978  0.6328  1.0591
    8SAPS  C210  986   3.930   0.584   5.804  0.3886  0.4962 -0.5744
    8SAPS  H10R  987   3.901   0.526   5.714  1.5273 -1.0812  0.0347
    8SAPS  H10S  988   3.998   0.517   5.861 -0.5974  0.0991  0.1723
    8SAPS  C211  989   4.017   0.704   5.772 -0.2752  0.0735  0.3667
    8SAPS  H11R  990   3.998   0.789   5.838  1.0217  0.1606  0.6684
    8SAPS  C212  991   4.092   0.740   5.664  0.3710  0.7662  0.8345
    8SAPS  H12R  992   4.135   0.842   5.659  1.2138  0.4811  1.7847
    8SAPS  C213  993   4.129   0.656   5.543 -0.4954  0.5853 -0.1696
    8SAPS  H13R  994   4.106   0.550   5.566 -1.4348  0.4420 -1.5997
    8SAPS  H13S  995   4.236   0.668   5.518 -0.8456  4.4705 -0.3796
    8SAPS  C214  996   4.030   0.678   5.432  0.0270 -0.5219  0.1911
    8SAPS  H14R  997   3.936   0.632   5.467 -0.8255  2.0630  1.5636
    8SAPS  C215  998   4.043   0.718   5.305 -0.8880 -0.2405  0.0850
    8SAPS  H15R  999   3.952   0.718   5.243 -0.8001 -0.3529 -0.0450
    8SAPS  C216 1000   4.168   0.762   5.240  0.0245  1.3444 -0.5062
    8SAPS  H16R 1001   4.147   0.808   5.141 -0.4357  0.2035 -0.9580
    8SAPS  H16S 1002   4.240   0.678   5.235 -1.6049 -0.3529  1.9554
    8SAPS  C217 1003   4.238   0.875   5.319  0.1730 -0.1923  0.1288
    8SAPS  H17R 1004   4.277   0.839   5.416  0.5645 -0.7381 -0.2239
    8SAPS  H17S 1005   4.167   0.957   5.342 -0.1292 -0.3615 -0.1829
    8SAPS  C218 1006   4.344   0.935   5.240 -0.1803 -0.6525  0.4183
    8SAPS  H18R 1007   4.310   0.952   5.135  1.6446 -0.7070 -0.2167
    8SAPS  H18S 1008   4.440   0.880   5.240  0.6370  0.7032  1.9028
    8SAPS  C219 1009   4.390   1.072   5.294  0.1660 -0.0987 -0.1819
    8SAPS  H19R 1010   4.402   1.061   5.404 -2.6237  1.0596  0.3156
    8SAPS  H19S 1011   4.306   1.144   5.288 -1.3749 -1.8880 -1.2418
    8SAPS  C220 1012   4.514   1.135   5.216 -0.6772 -0.1168  0.1589
    8SAPS  H20R 1013   4.599   1.066   5.203  0.4353  1.4116 -1.1331
    8SAPS  H20S 1014   4.551   1.228   5.265  0.5294 -0.2797 -0.4113
    8SAPS  H20T 1015   4.499   1.158   5.109  0.9273 -2.2706 -0.5810
    8SAPS   C33 1016   3.702   0.133   6.331 -0.2901  0.5934  0.2542
    8SAPS   H3X 1017   3.611   0.094   6.382 -0.0260 -2.4009 -1.3218
    8SAPS   H3Y 1018   3.747   0.047   6.276 -1.4460 -0.2510  0.5910
    8SAPS   C34 1019   3.678   0.228   6.216  0.2196  0.2475 -0.2540
    8SAPS   H4X 1020   3.778   0.252   6.173  1.3360 -2.3327  0.7128
    8SAPS   H4Y 1021   3.624   0.319   6.250 -0.4573 -0.7420  1.4325
    8SAPS   C35 1022   3.609   0.156   6.105  0.4146  0.2638  0.1083
    8SAPS   H5X 1023   3.503   0.142   6.134  1.1650 -1.4681  2.3059
    8SAPS   H5Y 1024   3.658   0.058   6.088 -0.9241 -0.1492 -1.6431
    8SAPS   C36 1025   3.632   0.235   5.971 -0.3831  0.3879  0.2838
    8SAPS   H6X 1026   3.741   0.240   5.951 -0.5638  1.1337 -0.5667
    8SAPS   H6Y 1027   3.600   0.338   5.996  0.2036  0.7542 -0.4408
    8SAPS   C37 1028   3.546   0.176   5.859 -0.4905 -0.0999 -0.5952
    8SAPS   H7X 1029   3.437   0.192   5.874 -0.4626  0.6738 -1.1381
    8SAPS   H7Y 1030   3.556   0.066   5.868 -1.9672 -0.1851  0.5381
    8SAPS   C38 1031   3.577   0.230   5.723 -0.4315 -0.2621 -0.5957
    8SAPS   H8X 1032   3.686   0.241   5.703 -0.3475  1.8933  0.7348
    8SAPS   H8Y 1033   3.530   0.330   5.712  0.3577  0.2212  0.2868
    8SAPS   C39 1034   3.519   0.135   5.618 -0.2530 -0.5554 -0.2551
    8SAPS   H9X 1035   3.408   0.145   5.614 -0.1972 -0.3255 -1.3782
    8SAPS   H9Y 1036   3.543   0.028   5.636 -0.7011 -0.3277  2.0441
    8SAPS  C310 1037   3.562   0.181   5.478 -0.3424  1.0285 -0.2546
    8SAPS  H10X 1038   3.673   0.185   5.480 -0.3479  1.3735 -0.6602
    8SAPS  H10Y 1039   3.522   0.284   5.470  1.1889  1.7684  0.8740
    8SAPS  C311 1040   3.512   0.099   5.354 -0.2947 -0.0645 -0.1067
    8SAPS  H11X 1041   3.475   0.003   5.396 -5.0387  1.0387 -1.1863
    8SAPS  H11Y 1042   3.600   0.089   5.288  1.8128 -0.6289  2.5980
    8SAPS  C312 1043   3.401   0.170   5.285 -0.1456 -0.6486  0.3267
    8SAPS  H12X 1044   3.440   0.267   5.247 -1.4139 -0.9921 -2.1132
    8SAPS  H12Y 1045   3.308   0.176   5.346 -0.6789 -1.4506 -0.3724
    8SAPS  C313 1046   3.357   0.089   5.157  0.0131  0.1193 -0.0231
    8SAPS  H13X 1047   3.384  -0.017   5.174 -2.5671 -0.6314 -0.1984
    8SAPS  H13Y 1048   3.425   0.110   5.071  1.1743 -1.3696  0.4869
    8SAPS  C314 1049   3.209   0.087   5.113 -0.6672 -0.5658  0.4471
    8SAPS  H14X 1050   3.156   0.047   5.202 -0.2001  0.9302  1.4364
    8SAPS  H14Y 1051   3.189   0.013   5.032  1.3400  0.4504 -1.0810
    8SAPS  C315 1052   3.153   0.223   5.069  0.2939  0.0187 -0.0116
    8SAPS  H15X 1053   3.234   0.260   5.003  0.7093 -2.6709 -1.1576
    8SAPS  H15Y 1054   3.160   0.288   5.159 -1.3298  2.4607 -1.5362
    8SAPS  C316 1055   3.016   0.219   5.003 -0.4048 -0.2791  0.4385
    8SAPS  H16X 1056   3.004   0.121   4.951  0.6104  0.1046 -0.5561
    8SAPS  H16Y 1057   3.003   0.303   4.933 -2.6586 -0.6744  0.2973
    8SAPS  C317 1058   2.902   0.233   5.108  0.1459 -0.1554 -0.3494
    8SAPS  H17X 1059   2.935   0.313   5.178  3.1550  1.5337 -3.3956
    8SAPS  H17Y 1060   2.890   0.153   5.184  1.2399  1.2316  1.3717
    8SAPS  C318 1061   2.766   0.260   5.038  0.0218 -1.8080 -0.0777
    8SAPS  H18X 1062   2.780   0.366   5.009  0.6596 -1.7501  0.4072
    8SAPS  H18Y 1063   2.682   0.246   5.109 -0.9679 -0.2730 -0.8967
    8SAPS  H18Z 1064   2.758   0.193   4.950 -1.3472 -0.7793 -0.7648
    9SAPS     N 1065   0.102   6.263   7.337  0.2699 -0.0454  0.0694
    9SAPS   HN1 1066   0.052   6.250   7.427 -0.3326  2.9692  0.2692
    9SAPS   HN2 1067   0.034   6.294   7.264  0.1654  0.0623  0.2128
    9SAPS   HN3 1068   0.137   6.167   7.318 -2.3953 -0.8442 -1.3930
    9SAPS   C12 1069   0.217   6.361   7.356 -0.8853  0.0460  0.5762
    9SAPS  H12A 1070   0.184   6.463   7.356 -2.4030 -0.3916  2.4956
    9SAPS   C13 1071   0.298   6.329   7.481  0.2554 -0.0202  0.4660
    9SAPS  O13A 1072   0.280   6.213   7.541  0.0120 -0.2791 -0.0840
    9SAPS  O13B 1073   0.400   6.403   7.503  0.1983  0.2257  0.0558
    9SAPS   C11 1074   0.321   6.356   7.239  0.1942 -1.1076 -0.7327
    9SAPS  H11A 1075   0.378   6.261   7.238  0.3191 -1.0643  0.3406
    9SAPS  H11B 1076   0.399   6.429   7.269  1.4409 -2.8659  0.5471
    9SAPS     P 1077   0.334   6.434   6.989 -0.2118 -0.0249 -0.2870
    9SAPS   O13 1078   0.364   6.577   7.008 -0.3115  0.5186 -0.5764
    9SAPS   O14 1079   0.453   6.350   6.958  0.3236 -0.3191 -0.4676
    9SAPS   O12 1080   0.255   6.380   7.114 -0.2230 -0.2039 -0.2920
    9SAPS   O11 1081   0.235   6.421   6.870 -0.2736 -0.1564  0.0090
    9SAPS    C1 1082   0.136   6.325   6.832 -0.3664  0.4482 -0.2340
    9SAPS    HA 1083   0.173   6.225   6.860 -3.6297 -0.4406  1.3761
    9SAPS    HB 1084   0.045   6.343   6.894  0.0654  1.0820  0.2294
    9SAPS    C2 1085   0.096   6.329   6.681 -0.4829  0.2979 -0.0238
    9SAPS    HS 1086   0.011   6.265   6.649  0.6029 -0.9460 -0.5115
    9SAPS   O21 1087   0.209   6.297   6.604  0.2490  0.1622 -0.1650
    9SAPS   C21 1088   0.232   6.168   6.594 -0.0970 -0.3229 -0.3363
    9SAPS   O22 1089   0.162   6.082   6.642 -0.2042  0.3141  0.0058
    9SAPS   C22 1090   0.365   6.148   6.524 -0.4386  0.0784 -0.4960
    9SAPS   H2R 1091   0.434   6.234   6.532 -0.1795 -0.2909  1.7683
    9SAPS   H2S 1092   0.415   6.061   6.571 -3.0601 -2.1343 -1.5083
    9SAPS    C3 1093   0.064   6.480   6.670 -0.0436  0.1840 -0.1452
    9SAPS    HX 1094   0.149   6.545   6.698 -0.0589 -0.4127  1.3651
    9SAPS    HY 1095  -0.017   6.509   6.739 -0.0757 -1.4347  0.5503
    9SAPS   O31 1096   0.004   6.513   6.538  0.0698  0.2486 -0.7604
    9SAPS   C31 1097   0.042   6.633   6.490  0.9851 -0.1981 -0.5037
    9SAPS   O32 1098   0.110   6.725   6.540  0.0728  0.6443  0.2643
    9SAPS   C32 1099  -0.044   6.649   6.360 -0.5746 -0.2415  0.5794
    9SAPS   H2X 1100  -0.116   6.731   6.381 -0.8173 -0.8897  2.3824
    9SAPS   H2Y 1101  -0.098   6.554   6.346  0.6310 -1.0826  1.4770
    9SAPS   C23 1102   0.341   6.117   6.369  0.0291 -0.2771 -0.1302
    9SAPS   H3R 1103   0.345   6.207   6.304 -1.4595  1.2184  1.7110
    9SAPS   H3S 1104   0.240   6.072   6.355  0.7274 -2.1317  0.4606
    9SAPS   C24 1105   0.445   6.020   6.314 -0.3890 -0.8755  0.5609
    9SAPS   H4R 1106   0.418   5.994   6.210 -0.4155 -0.3122  0.4213
    9SAPS   H4S 1107   0.447   5.927   6.374 -1.3309  0.8552  3.4944
    9SAPS   C25 1108   0.589   6.077   6.317  0.3483 -0.2211  0.2119
    9SAPS   H5R 1109   0.622   6.113   6.416 -1.9068  1.1283  0.5438
    9SAPS   C26 1110   0.677   6.058   6.219  0.3998 -0.1455  0.6793
    9SAPS   H6R 1111   0.766   6.122   6.227  1.5608 -1.6890  0.5886
    9SAPS   C27 1112   0.638   6.005   6.079  1.1675 -0.0883 -0.0011
    9SAPS   H7R 1113   0.586   5.909   6.100 -0.4154  0.2124 -2.2357
    9SAPS   H7S 1114   0.729   5.963   6.031  0.9101 -2.7902  1.6507
    9SAPS   C28 1115   0.551   6.085   5.985  0.3960 -0.8772  0.3870
    9SAPS   H8R 1116   0.458   6.117   6.035  1.4814  0.0732  1.9093
    9SAPS   C29 1117   0.583   6.110   5.858  0.6823 -0.2226  1.0278
    9SAPS   H9R 1118   0.518   6.179   5.801  0.7375 -0.9887  0.0027
    9SAPS  C210 1119   0.700   6.075   5.774 -0.3682  0.2659  0.6543
    9SAPS  H10R 1120   0.796   6.068   5.829  0.1884 -1.2343 -0.4448
    9SAPS  H10S 1121   0.716   6.161   5.706  1.3015  0.6887  1.5218
    9SAPS  C211 1122   0.679   5.952   5.686  0.5163 -0.1066 -0.5344
    9SAPS  H11R 1123   0.616   5.872   5.727  0.6031 -0.2976 -0.7766
    9SAPS  C212 1124   0.742   5.925   5.570  0.0658  0.0674 -0.7745
    9SAPS  H12R 1125   0.723   5.830   5.519  0.8767 -1.2081  1.1807
    9SAPS  C213 1126   0.839   6.018   5.505  0.0457  1.0618 -0.4462
    9SAPS  H13R 1127   0.894   6.079   5.580 -1.3858 -1.4279  2.8944
    9SAPS  H13S 1128   0.782   6.077   5.430  0.1765  1.3479 -0.3210
    9SAPS  C214 1129   0.953   5.944   5.440  0.5273  0.4836 -0.9853
    9SAPS  H14R 1130   0.933   5.843   5.402  1.5145 -0.4072  0.7618
    9SAPS  C215 1131   1.083   5.985   5.446  0.4851  0.1320 -1.0461
    9SAPS  H15R 1132   1.163   5.922   5.405  0.6280 -0.3486 -0.0548
    9SAPS  C216 1133   1.126   6.120   5.500 -0.5252 -0.8836  0.7064
    9SAPS  H16R 1134   1.041   6.192   5.505  0.4108  0.2295  1.1726
    9SAPS  H16S 1135   1.209   6.159   5.437 -0.1951 -0.4366  1.4094
    9SAPS  C217 1136   1.198   6.117   5.635  0.4769 -0.0183 -0.5355
    9SAPS  H17R 1137   1.224   6.221   5.663 -1.8080  0.3501  0.4597
    9SAPS  H17S 1138   1.295   6.062   5.636  2.0924  2.5854  1.8683
    9SAPS  C218 1139   1.113   6.057   5.750  0.2259 -0.1675  0.1520
    9SAPS  H18R 1140   1.081   5.955   5.720 -0.7014 -0.3615  1.6804
    9SAPS  H18S 1141   1.032   6.132   5.752  0.6538  0.2981  1.4667
    9SAPS  C219 1142   1.195   6.061   5.884 -0.5366 -0.6760  0.2041
    9SAPS  H19R 1143   1.255   6.153   5.897 -2.1377  0.1265  2.6273
    9SAPS  H19S 1144   1.274   5.986   5.901  1.5008  1.8780  2.8923
    9SAPS  C220 1145   1.089   6.040   5.995  1.3673 -0.8529 -0.4963
    9SAPS  H20R 1146   1.126   6.034   6.100 -0.2650 -2.0625  0.0607
    9SAPS  H20S 1147   1.042   5.940   5.981 -0.5012 -0.2091  0.7188
    9SAPS  H20T 1148   1.005   6.112   5.988  0.0334 -2.4216 -1.2725
    9SAPS   C33 1149   0.044   6.688   6.231  0.2545  0.1153 -0.1959
    9SAPS   H3X 1150   0.130   6.620   6.245  0.6310  0.5907 -0.1751
    9SAPS   H3Y 1151   0.071   6.794   6.252  1.7174 -0.2650 -0.0978
    9SAPS   C34 1152  -0.014   6.653   6.095  0.6365 -0.7369  0.6312
    9SAPS   H4X 1153  -0.101   6.718   6.075  2.2427  0.7058 -2.4010
    9SAPS   H4Y 1154  -0.060   6.552   6.100 -3.0173  0.7327 -0.1566
    9SAPS   C35 1155   0.093   6.660   5.979  0.3059 -0.6159 -1.1813
    9SAPS   H5X 1156   0.172   6.591   6.018  0.1680  0.1612  0.5796
    9SAPS   H5Y 1157   0.136   6.762   5.989 -2.0780  0.3271  0.1852
    9SAPS   C36 1158   0.035   6.621   5.847 -0.9081  0.0072  0.4510
    9SAPS   H6X 1159  -0.045   6.680   5.798 -0.9207 -0.0606  0.3888
    9SAPS   H6Y 1160  -0.008   6.518   5.851 -0.9709 -0.0457 -1.1011
    9SAPS   C37 1161   0.143   6.620   5.732  0.0457 -0.3347  0.1042
    9SAPS   H7X 1162   0.199   6.525   5.740 -2.0949 -2.1736 -3.9229
    9SAPS   H7Y 1163   0.193   6.719   5.744 -2.4295  1.4014 -2.4693
    9SAPS   C38 1164   0.083   6.626   5.591 -0.0067 -0.3512  0.3863
    9SAPS   H8X 1165   0.008   6.708   5.582 -0.9705 -1.2078  0.4393
    9SAPS   H8Y 1166   0.028   6.534   5.560  0.7277 -0.5447 -0.3512
    9SAPS   C39 1167   0.200   6.624   5.487 -0.9284  0.1299 -0.4395
    9SAPS   H9X 1168   0.252   6.529   5.511 -1.9407 -0.6418 -1.2273
    9SAPS   H9Y 1169   0.275   6.702   5.513  1.5085 -2.5144  1.1023
    9SAPS  C310 1170   0.165   6.624   5.337  0.8911  0.4453 -0.1960
    9SAPS  H10X 1171   0.109   6.529   5.324  0.4698  0.4615  1.3883
    9SAPS  H10Y 1172   0.264   6.616   5.286  0.9953  0.3325  0.0206
    9SAPS  C311 1173   0.091   6.747   5.283 -0.4638 -0.0985 -0.2470
    9SAPS  H11X 1174   0.142   6.841   5.315 -0.2501 -0.2615 -0.1094
    9SAPS  H11Y 1175  -0.010   6.741   5.328 -0.4134 -1.0195 -0.2453
    9SAPS  C312 1176   0.066   6.760   5.131 -0.5629  0.5379 -0.7858
    9SAPS  H12X 1177   0.016   6.668   5.096 -1.2405  1.0143 -1.0989
    9SAPS  H12Y 1178   0.165   6.775   5.083 -0.3013  2.9585  0.3470
    9SAPS  C313 1179  -0.029   6.875   5.098 -0.7200 -0.3406 -0.1097
    9SAPS  H13X 1180   0.031   6.965   5.123  0.3041 -0.9937 -0.1755
    9SAPS  H13Y 1181  -0.114   6.880   5.169 -1.2492 -2.0741 -0.5795
    9SAPS  C314 1182  -0.077   6.884   4.957  0.2193 -0.6002  0.5175
    9SAPS  H14X 1183  -0.149   6.968   4.952  1.8244  0.7484 -2.9998
    9SAPS  H14Y 1184  -0.131   6.788   4.944  0.0315 -1.1172  4.0415
    9SAPS  C315 1185   0.027   6.915   4.847 -0.1441 -0.6562 -0.2040
    9SAPS  H15X 1186   0.119   6.858   4.874  0.3221  0.7571  1.4295
    9SAPS  H15Y 1187   0.054   7.021   4.864  0.8243 -0.6187 -1.7938
    9SAPS  C316 1188  -0.016   6.890   4.703  0.7491 -0.4577 -0.1078
    9SAPS  H16X 1189  -0.059   6.788   4.689  1.2550 -0.6138 -0.5611
    9SAPS  H16Y 1190   0.076   6.892   4.641  1.2754  0.7166  0.6622
    9SAPS  C317 1191  -0.101   7.002   4.638  0.1287  0.6617 -0.1521
    9SAPS  H17X 1192  -0.048   7.099   4.647 -0.1273  1.0133 -2.0852
    9SAPS  H17Y 1193  -0.204   6.990   4.679  0.6667 -1.2826  0.7238
    9SAPS  C318 1194  -0.112   6.970   4.490 -0.1029 -0.5031 -0.3933
    9SAPS  H18X 1195  -0.017   6.975   4.433  0.7349 -1.5190  0.8610
    9SAPS  H18Y 1196  -0.181   7.051   4.458 -0.8772 -1.2574 -0.7078
    9SAPS  H18Z 1197  -0.166   6.873   4.474  1.5497 -1.9361  2.0873
   10SAPS     N 1198   2.624   0.434   7.365  0.1787  0.0445  0.7967
   10SAPS   HN1 1199   2.586   0.521   7.409 -1.4439  0.1659 -0.7656
   10SAPS   HN2 1200   2.672   0.470   7.280 -2.3053  0.8041 -0.3862
   10SAPS   HN3 1201   2.546   0.377   7.327  1.6865 -0.3287 -1.9986
   10SAPS   C12 1202   2.707   0.355   7.454 -0.3981  0.0314 -0.6550
   10SAPS  H12A 1203   2.799   0.410   7.463 -0.7443  0.5651 -0.3585
   10SAPS   C13 1204   2.647   0.344   7.604  0.1441  0.1863  0.5248
   10SAPS  O13A 1205   2.546   0.416   7.638 -0.4043  0.6813 -0.1491
   10SAPS  O13B 1206   2.718   0.290   7.688  0.3859  0.0682 -0.0730
   10SAPS   C11 1207   2.745   0.221   7.388  0.4964 -0.3042 -0.3555
   10SAPS  H11A 1208   2.653   0.175   7.348  1.3169 -1.0384 -1.4641
   10SAPS  H11B 1209   2.790   0.152   7.464 -1.5343 -1.2589  0.0571
   10SAPS     P 1210   2.972   0.282   7.291  0.2859 -0.0855 -0.0511
   10SAPS   O13 1211   2.989   0.430   7.262  0.5454  0.2536  0.0898
   10SAPS   O14 1212   3.023   0.233   7.422 -0.2561  0.2925 -0.2069
   10SAPS   O12 1213   2.820   0.245   7.276 -0.2915  0.7660 -0.0476
   10SAPS   O11 1214   3.037   0.200   7.175 -0.3674 -0.0677  0.2572
   10SAPS    C1 1215   2.993   0.071   7.145  0.1931  0.4225 -0.1070
   10SAPS    HA 1216   2.985   0.003   7.233 -1.7603  0.6947 -0.0267
   10SAPS    HB 1217   2.898   0.077   7.088  0.3415 -3.8334 -1.1397
   10SAPS    C2 1218   3.072   0.001   7.034  0.7885 -0.4399 -0.2928
   10SAPS    HS 1219   3.173  -0.031   7.068 -0.1658 -0.8676  2.3742
   10SAPS   O21 1220   3.087   0.097   6.929 -0.7537  0.3756 -0.2073
   10SAPS   C21 1221   3.196   0.171   6.937 -0.3050  0.3893 -0.8379
   10SAPS   O22 1222   3.276   0.175   7.032  0.2399  0.0221 -0.0148
   10SAPS   C22 1223   3.220   0.230   6.801 -0.1074  0.2946  0.5898
   10SAPS   H2R 1224   3.285   0.153   6.754 -2.2342 -0.3499 -1.4662
   10SAPS   H2S 1225   3.125   0.246   6.746 -0.0029  0.4697  0.4587
   10SAPS    C3 1226   3.011  -0.132   6.973 -0.4497  0.0190  0.1759
   10SAPS    HX 1227   3.026  -0.221   7.036 -0.7193 -0.9412 -1.0785
   10SAPS    HY 1228   3.085  -0.139   6.890  1.8185 -2.9209  2.2824
   10SAPS   O31 1229   2.878  -0.121   6.928  0.0371  0.7077 -0.1377
   10SAPS   C31 1230   2.827  -0.237   6.892  0.6779 -0.2588  0.8654
   10SAPS   O32 1231   2.890  -0.344   6.898  0.4046  0.2429  0.0530
   10SAPS   C32 1232   2.677  -0.209   6.852 -0.4162  0.0829  0.5039
   10SAPS   H2X 1233   2.677  -0.106   6.811  1.8729 -0.1694 -0.3041
   10SAPS   H2Y 1234   2.632  -0.221   6.952  1.8878 -0.6177  1.5342
   10SAPS   C23 1235   3.299   0.367   6.798 -0.6262 -0.5047  0.3166
   10SAPS   H3R 1236   3.278   0.420   6.893  1.4413  1.5452 -0.2702
   10SAPS   H3S 1237   3.252   0.427   6.718 -0.7980  0.2652  0.9904
   10SAPS   C24 1238   3.446   0.339   6.770  0.3004  0.7092 -0.6255
   10SAPS   H4R 1239   3.475   0.269   6.852 -0.2837  1.2490  0.0630
   10SAPS   H4S 1240   3.495   0.438   6.777  2.6790 -0.2561 -2.1859
   10SAPS   C25 1241   3.470   0.280   6.638 -0.9748  0.4974  0.6790
   10SAPS   H5R 1242   3.508   0.177   6.641 -0.6580  0.5726 -0.5176
   10SAPS   C26 1243   3.457   0.335   6.522  0.0550 -0.4160  0.2251
   10SAPS   H6R 1244   3.503   0.279   6.439  2.8606 -0.3732  1.6305
   10SAPS   C27 1245   3.427   0.478   6.509 -0.9852  0.0961 -0.2624
   10SAPS   H7R 1246   3.505   0.526   6.447 -0.4867  0.5105  0.6685
   10SAPS   H7S 1247   3.443   0.530   6.605 -0.2887 -0.1147 -0.2619
   10SAPS   C28 1248   3.291   0.517   6.458 -0.2522 -0.3910 -0.4921
   10SAPS   H8R 1249   3.219   0.510   6.541  2.1470 -0.6464  1.7147
   10SAPS   C29 1250   3.256   0.541   6.336  0.6810  0.5118 -0.5548
   10SAPS   H9R 1251   3.156   0.581   6.318  1.0073  0.9891 -1.3713
   10SAPS  C210 1252   3.339   0.547   6.208 -0.0275  0.7577 -0.9320
   10SAPS  H10R 1253   3.448   0.541   6.227  0.0317  1.1772 -1.1111
   10SAPS  H10S 1254   3.318   0.644   6.157 -1.6065  0.7507 -0.3381
   10SAPS  C211 1255   3.295   0.447   6.101  0.0363 -0.1480  0.0001
   10SAPS  H11R 1256   3.258   0.353   6.145  1.7357  0.4272  2.9651
   10SAPS  C212 1257   3.314   0.459   5.971  0.5154  0.1941 -0.6662
   10SAPS  H12R 1258   3.273   0.385   5.900 -1.1690  1.4542 -1.0396
   10SAPS  C213 1259   3.383   0.579   5.908  0.3030 -0.1723  0.1065
   10SAPS  H13R 1260   3.453   0.549   5.827  1.2250  2.1480 -0.0559
   10SAPS  H13S 1261   3.453   0.627   5.981  0.7504  0.8829 -0.9824
   10SAPS  C214 1262   3.294   0.682   5.841 -0.0014 -0.3679 -0.8972
   10SAPS  H14R 1263   3.243   0.746   5.915  0.3287 -0.9389 -0.1674
   10SAPS  C215 1264   3.277   0.707   5.709  0.3546  0.2107 -0.3858
   10SAPS  H15R 1265   3.204   0.787   5.689 -0.4931 -0.2976  0.5974
   10SAPS  C216 1266   3.348   0.630   5.604 -0.4261 -0.2322  0.3752
   10SAPS  H16R 1267   3.458   0.630   5.616 -0.4382  1.9525  1.0331
   10SAPS  H16S 1268   3.337   0.684   5.508 -1.7935 -0.3063  0.4703
   10SAPS  C217 1269   3.290   0.489   5.579  0.3503 -0.3600 -0.2488
   10SAPS  H17R 1270   3.310   0.421   5.665 -0.9066 -0.1848  0.2126
   10SAPS  H17S 1271   3.348   0.449   5.494 -0.0068 -0.5834 -0.3870
   10SAPS  C218 1272   3.141   0.478   5.531 -0.1769 -0.3380  0.0882
   10SAPS  H18R 1273   3.137   0.388   5.466  0.6431 -1.3697  1.3965
   10SAPS  H18S 1274   3.128   0.571   5.472  2.0097 -0.9420 -1.4834
   10SAPS  C219 1275   3.032   0.456   5.637  0.0569  0.1450  0.0373
   10SAPS  H19R 1276   3.061   0.513   5.728  1.3892 -0.1557 -0.1801
   10SAPS  H19S 1277   3.027   0.347   5.660 -1.4181  0.2709  0.4559
   10SAPS  C220 1278   2.892   0.499   5.589 -0.3086  0.3971 -0.1165
   10SAPS  H20R 1279   2.904   0.607   5.567 -2.2333  0.7023  0.1855
   10SAPS  H20S 1280   2.814   0.494   5.667 -0.9056  1.8883 -0.5878
   10SAPS  H20T 1281   2.861   0.442   5.498 -1.9791 -2.5475  2.1388
   10SAPS   C33 1282   2.641  -0.305   6.743  0.0249 -0.0530  0.2021
   10SAPS   H3X 1283   2.533  -0.332   6.749 -0.2076  0.9988  0.9612
   10SAPS   H3Y 1284   2.712  -0.390   6.740 -0.2977 -0.3070 -0.9130
   10SAPS   C34 1285   2.667  -0.238   6.603  0.3100 -0.4263 -0.3861
   10SAPS   H4X 1286   2.774  -0.207   6.594 -0.2224  1.6904  0.0232
   10SAPS   H4Y 1287   2.615  -0.142   6.585  0.7125 -0.3848 -1.3690
   10SAPS   C35 1288   2.619  -0.328   6.495  0.6688  0.1636  0.6703
   10SAPS   H5X 1289   2.510  -0.346   6.508  0.7790 -0.4595  0.7914
   10SAPS   H5Y 1290   2.673  -0.425   6.510 -0.7233 -1.0135 -1.4562
   10SAPS   C36 1291   2.629  -0.266   6.354  0.5401  0.3215  0.3243
   10SAPS   H6X 1292   2.734  -0.237   6.333 -0.4569  3.1680 -1.3045
   10SAPS   H6Y 1293   2.569  -0.172   6.351  2.5551  1.6412 -1.1849
   10SAPS   C37 1294   2.576  -0.357   6.239 -0.0441 -0.6965 -0.7586
   10SAPS   H7X 1295   2.468  -0.372   6.257 -0.3508 -0.7007 -2.4176
   10SAPS   H7Y 1296   2.630  -0.454   6.251 -0.9129 -1.2451 -1.1896
   10SAPS   C38 1297   2.600  -0.289   6.102 -0.0873 -0.6674  0.1096
   10SAPS   H8X 1298   2.707  -0.270   6.082  0.5200 -1.3662  2.3973
   10SAPS   H8Y 1299   2.555  -0.188   6.113 -0.2940 -0.6810 -0.5343
   10SAPS   C39 1300   2.541  -0.357   5.980 -0.6048  0.2857  0.3857
   10SAPS   H9X 1301   2.436  -0.389   5.996  0.0090 -1.6347  0.8332
   10SAPS   H9Y 1302   2.603  -0.448   5.963 -0.8294  0.0264  0.9370
   10SAPS  C310 1303   2.539  -0.274   5.848 -0.0627 -0.4862 -0.3781
   10SAPS  H10X 1304   2.645  -0.260   5.819 -0.1337  0.8795 -0.0440
   10SAPS  H10Y 1305   2.491  -0.175   5.867 -2.2860 -1.6077  0.2718
   10SAPS  C311 1306   2.462  -0.336   5.727  0.3625 -0.9132 -0.1720
   10SAPS  H11X 1307   2.354  -0.344   5.751  0.3758 -0.1946  0.1684
   10SAPS  H11Y 1308   2.509  -0.433   5.701  1.8342 -0.0198 -0.9647
   10SAPS  C312 1309   2.493  -0.247   5.607 -0.6919  0.1252 -0.0377
   10SAPS  H12X 1310   2.603  -0.245   5.593 -0.7038 -1.6801 -0.5938
   10SAPS  H12Y 1311   2.447  -0.146   5.612 -1.8190  0.0135 -4.1219
   10SAPS  C313 1312   2.424  -0.303   5.476  1.0681  0.2852 -0.0392
   10SAPS  H13X 1313   2.316  -0.294   5.501  1.0142 -1.3320  0.4264
   10SAPS  H13Y 1314   2.456  -0.409   5.464 -0.5650 -0.5565  2.2660
   10SAPS  C314 1315   2.464  -0.214   5.359 -1.1710  0.7617 -0.3340
   10SAPS  H14X 1316   2.487  -0.111   5.393  3.0168  0.1163 -0.6335
   10SAPS  H14Y 1317   2.378  -0.210   5.289 -0.8715  0.1948 -0.7495
   10SAPS  C315 1318   2.592  -0.259   5.280 -0.4747  0.0398  0.4822
   10SAPS  H15X 1319   2.579  -0.363   5.243 -0.8647  0.5463 -0.8962
   10SAPS  H15Y 1320   2.671  -0.246   5.358 -0.0698 -2.6968  0.6224
   10SAPS  C316 1321   2.633  -0.172   5.156  0.4067  0.2520  0.3203
   10SAPS  H16X 1322   2.634  -0.063   5.178 -2.2622  0.2915  0.6098
   10SAPS  H16Y 1323   2.551  -0.194   5.085  0.6796 -1.6309  0.5448
   10SAPS  C317 1324   2.776  -0.212   5.106  0.6162  0.9241 -0.2123
   10SAPS  H17X 1325   2.845  -0.212   5.193 -1.9045  3.2223  1.9959
   10SAPS  H17Y 1326   2.801  -0.120   5.049  5.5086 -1.2763 -2.1173
   10SAPS  C318 1327   2.775  -0.342   5.023  0.9112 -0.1764 -1.1219
   10SAPS  H18X 1328   2.741  -0.428   5.084 -0.3270  2.0035  1.5124
   10SAPS  H18Y 1329   2.877  -0.369   4.987  0.9066 -0.1594 -1.1487
   10SAPS  H18Z 1330   2.707  -0.320   4.938 -2.0377 -0.6515  0.9529
   11SAPS     N 1331   3.068   3.766   2.376 -0.3006 -0.7461  0.0719
   11SAPS   HN1 1332   3.029   3.691   2.436 -2.8841 -1.5609 -2.4157
   11SAPS   HN2 1333   3.154   3.815   2.409 -1.4094  0.8358  0.7451
   11SAPS   HN3 1334   2.988   3.832   2.375 -0.6161 -1.0212  2.6760
   11SAPS   C12 1335   3.110   3.707   2.248 -0.3366  0.4627 -0.0411
   11SAPS  H12A 1336   3.026   3.645   2.221 -1.0414  0.7129  1.4893
   11SAPS   C13 1337   3.120   3.813   2.143 -0.0218 -0.6532 -0.5415
   11SAPS  O13A 1338   3.080   3.925   2.176 -0.2973 -0.0190 -0.3075
   11SAPS  O13B 1339   3.153   3.782   2.027  0.3421 -0.2184  0.3879
   11SAPS   C11 1340   3.244   3.627   2.253 -0.5830 -0.9854 -0.3797
   11SAPS  H11A 1341   3.328   3.696   2.274 -1.5460 -0.6231  2.9147
   11SAPS  H11B 1342   3.252   3.575   2.155 -0.9448 -0.3588 -0.7467
   11SAPS     P 1343   3.318   3.402   2.361  0.1192 -0.1207 -0.2160
   11SAPS   O13 1344   3.244   3.296   2.287  0.0711 -0.5290  0.0640
   11SAPS   O14 1345   3.451   3.434   2.321  0.0210 -0.3341  0.2022
   11SAPS   O12 1346   3.233   3.534   2.362  0.1807  0.1227  0.4516
   11SAPS   O11 1347   3.313   3.364   2.512  0.4982  0.1353 -0.2852
   11SAPS    C1 1348   3.224   3.431   2.599 -0.0914  0.4889  0.6808
   11SAPS    HA 1349   3.239   3.541   2.592  0.1545  0.3693 -0.8432
   11SAPS    HB 1350   3.116   3.418   2.574 -0.2813  1.4445  0.9331
   11SAPS    C2 1351   3.238   3.390   2.754 -0.2455  0.1429  0.3764
   11SAPS    HS 1352   3.194   3.466   2.822  0.7145 -1.2307  2.6525
   11SAPS   O21 1353   3.377   3.348   2.786 -0.4944  0.0811  0.2178
   11SAPS   C21 1354   3.466   3.446   2.759 -0.0503 -0.6450 -0.3308
   11SAPS   O22 1355   3.445   3.561   2.726 -0.7208  0.0488  0.7761
   11SAPS   C22 1356   3.604   3.384   2.771  0.1341 -0.5393 -0.6862
   11SAPS   H2R 1357   3.599   3.276   2.746  2.2259 -0.9909  0.6048
   11SAPS   H2S 1358   3.658   3.432   2.687 -0.7047 -0.0614 -0.9548
   11SAPS    C3 1359   3.141   3.264   2.775  0.1808  0.5413  0.0951
   11SAPS    HX 1360   3.179   3.179   2.714 -2.1030  0.4625 -1.3452
   11SAPS    HY 1361   3.045   3.285   2.724  1.3336  0.3931 -2.3015
   11SAPS   O31 1362   3.121   3.241   2.919 -0.0151  0.7607  0.4021
   11SAPS   C31 1363   3.201   3.155   2.983 -0.1710 -0.3375  0.1436
   11SAPS   O32 1364   3.285   3.082   2.933  1.1484  0.1168  0.1709
   11SAPS   C32 1365   3.177   3.164   3.131 -0.4145 -0.4749 -0.2962
   11SAPS   H2X 1366   3.127   3.259   3.160  0.6127  0.1502 -0.5294
   11SAPS   H2Y 1367   3.269   3.143   3.189 -0.1046  1.5173  0.0074
   11SAPS   C23 1368   3.673   3.414   2.909 -0.7864  0.2580 -1.0977
   11SAPS   H3R 1369   3.648   3.513   2.953 -0.5915  0.5673 -1.6857
   11SAPS   H3S 1370   3.783   3.426   2.899 -0.6097 -0.9546 -0.7804
   11SAPS   C24 1371   3.636   3.307   3.007  0.1681 -0.4301  0.3774
   11SAPS   H4R 1372   3.665   3.205   2.971 -2.3810 -1.4310  0.9692
   11SAPS   H4S 1373   3.528   3.282   3.014  0.3997 -1.5981  0.1058
   11SAPS   C25 1374   3.683   3.324   3.145 -1.0141  0.5635  0.2165
   11SAPS   H5R 1375   3.791   3.306   3.154 -0.8773  1.7860  1.4631
   11SAPS   C26 1376   3.618   3.370   3.251  0.1672  0.1788 -0.6263
   11SAPS   H6R 1377   3.672   3.386   3.345  0.8725 -0.1243 -0.9761
   11SAPS   C27 1378   3.481   3.418   3.243 -0.0385 -0.8831 -0.0442
   11SAPS   H7R 1379   3.416   3.328   3.235 -1.3811  0.1554 -1.5449
   11SAPS   H7S 1380   3.464   3.481   3.153 -0.0601  2.0085  1.8437
   11SAPS   C28 1381   3.435   3.495   3.366 -0.0283  1.0633 -0.2742
   11SAPS   H8R 1382   3.444   3.603   3.346  0.6298  0.8585 -1.1541
   11SAPS   C29 1383   3.395   3.428   3.481  0.4871 -0.3794  0.5445
   11SAPS   H9R 1384   3.365   3.488   3.568 -1.9483  0.4124 -0.7644
   11SAPS  C210 1385   3.400   3.286   3.517 -0.0351  0.1940  0.5664
   11SAPS  H10R 1386   3.388   3.217   3.431  2.5386 -1.5101  1.4149
   11SAPS  H10S 1387   3.312   3.259   3.580 -0.1278  0.9661  0.7749
   11SAPS  C211 1388   3.525   3.235   3.592  0.7576  0.1803  0.2235
   11SAPS  H11R 1389   3.593   3.181   3.524 -0.3934  1.2430 -1.8817
   11SAPS  C212 1390   3.553   3.248   3.720 -0.2196  0.6848  0.2288
   11SAPS  H12R 1391   3.654   3.230   3.760 -0.4883 -1.2375  0.1611
   11SAPS  C213 1392   3.459   3.298   3.831  0.2393 -0.7140  0.3164
   11SAPS  H13R 1393   3.366   3.341   3.789 -0.0208 -1.8474 -0.3208
   11SAPS  H13S 1394   3.513   3.368   3.898  0.1213 -1.9913  1.8236
   11SAPS  C214 1395   3.406   3.189   3.919  0.1120  0.5647 -0.8706
   11SAPS  H14R 1396   3.397   3.093   3.866  0.1674  0.2381 -0.2884
   11SAPS  C215 1397   3.356   3.199   4.050  0.0731  0.2807 -0.0753
   11SAPS  H15R 1398   3.308   3.122   4.112 -1.7041  1.2607 -0.1645
   11SAPS  C216 1399   3.337   3.334   4.115  0.2608  0.2576  0.2874
   11SAPS  H16R 1400   3.259   3.385   4.054  0.6288 -0.8873 -1.1736
   11SAPS  H16S 1401   3.427   3.398   4.101  2.1303 -2.5708 -1.4606
   11SAPS  C217 1402   3.322   3.324   4.267  0.2981  0.8861  0.0427
   11SAPS  H17R 1403   3.239   3.253   4.284  2.4616 -2.5448 -2.2655
   11SAPS  H17S 1404   3.297   3.428   4.299  0.9670  1.3719 -0.9354
   11SAPS  C218 1405   3.442   3.270   4.338 -0.1793 -0.9435 -0.4526
   11SAPS  H18R 1406   3.536   3.301   4.289  0.2230 -1.9513 -0.3341
   11SAPS  H18S 1407   3.439   3.159   4.338  0.4222 -1.0224  1.7086
   11SAPS  C219 1408   3.438   3.314   4.490  0.2690  0.2037  0.4544
   11SAPS  H19R 1409   3.417   3.422   4.504  1.9413  0.7552 -0.8673
   11SAPS  H19S 1410   3.543   3.301   4.526  0.0376  0.0312  1.0706
   11SAPS  C220 1411   3.349   3.228   4.589 -0.3752  0.0216  0.7993
   11SAPS  H20R 1412   3.319   3.287   4.678 -3.2087  0.5413 -0.3849
   11SAPS  H20S 1413   3.411   3.140   4.613 -2.1778 -1.7550 -0.6933
   11SAPS  H20T 1414   3.262   3.183   4.536 -0.2568 -0.5608  1.1010
   11SAPS   C33 1415   3.090   3.049   3.186 -0.6569 -0.3334 -0.4606
   11SAPS   H3X 1416   3.152   2.960   3.160 -1.2092 -0.2988 -2.0261
   11SAPS   H3Y 1417   2.990   3.043   3.138 -1.4709  3.1605  0.4933
   11SAPS   C34 1418   3.078   3.050   3.340 -0.4389  0.0337  0.0572
   11SAPS   H4X 1419   3.022   3.140   3.375  1.0359  0.1476  2.2795
   11SAPS   H4Y 1420   3.183   3.049   3.374 -0.5786 -0.6685  0.4827
   11SAPS   C35 1421   2.995   2.933   3.382 -0.6515  0.9797  0.3273
   11SAPS   H5X 1422   3.038   2.835   3.354 -3.2272 -0.7258  1.8806
   11SAPS   H5Y 1423   2.889   2.931   3.348 -0.4101  1.7129 -0.4957
   11SAPS   C36 1424   2.985   2.940   3.535 -0.5094  0.3206 -0.1667
   11SAPS   H6X 1425   2.882   2.909   3.563 -0.6534 -0.0169 -1.0086
   11SAPS   H6Y 1426   2.972   3.041   3.578  1.0280  0.0071  1.1095
   11SAPS   C37 1427   3.102   2.876   3.611  0.3170  0.5231  0.1037
   11SAPS   H7X 1428   3.196   2.931   3.595  0.5038  0.2175  0.1417
   11SAPS   H7Y 1429   3.107   2.768   3.585  0.4493  0.4288  0.5085
   11SAPS   C38 1430   3.077   2.888   3.766 -0.1368 -0.5750 -0.0632
   11SAPS   H8X 1431   2.983   2.833   3.790 -0.2808  0.5992  2.2358
   11SAPS   H8Y 1432   3.074   2.995   3.795  0.7155 -0.6121  0.1749
   11SAPS   C39 1433   3.187   2.821   3.850  0.3612 -0.5773  0.5427
   11SAPS   H9X 1434   3.276   2.884   3.829 -1.7313  1.7843 -2.0134
   11SAPS   H9Y 1435   3.200   2.717   3.815  3.2816  0.5337 -2.0976
   11SAPS  C310 1436   3.165   2.833   4.005  0.8035 -0.3025  0.2136
   11SAPS  H10X 1437   3.072   2.781   4.036  0.8183  0.2472  1.2120
   11SAPS  H10Y 1438   3.164   2.941   4.030  1.2743 -0.5101  1.1734
   11SAPS  C311 1439   3.265   2.754   4.084 -0.2631  0.0247  0.3386
   11SAPS  H11X 1440   3.362   2.806   4.078 -0.1338 -0.2609 -0.0604
   11SAPS  H11Y 1441   3.271   2.647   4.053  2.5275 -0.0513  0.8915
   11SAPS  C312 1442   3.219   2.740   4.230 -0.0090 -0.6660 -0.3540
   11SAPS  H12X 1443   3.298   2.679   4.279  0.8345  1.1329  0.6297
   11SAPS  H12Y 1444   3.124   2.682   4.228 -0.7661  0.4550  1.1553
   11SAPS  C313 1445   3.198   2.876   4.305 -1.2099  0.1645 -0.3261
   11SAPS  H13X 1446   3.117   2.942   4.266 -0.9923  0.9893  0.5764
   11SAPS  H13Y 1447   3.288   2.940   4.290 -0.8661 -0.7117 -2.1891
   11SAPS  C314 1448   3.177   2.868   4.458 -0.0763 -0.0919 -0.5173
   11SAPS  H14X 1449   3.076   2.828   4.481 -0.1499 -1.6060 -3.1358
   11SAPS  H14Y 1450   3.168   2.973   4.494 -0.4159 -0.5379  0.7693
   11SAPS  C315 1451   3.279   2.805   4.548 -0.6169  0.0728  1.0686
   11SAPS  H15X 1452   3.373   2.864   4.550  0.8222 -2.1398  1.9307
   11SAPS  H15Y 1453   3.305   2.708   4.500  2.2745  0.1062  2.3656
   11SAPS  C316 1454   3.237   2.786   4.694 -0.4130  0.3221  0.3443
   11SAPS  H16X 1455   3.190   2.878   4.734  0.5466  1.1596 -0.3964
   11SAPS  H16Y 1456   3.322   2.768   4.764 -1.9174 -2.0402  1.6994
   11SAPS  C317 1457   3.128   2.669   4.714 -0.2949 -0.1463 -0.4238
   11SAPS  H17X 1458   3.166   2.576   4.667  0.9376  0.0742  0.1003
   11SAPS  H17Y 1459   3.041   2.697   4.651 -0.4730  1.1983  0.3891
   11SAPS  C318 1460   3.083   2.658   4.860 -0.4051  0.0506  0.0251
   11SAPS  H18X 1461   3.007   2.580   4.882 -2.0273  0.6944 -2.8164
   11SAPS  H18Y 1462   3.052   2.761   4.889  0.8219  0.5816 -0.5140
   11SAPS  H18Z 1463   3.176   2.631   4.913  0.2531  2.2783  0.1086
   12SAPS     N 1464   5.808   1.183   2.459  0.8037 -0.0324 -0.4690
   12SAPS   HN1 1465   5.812   1.097   2.401  1.1139 -0.6709  0.4746
   12SAPS   HN2 1466   5.877   1.174   2.537  1.0676 -0.3755 -0.7430
   12SAPS   HN3 1467   5.711   1.184   2.497  0.4691  1.8734 -1.2390
   12SAPS   C12 1468   5.832   1.300   2.365 -0.0252  0.2069  0.1827
   12SAPS  H12A 1469   5.904   1.263   2.294 -0.2481 -0.4091  0.2648
   12SAPS   C13 1470   5.707   1.353   2.293 -0.6232  0.3697 -0.0784
   12SAPS  O13A 1471   5.589   1.332   2.336 -0.3905 -0.2062  0.0039
   12SAPS  O13B 1472   5.725   1.441   2.205  0.5122 -0.7520  0.0172
   12SAPS   C11 1473   5.891   1.417   2.443  0.3649 -0.9973 -0.1536
   12SAPS  H11A 1474   5.932   1.492   2.372 -0.1068 -0.8472 -0.2740
   12SAPS  H11B 1475   5.980   1.379   2.497  0.8161  0.2274 -0.0036
   12SAPS     P 1476   5.872   1.566   2.645 -0.5332 -0.1074  0.3227
   12SAPS   O13 1477   6.023   1.543   2.651 -0.4980 -0.2918 -0.5862
   12SAPS   O14 1478   5.833   1.706   2.610 -0.3526 -0.0728 -0.1050
   12SAPS   O12 1479   5.799   1.474   2.546 -0.5631 -0.1144 -0.3763
   12SAPS   O11 1480   5.799   1.526   2.783 -0.2981 -0.1198 -0.0258
   12SAPS    C1 1481   5.854   1.577   2.909 -0.1192  0.4026  0.9209
   12SAPS    HA 1482   5.952   1.527   2.926 -0.5039 -0.4188  0.7815
   12SAPS    HB 1483   5.878   1.685   2.905  2.2019 -0.0863 -0.9404
   12SAPS    C2 1484   5.762   1.545   3.034  0.1955 -0.3870  0.3110
   12SAPS    HS 1485   5.803   1.603   3.119 -1.4129 -0.3038  1.0650
   12SAPS   O21 1486   5.746   1.409   3.054 -0.1746  0.1797  0.4268
   12SAPS   C21 1487   5.838   1.355   3.135 -0.3049  0.4257 -0.6298
   12SAPS   O22 1488   5.935   1.411   3.184 -0.1020 -0.1750 -0.2009
   12SAPS   C22 1489   5.800   1.221   3.193 -0.1894  0.5509 -0.1350
   12SAPS   H2R 1490   5.770   1.150   3.113 -1.2244 -1.0295  1.5882
   12SAPS   H2S 1491   5.889   1.175   3.242 -0.6674  1.1919  1.4005
   12SAPS    C3 1492   5.617   1.595   3.016  0.5036 -0.4822 -0.7636
   12SAPS    HX 1493   5.577   1.524   2.941  0.0091  1.0893 -2.0470
   12SAPS    HY 1494   5.615   1.695   2.967 -0.7116  0.0253  0.2852
   12SAPS   O31 1495   5.531   1.581   3.139 -0.3154  0.4177 -0.0095
   12SAPS   C31 1496   5.488   1.692   3.197  0.2870 -0.2348 -0.2858
   12SAPS   O32 1497   5.530   1.801   3.169  0.1918 -0.6963 -0.7230
   12SAPS   C32 1498   5.395   1.659   3.317 -0.0799 -0.6033 -0.4079
   12SAPS   H2X 1499   5.457   1.605   3.392  0.5745  1.0357  0.2584
   12SAPS   H2Y 1500   5.313   1.595   3.276 -0.4305  0.3519 -1.2286
   12SAPS   C23 1501   5.691   1.227   3.300  0.8025 -0.5437 -0.3061
   12SAPS   H3R 1502   5.676   1.125   3.341  2.3481 -1.0883 -1.0138
   12SAPS   H3S 1503   5.600   1.283   3.269 -0.2270  0.8033  4.3786
   12SAPS   C24 1504   5.735   1.304   3.429 -0.6760 -1.0115 -0.4199
   12SAPS   H4R 1505   5.841   1.276   3.443 -0.2961 -1.4278 -3.3877
   12SAPS   H4S 1506   5.668   1.278   3.513 -1.4303  1.6490 -0.1090
   12SAPS   C25 1507   5.715   1.453   3.431 -0.9958  0.1893 -0.5863
   12SAPS   H5R 1508   5.725   1.502   3.333 -1.5550 -0.4505 -0.9717
   12SAPS   C26 1509   5.676   1.534   3.530  0.7860 -0.6524  0.4119
   12SAPS   H6R 1510   5.667   1.641   3.507  1.2918 -0.6210  0.3484
   12SAPS   C27 1511   5.639   1.498   3.670  0.5694  0.4384 -0.1986
   12SAPS   H7R 1512   5.651   1.388   3.672  0.2650  0.3691 -1.6019
   12SAPS   H7S 1513   5.529   1.502   3.690  0.3224  2.7129 -1.6601
   12SAPS   C28 1514   5.737   1.553   3.774 -0.3857 -0.2871  0.1040
   12SAPS   H8R 1515   5.838   1.512   3.773 -0.1492  0.2978 -0.3457
   12SAPS   C29 1516   5.704   1.634   3.881 -0.2039 -0.1605  0.2548
   12SAPS   H9R 1517   5.788   1.652   3.949 -0.2152 -0.5917  0.3882
   12SAPS  C210 1518   5.574   1.705   3.914  0.1142  0.1355 -0.0260
   12SAPS  H10R 1519   5.532   1.646   3.998  0.6488 -0.7277 -0.3450
   12SAPS  H10S 1520   5.499   1.695   3.832  1.1744  1.2032 -1.1747
   12SAPS  C211 1521   5.601   1.845   3.952 -0.1040  0.1540 -0.4396
   12SAPS  H11R 1522   5.701   1.888   3.940  0.5309 -0.6296  1.5926
   12SAPS  C212 1523   5.507   1.917   4.026 -0.5537 -0.1633  0.4058
   12SAPS  H12R 1524   5.535   2.022   4.040  0.2799 -0.4092  0.6931
   12SAPS  C213 1525   5.363   1.876   4.060 -0.3607 -0.2900  0.2824
   12SAPS  H13R 1526   5.316   1.814   3.982  0.4631 -1.2791  0.5537
   12SAPS  H13S 1527   5.297   1.964   4.077 -1.3133 -0.9175 -0.1315
   12SAPS  C214 1528   5.357   1.809   4.192  0.4871  0.5101 -0.5988
   12SAPS  H14R 1529   5.435   1.825   4.268 -0.7023 -1.6249  1.1995
   12SAPS  C215 1530   5.256   1.738   4.235 -0.0380 -0.5389 -0.3909
   12SAPS  H15R 1531   5.264   1.679   4.328 -0.9028 -1.0211 -0.6135
   12SAPS  C216 1532   5.131   1.701   4.152 -0.0676  0.1604  0.7323
   12SAPS  H16R 1533   5.147   1.607   4.095  1.1135  1.5176 -1.3119
   12SAPS  H16S 1534   5.106   1.780   4.079  0.9126  0.1910  0.4127
   12SAPS  C217 1535   5.005   1.684   4.241 -0.6194 -0.6054 -0.4926
   12SAPS  H17R 1536   5.015   1.609   4.323 -0.1087 -1.7551 -1.5896
   12SAPS  H17S 1537   4.934   1.645   4.166  1.1493 -1.7921 -1.5881
   12SAPS  C218 1538   4.948   1.814   4.304  0.3242 -0.8305 -0.1115
   12SAPS  H18R 1539   4.941   1.899   4.233  0.9670 -1.1004 -0.5034
   12SAPS  H18S 1540   5.011   1.858   4.384 -0.5035  0.5464 -0.1942
   12SAPS  C219 1541   4.806   1.786   4.373  0.2947 -0.8561  0.5222
   12SAPS  H19R 1542   4.813   1.695   4.437 -2.1852 -0.0308  2.1398
   12SAPS  H19S 1543   4.732   1.749   4.299 -1.2562  1.3860  0.8682
   12SAPS  C220 1544   4.738   1.901   4.453  0.6246  0.5128 -0.0844
   12SAPS  H20R 1545   4.733   1.988   4.384 -0.5851  0.3341 -0.2493
   12SAPS  H20S 1546   4.794   1.939   4.541  1.9137 -0.7996 -0.3093
   12SAPS  H20T 1547   4.636   1.875   4.487 -0.1649  1.7380 -1.3897
   12SAPS   C33 1548   5.347   1.795   3.398 -0.0061  0.2787  0.0487
   12SAPS   H3X 1549   5.314   1.865   3.319 -0.9588  0.3753  0.5211
   12SAPS   H3Y 1550   5.440   1.837   3.441 -0.0136 -1.6618  2.1469
   12SAPS   C34 1551   5.232   1.772   3.492  0.3558 -0.0277  0.0284
   12SAPS   H4X 1552   5.139   1.744   3.438 -0.3563  0.6849  0.8326
   12SAPS   H4Y 1553   5.194   1.866   3.537 -0.0708  1.1991 -2.7315
   12SAPS   C35 1554   5.268   1.664   3.589 -0.0694 -0.2704  0.1091
   12SAPS   H5X 1555   5.354   1.681   3.657  0.8106  0.2392 -1.0862
   12SAPS   H5Y 1556   5.297   1.569   3.539  1.8467 -0.7140  1.9525
   12SAPS   C36 1557   5.158   1.637   3.681  0.5882  0.5827 -0.2376
   12SAPS   H6X 1558   5.069   1.590   3.633  1.1687 -0.2417 -0.5330
   12SAPS   H6Y 1559   5.126   1.730   3.732  0.5355  1.2845 -1.5061
   12SAPS   C37 1560   5.199   1.530   3.783 -0.9569  0.1758 -0.2399
   12SAPS   H7X 1561   5.275   1.574   3.851  0.5806 -1.4095 -0.8352
   12SAPS   H7Y 1562   5.262   1.454   3.731 -0.2297  0.9884 -0.5702
   12SAPS   C38 1563   5.092   1.470   3.875  0.3587 -0.1463  0.8528
   12SAPS   H8X 1564   5.010   1.427   3.813  1.1676 -2.3661  1.2007
   12SAPS   H8Y 1565   5.040   1.541   3.942  0.6236 -1.5684  2.6542
   12SAPS   C39 1566   5.153   1.358   3.954  0.1483  0.4977  0.7908
   12SAPS   H9X 1567   5.229   1.405   4.020 -1.4376  2.1076  1.5653
   12SAPS   H9Y 1568   5.206   1.288   3.885 -0.5809  0.4242  0.2941
   12SAPS  C310 1569   5.049   1.264   4.020 -0.8047  0.0413  0.4437
   12SAPS  H10X 1570   5.096   1.164   4.032  1.3558  1.1241  1.4402
   12SAPS  H10Y 1571   4.954   1.241   3.966 -1.7328  0.0303  2.0283
   12SAPS  C311 1572   5.019   1.313   4.160  0.6887 -0.4127  0.2496
   12SAPS  H11X 1573   4.954   1.402   4.149  0.8214 -0.1392  1.5684
   12SAPS  H11Y 1574   5.110   1.342   4.217  2.2907 -0.6126 -2.0159
   12SAPS  C312 1575   4.940   1.209   4.236 -0.0080 -0.1618 -1.2486
   12SAPS  H12X 1576   4.997   1.115   4.221  1.1554  0.1595  0.8882
   12SAPS  H12Y 1577   4.837   1.198   4.194 -0.4944 -0.4520 -0.0071
   12SAPS  C313 1578   4.941   1.243   4.390  0.0659  0.1238  0.5487
   12SAPS  H13X 1579   4.835   1.229   4.419  0.0427 -0.7839  0.0407
   12SAPS  H13Y 1580   4.967   1.350   4.404 -0.5284  0.4141 -0.5243
   12SAPS  C314 1581   5.038   1.145   4.463  0.2468  0.1518  0.1923
   12SAPS  H14X 1582   5.135   1.156   4.410 -0.7066  2.8735 -1.1883
   12SAPS  H14Y 1583   5.002   1.042   4.445  0.3494 -0.0577  1.1428
   12SAPS  C315 1584   5.052   1.177   4.610 -0.2586 -0.5803  0.1218
   12SAPS  H15X 1585   5.088   1.281   4.623  0.7582 -0.5496 -2.3978
   12SAPS  H15Y 1586   5.127   1.109   4.655 -0.6267 -0.0376  1.6118
   12SAPS  C316 1587   4.926   1.153   4.697  0.2594  0.0357 -0.6371
   12SAPS  H16X 1588   4.883   1.050   4.694 -1.2652  0.6296 -0.3146
   12SAPS  H16Y 1589   4.846   1.228   4.678  0.3327  0.2216 -0.2140
   12SAPS  C317 1590   4.953   1.172   4.849  0.1093  0.3126  0.5025
   12SAPS  H17X 1591   4.982   1.279   4.853  1.1838  0.0534  0.0031
   12SAPS  H17Y 1592   5.044   1.119   4.887  0.2962 -0.7617 -1.3122
   12SAPS  C318 1593   4.833   1.153   4.948  0.5050  0.1778  0.2338
   12SAPS  H18X 1594   4.749   1.218   4.913  0.9076 -0.2677 -1.6838
   12SAPS  H18Y 1595   4.858   1.173   5.054  0.0511 -0.8665  0.5544
   12SAPS  H18Z 1596   4.794   1.049   4.947 -1.3961  0.8354  0.1113
   13SAPS     N 1597   6.703   2.094   2.431 -0.2546  0.2747  0.0856
   13SAPS   HN1 1598   6.800   2.069   2.403 -0.2418  1.6584 -1.2706
   13SAPS   HN2 1599   6.638   2.015   2.417  1.7178 -1.4550  0.2395
   13SAPS   HN3 1600   6.669   2.169   2.367 -4.2744 -0.1933  1.3640
   13SAPS   C12 1601   6.709   2.143   2.570  0.0085  0.5550  0.7277
   13SAPS  H12A 1602   6.761   2.067   2.627 -0.4444 -1.7759 -1.7579
   13SAPS   C13 1603   6.796   2.269   2.592 -0.1223  0.0134  0.2315
   13SAPS  O13A 1604   6.870   2.313   2.499 -0.1202  0.2395  0.0457
   13SAPS  O13B 1605   6.771   2.341   2.691  0.2839 -0.3312  0.2600
   13SAPS   C11 1606   6.561   2.146   2.632  0.0278  0.4713 -0.1366
   13SAPS  H11A 1607   6.516   2.237   2.587  0.3979  0.5753 -0.3028
   13SAPS  H11B 1608   6.584   2.159   2.740  0.1361 -0.0176 -0.0999
   13SAPS     P 1609   6.336   2.020   2.578  0.3115  0.0240 -0.0844
   13SAPS   O13 1610   6.325   2.121   2.467 -0.4799 -0.0107  0.1867
   13SAPS   O14 1611   6.284   1.885   2.552  0.6244  0.3174 -0.0819
   13SAPS   O12 1612   6.493   2.017   2.607  0.1841  0.6207  0.5318
   13SAPS   O11 1613   6.286   2.079   2.720  0.5193  0.6417  0.5850
   13SAPS    C1 1614   6.211   2.203   2.713  0.2095  0.6396 -0.1069
   13SAPS    HA 1615   6.282   2.288   2.710  0.2278  0.6635  0.6729
   13SAPS    HB 1616   6.140   2.200   2.627  0.8665 -2.7721 -0.6684
   13SAPS    C2 1617   6.126   2.220   2.845 -0.2956  0.7227 -0.2193
   13SAPS    HS 1618   6.203   2.208   2.924  1.7864  1.2537 -2.0715
   13SAPS   O21 1619   6.017   2.129   2.851  0.8214 -0.4644 -0.7145
   13SAPS   C21 1620   6.016   2.065   2.969  0.2325  0.8948 -0.3165
   13SAPS   O22 1621   6.101   2.068   3.055 -0.5132  0.2302  0.0284
   13SAPS   C22 1622   5.890   1.976   2.972 -0.0416 -0.4239  0.4648
   13SAPS   H2R 1623   5.807   2.032   2.923 -2.0497 -2.0356  1.8339
   13SAPS   H2S 1624   5.907   1.891   2.902  1.9819 -1.0992  1.7131
   13SAPS    C3 1625   6.075   2.361   2.866 -0.0352  1.0530 -0.0886
   13SAPS    HX 1626   6.005   2.379   2.782 -0.1987 -0.2145 -0.2380
   13SAPS    HY 1627   6.160   2.433   2.869  1.2034 -0.3839  0.3193
   13SAPS   O31 1628   6.002   2.366   2.991  0.8018  0.8845  0.0972
   13SAPS   C31 1629   5.948   2.484   3.016 -0.1272 -0.3119  0.1572
   13SAPS   O32 1630   5.966   2.582   2.942 -0.0383 -0.2167  0.5564
   13SAPS   C32 1631   5.867   2.486   3.142 -0.9243  0.1616 -0.2769
   13SAPS   H2X 1632   5.932   2.550   3.206  0.4831  1.3834 -2.7935
   13SAPS   H2Y 1633   5.856   2.382   3.181 -0.9227 -0.0781 -0.9026
   13SAPS   C23 1634   5.863   1.931   3.120  1.1539 -0.5100  0.6982
   13SAPS   H3R 1635   5.944   1.862   3.152  1.9863  1.3276  2.8123
   13SAPS   H3S 1636   5.765   1.879   3.110  0.0595  1.4128  1.0259
   13SAPS   C24 1637   5.840   2.047   3.220 -0.1898 -0.1711  0.1862
   13SAPS   H4R 1638   5.762   2.114   3.179 -1.2964 -0.9724  0.8999
   13SAPS   H4S 1639   5.931   2.111   3.216  0.2130 -0.4736  2.8387
   13SAPS   C25 1640   5.811   1.988   3.353  0.7108 -0.3989  0.2130
   13SAPS   H5R 1641   5.864   1.893   3.363  0.3864 -0.8402 -1.8359
   13SAPS   C26 1642   5.735   2.046   3.454  0.6583 -0.1507 -0.0913
   13SAPS   H6R 1643   5.705   1.985   3.541  0.4150 -1.9749 -1.4042
   13SAPS   C27 1644   5.666   2.184   3.446  0.2951 -0.3829  0.0707
   13SAPS   H7R 1645   5.700   2.243   3.359 -0.6058  0.4148  0.2485
   13SAPS   H7S 1646   5.700   2.244   3.533  0.8121 -2.4685  1.4097
   13SAPS   C28 1647   5.518   2.187   3.444 -1.1087  0.7506 -1.0351
   13SAPS   H8R 1648   5.472   2.157   3.348 -1.7514 -2.3125  0.1200
   13SAPS   C29 1649   5.442   2.234   3.545 -0.0487 -0.2799  0.4493
   13SAPS   H9R 1650   5.335   2.247   3.521  0.4207  0.7315 -1.3160
   13SAPS  C210 1651   5.485   2.290   3.675  0.2140  0.2856 -0.5737
   13SAPS  H10R 1652   5.590   2.326   3.675  1.3083 -2.5886 -1.7810
   13SAPS  H10S 1653   5.480   2.210   3.752  0.7691  0.7852 -0.0110
   13SAPS  C211 1654   5.406   2.409   3.718  0.1078  0.6029  0.3941
   13SAPS  H11R 1655   5.394   2.489   3.644  0.8842 -0.0360 -0.4423
   13SAPS  C212 1656   5.347   2.431   3.837 -0.5007 -0.8846 -0.8306
   13SAPS  H12R 1657   5.310   2.534   3.849  3.2757  0.6403 -0.8235
   13SAPS  C213 1658   5.359   2.352   3.971  0.2596 -0.6634  0.3960
   13SAPS  H13R 1659   5.353   2.242   3.956  0.2088 -0.6436  0.2747
   13SAPS  H13S 1660   5.267   2.371   4.030 -0.0434 -1.1039  0.0686
   13SAPS  C214 1661   5.472   2.381   4.064 -0.2793  0.9194 -0.5438
   13SAPS  H14R 1662   5.566   2.414   4.017 -1.4759  2.7766 -1.8132
   13SAPS  C215 1663   5.474   2.382   4.200 -0.3001  0.2572  0.0163
   13SAPS  H15R 1664   5.569   2.413   4.246 -0.9548  3.0010 -0.3591
   13SAPS  C216 1665   5.353   2.354   4.287  0.4795  0.1214 -0.7113
   13SAPS  H16R 1666   5.253   2.387   4.253  0.1632 -1.0107 -0.9008
   13SAPS  H16S 1667   5.362   2.410   4.382  0.5166  3.1142 -2.3390
   13SAPS  C217 1668   5.326   2.213   4.333 -0.2827 -0.7158  0.1181
   13SAPS  H17R 1669   5.357   2.137   4.259  3.9658  0.0240  0.8971
   13SAPS  H17S 1670   5.218   2.208   4.362 -0.5524 -1.6825 -0.9936
   13SAPS  C218 1671   5.399   2.188   4.464 -0.1336  0.0376  0.0059
   13SAPS  H18R 1672   5.354   2.255   4.541  1.1111  1.9582 -0.8712
   13SAPS  H18S 1673   5.505   2.221   4.461 -0.3402  0.6492 -1.7068
   13SAPS  C219 1674   5.389   2.043   4.512  0.0504 -0.3313  0.4923
   13SAPS  H19R 1675   5.433   2.034   4.614  1.1453 -0.2918  0.0446
   13SAPS  H19S 1676   5.446   1.978   4.441 -0.1320 -0.0996  0.1325
   13SAPS  C220 1677   5.251   1.976   4.520 -0.4514  0.5896 -0.1434
   13SAPS  H20R 1678   5.170   2.041   4.561 -0.2751  0.2515  0.7528
   13SAPS  H20S 1679   5.274   1.883   4.575 -2.6894 -1.0692 -1.8430
   13SAPS  H20T 1680   5.223   1.950   4.415  0.9290  1.8868 -0.8759
   13SAPS   C33 1681   5.743   2.576   3.120 -0.1950 -0.4313 -0.2963
   13SAPS   H3X 1682   5.677   2.541   3.037 -1.3669  2.1416 -0.5441
   13SAPS   H3Y 1683   5.760   2.684   3.103  1.9811 -0.5792  0.5564
   13SAPS   C34 1684   5.652   2.568   3.242 -0.0558 -0.3161 -0.4423
   13SAPS   H4X 1685   5.623   2.462   3.259  0.2257 -0.0933  1.6530
   13SAPS   H4Y 1686   5.555   2.620   3.225 -0.3739 -0.8854 -0.4012
   13SAPS   C35 1687   5.715   2.628   3.369  0.0134 -0.6657 -0.1674
   13SAPS   H5X 1688   5.737   2.737   3.357  0.7158 -0.3185  3.3452
   13SAPS   H5Y 1689   5.810   2.574   3.387 -0.0569 -1.0077 -0.7865
   13SAPS   C36 1690   5.617   2.616   3.484 -0.3784 -0.2081 -0.0333
   13SAPS   H6X 1691   5.602   2.510   3.511 -0.3247 -0.1250  0.3217
   13SAPS   H6Y 1692   5.517   2.654   3.452 -0.6942  1.7721  2.9128
   13SAPS   C37 1693   5.660   2.694   3.599  1.0517 -0.9314 -0.9874
   13SAPS   H7X 1694   5.582   2.689   3.679  2.0024 -1.4018 -0.0649
   13SAPS   H7Y 1695   5.679   2.800   3.572 -0.6647  0.3909  2.3825
   13SAPS   C38 1696   5.794   2.653   3.667 -0.1483 -0.4335  0.2100
   13SAPS   H8X 1697   5.876   2.691   3.602  0.9910 -1.6718  0.8756
   13SAPS   H8Y 1698   5.809   2.543   3.669 -2.0466 -0.7280 -0.0173
   13SAPS   C39 1699   5.818   2.693   3.816  0.0483  0.0726 -0.3880
   13SAPS   H9X 1700   5.818   2.803   3.826  0.2292 -0.1361  2.6129
   13SAPS   H9Y 1701   5.926   2.669   3.822 -0.0633 -2.0103 -3.6532
   13SAPS  C310 1702   5.728   2.622   3.920 -0.3066  0.3184 -0.6115
   13SAPS  H10X 1703   5.722   2.519   3.877  0.6325 -0.4897  1.0732
   13SAPS  H10Y 1704   5.626   2.663   3.911  0.4118  2.1502 -0.9405
   13SAPS  C311 1705   5.773   2.617   4.062  0.2108  0.4234 -0.2583
   13SAPS  H11X 1706   5.882   2.602   4.078  0.3982  0.1240 -1.6847
   13SAPS  H11Y 1707   5.728   2.525   4.106  1.2784 -1.0483 -2.1482
   13SAPS  C312 1708   5.728   2.742   4.130 -0.2220  0.2635  0.0721
   13SAPS  H12X 1709   5.629   2.774   4.093 -2.0179 -2.7042  1.9473
   13SAPS  H12Y 1710   5.798   2.827   4.112 -0.5019  0.1370 -1.7836
   13SAPS  C313 1711   5.724   2.733   4.284 -0.8949  0.8542  0.3410
   13SAPS  H13X 1712   5.821   2.706   4.330 -0.5183  1.1715 -0.2589
   13SAPS  H13Y 1713   5.650   2.653   4.307 -1.4620  1.1928 -0.2612
   13SAPS  C314 1714   5.668   2.863   4.353 -0.3835 -0.3353 -0.3750
   13SAPS  H14X 1715   5.560   2.857   4.329 -0.3599  0.9260 -0.8810
   13SAPS  H14Y 1716   5.709   2.961   4.319  2.2580 -0.8580  1.0128
   13SAPS  C315 1717   5.693   2.857   4.503 -0.7136  0.4134  0.1583
   13SAPS  H15X 1718   5.797   2.890   4.524 -0.0631 -0.6693 -1.2146
   13SAPS  H15Y 1719   5.661   2.756   4.537 -0.1370 -0.5451 -1.9523
   13SAPS  C316 1720   5.609   2.951   4.587 -0.3395  0.3509  0.2787
   13SAPS  H16X 1721   5.582   2.905   4.685 -0.7377  0.7387  0.3551
   13SAPS  H16Y 1722   5.504   2.958   4.552 -0.8884 -2.6804  0.9961
   13SAPS  C317 1723   5.674   3.088   4.621  0.4714 -0.0584  0.0329
   13SAPS  H17X 1724   5.776   3.078   4.579  0.6951 -1.4345  0.8288
   13SAPS  H17Y 1725   5.679   3.111   4.730  1.2490 -1.0340  0.2132
   13SAPS  C318 1726   5.601   3.204   4.541  0.0462  0.0916  0.5105
   13SAPS  H18X 1727   5.604   3.193   4.430 -1.2035  3.8733 -0.0235
   13SAPS  H18Y 1728   5.652   3.300   4.562 -0.3738  0.4112  0.0688
   13SAPS  H18Z 1729   5.496   3.184   4.570 -0.4829 -1.9520 -2.3614
   14SAPS     N 1730   6.785   2.570   2.554  0.2345 -0.7693 -0.2010
   14SAPS   HN1 1731   6.839   2.494   2.509  2.4924  1.4142 -1.3931
   14SAPS   HN2 1732   6.852   2.617   2.617  0.0221 -1.0962  0.2738
   14SAPS   HN3 1733   6.723   2.526   2.626  0.2025 -0.4012 -0.0018
   14SAPS   C12 1734   6.705   2.657   2.466 -0.3229  0.1323  0.1050
   14SAPS  H12A 1735   6.710   2.756   2.507  1.4518 -0.0216  0.3307
   14SAPS   C13 1736   6.780   2.683   2.335  0.3121 -0.0121 -0.3914
   14SAPS  O13A 1737   6.901   2.641   2.318 -0.2085  0.4757  0.0382
   14SAPS  O13B 1738   6.732   2.755   2.245  0.6697  0.0369 -0.1215
   14SAPS   C11 1739   6.553   2.597   2.440 -0.2371 -0.4007  0.4010
   14SAPS  H11A 1740   6.592   2.514   2.378  1.0506  0.4784 -0.0045
   14SAPS  H11B 1741   6.491   2.667   2.380  1.6570  2.0774  1.1285
   14SAPS     P 1742   6.434   2.667   2.661 -0.2369 -0.0081  0.1200
   14SAPS   O13 1743   6.448   2.802   2.600 -0.0474  0.3928 -0.2227
   14SAPS   O14 1744   6.295   2.634   2.690 -0.2863 -0.1487 -0.6965
   14SAPS   O12 1745   6.484   2.555   2.562  0.3100  0.4099 -0.5768
   14SAPS   O11 1746   6.537   2.660   2.773  0.4436 -0.4387  0.1252
   14SAPS    C1 1747   6.588   2.537   2.830  0.6581  0.2938  0.5989
   14SAPS    HA 1748   6.589   2.463   2.747  0.1113 -1.1386  1.8168
   14SAPS    HB 1749   6.693   2.557   2.860  1.2135  0.0617 -1.1191
   14SAPS    C2 1750   6.504   2.486   2.950  0.1147  0.5491 -0.3881
   14SAPS    HS 1751   6.405   2.450   2.914  0.3655 -1.0474  0.4417
   14SAPS   O21 1752   6.489   2.598   3.046  0.4798  0.3459  0.1163
   14SAPS   C21 1753   6.362   2.607   3.093 -0.3435 -0.8035  0.6381
   14SAPS   O22 1754   6.266   2.548   3.050  0.1678 -0.3530 -0.0649
   14SAPS   C22 1755   6.372   2.706   3.208 -0.0939  0.2963  0.4722
   14SAPS   H2R 1756   6.444   2.665   3.282 -0.8940  0.7770  1.5371
   14SAPS   H2S 1757   6.408   2.801   3.164  1.7280 -1.0554 -1.1255
   14SAPS    C3 1758   6.569   2.360   3.015  0.0963  0.2477  0.6476
   14SAPS    HX 1759   6.669   2.395   3.046  0.5663 -0.1756 -0.3428
   14SAPS    HY 1760   6.587   2.279   2.941  0.9691  0.4475  0.6356
   14SAPS   O31 1761   6.491   2.300   3.123 -0.0267  0.1724  0.1113
   14SAPS   C31 1762   6.554   2.236   3.220  0.2355 -0.2738  0.4750
   14SAPS   O32 1763   6.674   2.231   3.234 -0.3098  0.0130  0.3170
   14SAPS   C32 1764   6.456   2.207   3.321  0.6588  0.8151 -0.8971
   14SAPS   H2X 1765   6.516   2.219   3.413  0.2222 -3.8650  0.2078
   14SAPS   H2Y 1766   6.431   2.099   3.316  1.8801  0.5122 -0.7666
   14SAPS   C23 1767   6.244   2.718   3.291 -0.7979 -0.6225 -0.2028
   14SAPS   H3R 1768   6.211   2.625   3.342 -0.8667  0.7909  2.5217
   14SAPS   H3S 1769   6.172   2.743   3.211  0.1022 -2.8531 -1.8295
   14SAPS   C24 1770   6.254   2.829   3.402  0.6528 -0.3696  0.3018
   14SAPS   H4R 1771   6.160   2.862   3.451  2.0718  2.1343  1.6044
   14SAPS   H4S 1772   6.287   2.918   3.345 -0.8577 -0.9920 -1.6155
   14SAPS   C25 1773   6.369   2.803   3.499  0.2468 -0.6415 -0.0111
   14SAPS   H5R 1774   6.470   2.828   3.464 -0.1782  0.8631 -0.2662
   14SAPS   C26 1775   6.359   2.741   3.616  0.6026 -0.3579 -0.4444
   14SAPS   H6R 1776   6.446   2.729   3.682 -0.6253 -4.0389  0.7174
   14SAPS   C27 1777   6.233   2.696   3.680  1.2841 -0.5856 -0.0456
   14SAPS   H7R 1778   6.245   2.593   3.720 -1.7401 -1.3041 -0.7450
   14SAPS   H7S 1779   6.145   2.689   3.613  0.1372 -1.8038  1.5005
   14SAPS   C28 1780   6.187   2.790   3.793  0.9374  0.4104 -0.5864
   14SAPS   H8R 1781   6.115   2.866   3.759  1.5330  0.3985 -1.9548
   14SAPS   C29 1782   6.204   2.784   3.922 -0.2867 -0.0473 -0.4331
   14SAPS   H9R 1783   6.155   2.857   3.988  1.9501  0.1923  1.0970
   14SAPS  C210 1784   6.279   2.676   3.996  0.0831 -0.3298  0.2209
   14SAPS  H10R 1785   6.384   2.680   3.959  0.0152 -1.2649 -0.1122
   14SAPS  H10S 1786   6.224   2.582   3.974  0.4072 -0.4293 -0.1977
   14SAPS  C211 1787   6.282   2.682   4.148 -0.3001 -0.5367 -0.6497
   14SAPS  H11R 1788   6.189   2.710   4.201  0.1263 -0.8453  0.2882
   14SAPS  C212 1789   6.390   2.657   4.226  0.2911  0.9773 -0.6158
   14SAPS  H12R 1790   6.378   2.669   4.334 -0.8973 -2.1956 -0.2909
   14SAPS  C213 1791   6.531   2.634   4.171  0.3280 -0.0400  0.1377
   14SAPS  H13R 1792   6.592   2.696   4.241 -0.1187 -0.9690  1.3823
   14SAPS  H13S 1793   6.538   2.663   4.064  0.2414 -0.8074 -0.0802
   14SAPS  C214 1794   6.573   2.492   4.191 -0.5651 -0.0860  0.4719
   14SAPS  H14R 1795   6.531   2.417   4.123  0.3615 -0.0015 -0.2123
   14SAPS  C215 1796   6.649   2.447   4.287 -0.4453  0.0349  0.2866
   14SAPS  H15R 1797   6.672   2.339   4.290  1.0411  0.3505  3.7644
   14SAPS  C216 1798   6.717   2.517   4.402 -0.3080  0.1779 -0.9218
   14SAPS  H16R 1799   6.735   2.454   4.491  0.8209  1.6656 -0.0271
   14SAPS  H16S 1800   6.657   2.605   4.435  0.0140 -0.2179  0.7835
   14SAPS  C217 1801   6.853   2.565   4.345 -0.8229  0.1252 -0.2588
   14SAPS  H17R 1802   6.848   2.590   4.237 -1.9690  2.8832  0.3418
   14SAPS  H17S 1803   6.911   2.471   4.353 -2.5581 -0.9568  0.0673
   14SAPS  C218 1804   6.911   2.690   4.423  0.9299  0.0126  0.5494
   14SAPS  H18R 1805   6.848   2.782   4.426  1.0751  0.1199  0.2693
   14SAPS  H18S 1806   7.004   2.713   4.369  0.9267 -0.7298  0.2154
   14SAPS  C219 1807   6.957   2.652   4.568  0.0019 -0.0846 -0.4810
   14SAPS  H19R 1808   7.023   2.563   4.559  0.1186  0.0219 -0.6768
   14SAPS  H19S 1809   6.863   2.632   4.624 -0.6367 -4.5701 -2.7326
   14SAPS  C220 1810   7.035   2.763   4.628 -0.8407 -0.3687 -0.3118
   14SAPS  H20R 1811   7.082   2.742   4.727 -0.8708 -2.0305 -0.6232
   14SAPS  H20S 1812   6.976   2.857   4.637  0.5216  0.4740  0.0500
   14SAPS  H20T 1813   7.113   2.800   4.559 -3.0890  1.4260 -2.0827
   14SAPS   C33 1814   6.331   2.297   3.326  0.4309 -0.1030 -0.1167
   14SAPS   H3X 1815   6.262   2.262   3.246 -0.3786 -0.4441  0.7099
   14SAPS   H3Y 1816   6.350   2.406   3.322  1.0440 -0.2240 -0.6896
   14SAPS   C34 1817   6.256   2.272   3.458  0.2360  0.3297  0.5330
   14SAPS   H4X 1818   6.307   2.308   3.550 -1.3076  1.8293  0.8493
   14SAPS   H4Y 1819   6.233   2.164   3.460 -0.0858  0.2020 -2.8747
   14SAPS   C35 1820   6.116   2.335   3.460 -0.4630  0.3900  0.1872
   14SAPS   H5X 1821   6.086   2.350   3.354 -0.8114  2.9321  0.5866
   14SAPS   H5Y 1822   6.133   2.440   3.491  1.3500  0.0509  0.4359
   14SAPS   C36 1823   6.008   2.275   3.552 -0.0816 -0.4129  0.8219
   14SAPS   H6X 1824   5.973   2.177   3.515 -1.9131 -0.0413  1.4486
   14SAPS   H6Y 1825   5.925   2.348   3.545  1.4706  1.3518 -0.1614
   14SAPS   C37 1826   6.040   2.281   3.698 -0.1211  0.4789  0.4923
   14SAPS   H7X 1827   6.084   2.380   3.721  3.8414 -1.0103 -0.0042
   14SAPS   H7Y 1828   6.128   2.215   3.715  0.1547  0.0213 -2.3477
   14SAPS   C38 1829   5.924   2.234   3.792 -0.0209  0.3152 -0.0878
   14SAPS   H8X 1830   5.931   2.123   3.787  0.9018  0.1738  2.5621
   14SAPS   H8Y 1831   5.824   2.267   3.757 -0.1066  0.9015  0.6786
   14SAPS   C39 1832   5.946   2.259   3.940  0.6512  0.1519  0.1429
   14SAPS   H9X 1833   5.929   2.368   3.954 -2.4978 -0.2173 -0.0060
   14SAPS   H9Y 1834   6.053   2.244   3.964  0.5459  0.3637  0.7425
   14SAPS  C310 1835   5.869   2.170   4.037 -0.2301 -0.4605  0.3856
   14SAPS  H10X 1836   5.891   2.067   4.001 -0.0710  0.4292 -2.3107
   14SAPS  H10Y 1837   5.760   2.186   4.027  0.3973  4.4599 -1.2782
   14SAPS  C311 1838   5.911   2.186   4.180  0.3356  0.2086 -0.7821
   14SAPS  H11X 1839   5.878   2.290   4.196  1.7010  0.6863 -0.9599
   14SAPS  H11Y 1840   6.021   2.182   4.196  0.1501 -0.6789  0.4515
   14SAPS  C312 1841   5.845   2.080   4.270 -0.0403 -0.0451 -0.2552
   14SAPS  H12X 1842   5.873   1.982   4.227  2.1812  0.5743 -0.3061
   14SAPS  H12Y 1843   5.734   2.085   4.275 -0.2804 -0.8039 -2.9889
   14SAPS  C313 1844   5.895   2.090   4.415 -0.0750 -0.5749 -0.4454
   14SAPS  H13X 1845   5.839   2.178   4.455  0.7148  0.3769 -1.3786
   14SAPS  H13Y 1846   6.002   2.120   4.418  0.1933 -1.4581 -0.9839
   14SAPS  C314 1847   5.871   1.967   4.502  0.0049  0.3538 -0.2085
   14SAPS  H14X 1848   5.929   1.877   4.471 -1.8392 -1.6474  1.7709
   14SAPS  H14Y 1849   5.767   1.930   4.494  0.3705 -1.2098  1.6046
   14SAPS  C315 1850   5.905   1.990   4.654  0.4395  0.4050 -0.3654
   14SAPS  H15X 1851   5.845   2.078   4.687 -0.1871  0.0914 -0.6523
   14SAPS  H15Y 1852   6.015   2.007   4.658  0.3093  1.0671  1.0012
   14SAPS  C316 1853   5.877   1.866   4.753  0.3171 -0.3935 -0.3510
   14SAPS  H16X 1854   5.925   1.896   4.848 -2.8078  1.7949  0.6833
   14SAPS  H16Y 1855   5.924   1.772   4.718 -1.8548 -2.2075  1.3004
   14SAPS  C317 1856   5.734   1.854   4.781 -0.5736  0.0113  0.0890
   14SAPS  H17X 1857   5.686   1.850   4.681  4.2611 -0.3326 -2.5306
   14SAPS  H17Y 1858   5.700   1.944   4.837  0.7756  0.2948  0.4949
   14SAPS  C318 1859   5.698   1.729   4.860  0.7277 -0.8536 -0.3467
   14SAPS  H18X 1860   5.714   1.637   4.800  1.3828  0.1090 -1.7023
   14SAPS  H18Y 1861   5.596   1.726   4.904  1.0495 -3.7893  0.3745
   14SAPS  H18Z 1862   5.771   1.716   4.943 -0.1044 -0.0036  0.5395
   15SAPS     N 1863   4.594   3.938   2.051  0.3735 -0.3810  0.0061
   15SAPS   HN1 1864   4.571   4.011   1.981  1.7352  0.3354  0.2661
   15SAPS   HN2 1865   4.616   3.861   1.985  0.4240  0.2244 -0.6884
   15SAPS   HN3 1866   4.508   3.908   2.102 -1.2698  3.5351 -0.1131
   15SAPS   C12 1867   4.713   3.967   2.135 -0.8011  0.3652 -0.0933
   15SAPS  H12A 1868   4.766   3.876   2.162 -1.7683  0.4017  2.1493
   15SAPS   C13 1869   4.820   4.042   2.050  0.1022 -1.1335  0.0087
   15SAPS  O13A 1870   4.801   4.077   1.930  0.2231  0.0346 -0.2530
   15SAPS  O13B 1871   4.923   4.071   2.114  0.0002  0.0516  0.5422
   15SAPS   C11 1872   4.662   4.050   2.256  0.7178 -0.0672 -0.7839
   15SAPS  H11A 1873   4.629   4.149   2.217  3.0384  0.7146 -0.8967
   15SAPS  H11B 1874   4.752   4.066   2.319  0.4061  2.6966 -0.8853
   15SAPS     P 1875   4.595   3.850   2.419 -0.0744 -0.0811 -0.1616
   15SAPS   O13 1876   4.478   3.815   2.493 -0.1971 -0.3198  0.7124
   15SAPS   O14 1877   4.660   3.748   2.335  0.9036  0.2439 -0.1706
   15SAPS   O12 1878   4.562   3.987   2.334  0.2003 -0.5119 -0.5017
   15SAPS   O11 1879   4.712   3.901   2.516 -0.3176  0.4818  0.2997
   15SAPS    C1 1880   4.695   4.029   2.588 -0.6666  0.3674  0.5807
   15SAPS    HA 1881   4.774   4.100   2.555  1.6725 -1.9749  0.8882
   15SAPS    HB 1882   4.602   4.079   2.553  0.0206 -0.6765 -3.2125
   15SAPS    C2 1883   4.725   4.007   2.744  0.1616  0.2658  0.3117
   15SAPS    HS 1884   4.750   4.106   2.788 -2.4937  0.4655  1.5360
   15SAPS   O21 1885   4.829   3.913   2.771 -0.1197  0.2734 -0.1732
   15SAPS   C21 1886   4.952   3.961   2.756 -0.0754  0.0817 -0.3684
   15SAPS   O22 1887   4.974   4.079   2.722 -0.2569  0.0974 -0.5937
   15SAPS   C22 1888   5.053   3.856   2.775  0.0939  0.3520 -0.9315
   15SAPS   H2R 1889   5.003   3.780   2.838 -0.8047  2.9611  1.7675
   15SAPS   H2S 1890   5.090   3.808   2.682  2.5354 -0.6537  0.4530
   15SAPS    C3 1891   4.593   3.961   2.821 -0.6488  0.3331  0.1164
   15SAPS    HX 1892   4.585   3.850   2.827  0.0964  0.3091  0.8213
   15SAPS    HY 1893   4.506   3.992   2.759  0.9756  0.5429 -2.1579
   15SAPS   O31 1894   4.574   4.016   2.957 -0.4530 -0.7420  0.3282
   15SAPS   C31 1895   4.617   3.943   3.057  0.0520  0.5318 -0.3427
   15SAPS   O32 1896   4.666   3.833   3.062  0.9668  0.0615  0.0819
   15SAPS   C32 1897   4.602   4.018   3.187 -0.7669  0.5592  0.2906
   15SAPS   H2X 1898   4.550   4.114   3.164  0.9403  1.7726  1.2915
   15SAPS   H2Y 1899   4.706   4.039   3.220 -0.0746  0.2419 -1.5570
   15SAPS   C23 1900   5.176   3.911   2.864  0.3037  0.3490  0.4250
   15SAPS   H3R 1901   5.145   3.954   2.962 -0.6121 -0.9646  0.7455
   15SAPS   H3S 1902   5.229   3.992   2.811  2.9386 -0.6441  1.3785
   15SAPS   C24 1903   5.276   3.806   2.911 -0.2394  0.6935  0.1171
   15SAPS   H4R 1904   5.340   3.863   2.981 -0.3841  1.2484 -0.2000
   15SAPS   H4S 1905   5.346   3.777   2.829 -0.9930 -0.8133 -0.0272
   15SAPS   C25 1906   5.220   3.674   2.975  0.4328 -0.2010  0.5498
   15SAPS   H5R 1907   5.241   3.580   2.922  0.3290 -0.8461  1.6404
   15SAPS   C26 1908   5.152   3.670   3.092 -0.4040 -0.7719  0.0576
   15SAPS   H6R 1909   5.126   3.571   3.132  1.0060 -0.9322  0.6196
   15SAPS   C27 1910   5.135   3.786   3.193 -0.2025  0.1298  0.6642
   15SAPS   H7R 1911   5.194   3.876   3.164 -1.4326 -0.0804 -3.0726
   15SAPS   H7S 1912   5.189   3.746   3.281 -1.9777  1.9411  2.6811
   15SAPS   C28 1913   4.989   3.794   3.216 -0.2898  0.0953  0.1240
   15SAPS   H8R 1914   4.935   3.786   3.121 -1.3265  0.5893  0.6546
   15SAPS   C29 1915   4.923   3.793   3.332 -0.1598 -0.2007 -0.0695
   15SAPS   H9R 1916   4.814   3.780   3.328 -0.1239 -0.6167  0.2225
   15SAPS  C210 1917   4.994   3.779   3.459 -0.3054  0.4121  0.2933
   15SAPS  H10R 1918   5.081   3.848   3.464  0.2086 -0.1122 -1.0554
   15SAPS  H10S 1919   5.043   3.680   3.463  0.5962  0.7711 -1.1653
   15SAPS  C211 1920   4.895   3.781   3.574  0.0006 -0.0244 -1.2187
   15SAPS  H11R 1921   4.812   3.710   3.581 -0.4726  0.6849  3.9623
   15SAPS  C212 1922   4.906   3.860   3.688 -0.0738  0.2472 -0.2098
   15SAPS  H12R 1923   4.822   3.862   3.759  0.1456 -0.6868  0.0941
   15SAPS  C213 1924   5.013   3.962   3.713 -0.1350  0.1968  0.1786
   15SAPS  H13R 1925   5.028   4.023   3.621 -1.6577  0.6754  0.2258
   15SAPS  H13S 1926   5.107   3.903   3.723 -1.3117 -1.4796  2.0073
   15SAPS  C214 1927   5.006   4.069   3.822  0.0302  0.8747 -0.0935
   15SAPS  H14R 1928   4.970   4.161   3.773 -1.7749 -0.2512 -0.9992
   15SAPS  C215 1929   5.029   4.057   3.957  0.5370  0.0024  0.1762
   15SAPS  H15R 1930   5.030   4.151   4.014 -0.8161  0.9041 -1.2014
   15SAPS  C216 1931   5.087   3.939   4.028  0.2786  0.0137 -0.3623
   15SAPS  H16R 1932   5.189   3.975   4.054  0.9067  0.0499 -2.5840
   15SAPS  H16S 1933   5.094   3.849   3.962  1.5076  1.1853 -1.9246
   15SAPS  C217 1934   5.010   3.907   4.162 -0.0710  0.0360  0.0504
   15SAPS  H17R 1935   4.905   3.883   4.132  0.5582 -2.9473 -0.0464
   15SAPS  H17S 1936   5.000   3.998   4.225  0.8054 -0.0678  0.3480
   15SAPS  C218 1937   5.079   3.795   4.237  0.3715  0.8433  0.2931
   15SAPS  H18R 1938   5.187   3.815   4.253  0.4713  1.6940 -1.2618
   15SAPS  H18S 1939   5.067   3.711   4.165 -1.2435  1.2047  0.0973
   15SAPS  C219 1940   5.013   3.749   4.368 -0.0591  0.5050  0.1411
   15SAPS  H19R 1941   5.079   3.675   4.418 -0.5677 -0.2585 -0.3167
   15SAPS  H19S 1942   4.917   3.696   4.354 -0.6929  1.3111  1.2539
   15SAPS  C220 1943   5.008   3.861   4.477  0.7529  0.3071 -0.1645
   15SAPS  H20R 1944   5.104   3.916   4.487  1.8537 -1.6894  0.9733
   15SAPS  H20S 1945   4.983   3.821   4.578  0.2250  2.7063  0.7222
   15SAPS  H20T 1946   4.930   3.938   4.460 -0.1264 -0.0084  2.0342
   15SAPS   C33 1947   4.533   3.946   3.299 -0.4134 -0.2486  0.8298
   15SAPS   H3X 1948   4.577   3.844   3.304  2.5002  0.8915  0.7242
   15SAPS   H3Y 1949   4.429   3.950   3.262  0.7792  2.0032 -2.8251
   15SAPS   C34 1950   4.557   4.005   3.433 -0.5901  0.1601 -0.5578
   15SAPS   H4X 1951   4.516   4.108   3.431  2.1298  1.3080 -1.6564
   15SAPS   H4Y 1952   4.668   4.011   3.441 -0.7176  0.9201  1.1652
   15SAPS   C35 1953   4.492   3.934   3.555 -0.9302  0.0189 -0.0136
   15SAPS   H5X 1954   4.532   3.830   3.559 -0.3529  0.2687  2.3286
   15SAPS   H5Y 1955   4.385   3.930   3.526 -1.0681 -0.5138  0.5577
   15SAPS   C36 1956   4.510   4.006   3.697  0.5181 -0.4966  0.8454
   15SAPS   H6X 1957   4.479   4.113   3.696  0.3193 -0.5334 -0.7306
   15SAPS   H6Y 1958   4.621   4.010   3.705  0.5399  1.2002  0.0924
   15SAPS   C37 1959   4.460   3.925   3.814  0.1152  0.2981 -0.4249
   15SAPS   H7X 1960   4.483   3.816   3.807  1.0901  0.4278  0.4977
   15SAPS   H7Y 1961   4.350   3.938   3.815  0.1733  0.8088 -0.4776
   15SAPS   C38 1962   4.508   3.976   3.949 -0.1337  0.1458 -0.6211
   15SAPS   H8X 1963   4.494   4.086   3.956 -2.0701 -0.1005  0.0645
   15SAPS   H8Y 1964   4.609   3.933   3.965  0.5692  1.0707 -2.3368
   15SAPS   C39 1965   4.429   3.920   4.071 -0.9831 -0.1847  0.7291
   15SAPS   H9X 1966   4.488   3.942   4.163 -1.2944 -2.2210  1.4590
   15SAPS   H9Y 1967   4.398   3.814   4.058  1.0499 -0.8603  0.9649
   15SAPS  C310 1968   4.294   3.995   4.081  0.2528  0.3736 -0.5126
   15SAPS  H10X 1969   4.254   3.979   3.978  3.2308 -0.9793 -1.5520
   15SAPS  H10Y 1970   4.309   4.103   4.103 -0.8270  0.1643  1.4471
   15SAPS  C311 1971   4.196   3.957   4.190 -0.8322  0.1347 -0.5765
   15SAPS  H11X 1972   4.244   3.972   4.289  1.2687 -0.6640 -1.4085
   15SAPS  H11Y 1973   4.187   3.846   4.187 -1.2320  0.1339  0.2957
   15SAPS  C312 1974   4.055   4.020   4.181  0.5014 -0.4387 -0.1815
   15SAPS  H12X 1975   4.006   3.978   4.091  1.2652 -0.9879 -0.3419
   15SAPS  H12Y 1976   4.065   4.127   4.154  2.3611 -1.1094 -2.3707
   15SAPS  C313 1977   3.969   4.022   4.311 -0.6176  0.3348  0.1868
   15SAPS  H13X 1978   4.015   4.089   4.387  0.9754 -0.0398 -0.4272
   15SAPS  H13Y 1979   3.958   3.921   4.357 -2.5343  1.6935  3.0756
   15SAPS  C314 1980   3.826   4.076   4.292  0.2435 -0.9349  0.9079
   15SAPS  H14X 1981   3.788   4.036   4.197  0.1132 -0.3104  0.6909
   15SAPS  H14Y 1982   3.831   4.183   4.264  3.1119 -1.0909  0.5360
   15SAPS  C315 1983   3.734   4.075   4.414 -0.2419 -0.1756 -0.0493
   15SAPS  H15X 1984   3.708   3.969   4.434  0.5528 -0.1503  1.2543
   15SAPS  H15Y 1985   3.638   4.124   4.390  0.9257  1.9416 -0.7319
   15SAPS  C316 1986   3.792   4.150   4.542  0.3374 -0.6882  0.1488
   15SAPS  H16X 1987   3.784   4.260   4.526  2.1030 -0.0944  2.6602
   15SAPS  H16Y 1988   3.899   4.136   4.570  0.7666  0.7844 -0.6312
   15SAPS  C317 1989   3.699   4.127   4.665  0.1266  0.2172  0.1677
   15SAPS  H17X 1990   3.717   4.021   4.696  0.4019  0.1966 -0.0555
   15SAPS  H17Y 1991   3.593   4.137   4.634  0.1465  0.5352  0.1995
   15SAPS  C318 1992   3.723   4.234   4.770  0.4838 -0.5426  0.8558
   15SAPS  H18X 1993   3.827   4.273   4.773 -0.2950  1.7054  0.7176
   15SAPS  H18Y 1994   3.685   4.199   4.868 -2.0069 -0.0260  0.1496
   15SAPS  H18Z 1995   3.669   4.327   4.740  2.2940 -0.0151 -1.0083
   16SAPS     N 1996   0.128   3.200   2.406  0.5472  0.2861  0.3326
   16SAPS   HN1 1997   0.146   3.108   2.451 -4.6024 -0.9224  0.5162
   16SAPS   HN2 1998   0.086   3.264   2.476  0.2739  0.7879 -0.2780
   16SAPS   HN3 1999   0.056   3.186   2.332 -0.8008 -1.8267  1.9017
   16SAPS   C12 2000   0.248   3.268   2.358 -0.0393  0.1825  0.3971
   16SAPS  H12A 2001   0.310   3.185   2.329 -1.4966 -1.4366  1.6923
   16SAPS   C13 2002   0.210   3.342   2.226  0.2638 -0.1463 -0.2720
   16SAPS  O13A 2003   0.091   3.349   2.179 -0.4925  0.6266 -0.2813
   16SAPS  O13B 2004   0.308   3.399   2.173 -0.0185  0.0518 -0.4956
   16SAPS   C11 2005   0.321   3.355   2.461  0.0041 -0.2194  0.0646
   16SAPS  H11A 2006   0.255   3.430   2.509  2.2334  0.2400  2.5906
   16SAPS  H11B 2007   0.401   3.415   2.413  0.5510 -0.1905  0.9935
   16SAPS     P 2008   0.487   3.310   2.642  0.0399 -0.0061  0.2085
   16SAPS   O13 2009   0.521   3.191   2.718 -1.0827  0.5342  0.0524
   16SAPS   O14 2010   0.597   3.371   2.567 -0.5553 -0.3191 -0.6361
   16SAPS   O12 2011   0.374   3.265   2.546 -0.4863 -0.0276  0.3185
   16SAPS   O11 2012   0.419   3.418   2.731  0.2995 -0.0884  0.2769
   16SAPS    C1 2013   0.315   3.377   2.825  0.4992 -0.3355  0.1132
   16SAPS    HA 2014   0.218   3.375   2.771  0.6134  2.4828 -0.3553
   16SAPS    HB 2015   0.338   3.277   2.867  0.0486 -0.1790  0.7480
   16SAPS    C2 2016   0.311   3.485   2.934  0.5507  0.7502  0.6107
   16SAPS    HS 2017   0.331   3.582   2.883 -1.0679  0.6318 -0.3239
   16SAPS   O21 2018   0.415   3.462   3.038 -0.2364  0.0887 -0.6825
   16SAPS   C21 2019   0.439   3.570   3.111 -0.0437  1.1408  0.2818
   16SAPS   O22 2020   0.394   3.681   3.086 -0.2093 -0.0651 -0.2431
   16SAPS   C22 2021   0.530   3.530   3.227  0.3060 -0.1584 -0.2514
   16SAPS   H2R 2022   0.623   3.482   3.190  0.3165 -0.4260  0.1148
   16SAPS   H2S 2023   0.563   3.623   3.278 -0.0732  0.0494 -0.3786
   16SAPS    C3 2024   0.169   3.499   2.996  0.3388  0.4447  0.1086
   16SAPS    HX 2025   0.112   3.529   2.906 -1.1771 -2.8721 -0.2008
   16SAPS    HY 2026   0.165   3.584   3.067 -3.2508  0.9112 -0.4698
   16SAPS   O31 2027   0.115   3.373   3.041  0.2490  0.0541 -0.3768
   16SAPS   C31 2028   0.126   3.347   3.173  0.1093  1.0460  0.3670
   16SAPS   O32 2029   0.157   3.428   3.258  0.0141  0.0010 -0.1799
   16SAPS   C32 2030   0.088   3.200   3.207 -0.3392  0.4001  0.2451
   16SAPS   H2X 2031   0.057   3.151   3.113 -1.9551  1.8423 -0.0242
   16SAPS   H2Y 2032   0.003   3.202   3.279 -0.4409 -1.3041  0.2030
   16SAPS   C23 2033   0.459   3.442   3.335  0.0768 -0.1253 -0.1951
   16SAPS   H3R 2034   0.422   3.356   3.275 -2.4707  0.5118  0.3712
   16SAPS   H3S 2035   0.379   3.509   3.372 -0.1179 -0.4729  0.0138
   16SAPS   C24 2036   0.562   3.399   3.441  0.3361 -0.9793 -0.7853
   16SAPS   H4R 2037   0.654   3.374   3.386  1.1430 -0.8023  0.4354
   16SAPS   H4S 2038   0.521   3.310   3.493  0.3929  0.3723  1.7548
   16SAPS   C25 2039   0.589   3.516   3.539 -0.0998  0.0515 -0.7922
   16SAPS   H5R 2040   0.681   3.572   3.518 -1.3559  1.9340 -1.5670
   16SAPS   C26 2041   0.521   3.543   3.652  0.7277 -0.1563  0.6803
   16SAPS   H6R 2042   0.565   3.619   3.717  1.0754  0.3783 -0.1593
   16SAPS   C27 2043   0.400   3.457   3.694 -0.4045 -0.0793  0.3562
   16SAPS   H7R 2044   0.339   3.443   3.602  0.0325 -0.1515  0.0740
   16SAPS   H7S 2045   0.336   3.527   3.752  1.6253  0.1666  2.4398
   16SAPS   C28 2046   0.420   3.328   3.779 -0.4994 -0.6219 -0.5540
   16SAPS   H8R 2047   0.461   3.242   3.725  0.8284  0.5147 -1.4461
   16SAPS   C29 2048   0.382   3.316   3.911 -0.2325 -0.7722 -0.2388
   16SAPS   H9R 2049   0.397   3.221   3.964  0.3820 -1.5623 -1.7807
   16SAPS  C210 2050   0.338   3.433   3.990  0.2668 -0.1340  0.4003
   16SAPS  H10R 2051   0.259   3.498   3.947 -0.3062 -0.7532  0.5015
   16SAPS  H10S 2052   0.425   3.502   3.995 -0.2259  0.5255  0.1429
   16SAPS  C211 2053   0.306   3.402   4.131 -0.7063  0.1324 -0.3641
   16SAPS  H11R 2054   0.342   3.301   4.155 -0.3125 -0.0950 -1.8245
   16SAPS  C212 2055   0.260   3.477   4.231  0.0048  0.0344 -0.1012
   16SAPS  H12R 2056   0.256   3.447   4.336 -1.6287  0.5369  0.0065
   16SAPS  C213 2057   0.214   3.621   4.220  0.4695 -0.0350 -0.3444
   16SAPS  H13R 2058   0.109   3.627   4.253  0.9481  0.6573  1.1288
   16SAPS  H13S 2059   0.211   3.644   4.111  2.0190 -0.0539 -0.4133
   16SAPS  C214 2060   0.310   3.709   4.300 -0.2163 -0.1524  0.0944
   16SAPS  H14R 2061   0.403   3.729   4.245  1.6512 -0.4010  2.9435
   16SAPS  C215 2062   0.303   3.733   4.435  0.4530  0.2544  0.1526
   16SAPS  H15R 2063   0.378   3.796   4.483 -0.6625 -0.4168  2.9529
   16SAPS  C216 2064   0.203   3.682   4.538 -1.2531  0.0492  0.1014
   16SAPS  H16R 2065   0.268   3.663   4.626  2.3256  0.9624 -2.1311
   16SAPS  H16S 2066   0.157   3.586   4.505 -0.2594  0.4143 -2.6048
   16SAPS  C217 2067   0.094   3.772   4.575 -0.3673 -0.6134  0.2656
   16SAPS  H17R 2068   0.043   3.809   4.484  2.5290  0.5596 -0.9755
   16SAPS  H17S 2069   0.141   3.865   4.613  0.9925 -1.3588  0.4778
   16SAPS  C218 2070   0.002   3.729   4.691 -1.4133 -0.6613 -0.1578
   16SAPS  H18R 2071  -0.029   3.632   4.647  2.0436 -0.6870 -3.0877
   16SAPS  H18S 2072  -0.082   3.801   4.697 -1.3316 -0.6563  1.0291
   16SAPS  C219 2073   0.071   3.717   4.827 -0.6383 -0.3296 -1.0904
   16SAPS  H19R 2074   0.174   3.756   4.821 -0.0963 -0.8715  2.4359
   16SAPS  H19S 2075   0.077   3.607   4.844  2.0060  0.0914  1.5210
   16SAPS  C220 2076   0.004   3.781   4.948  0.6785  0.3181  0.1702
   16SAPS  H20R 2077   0.005   3.893   4.946  1.3070  0.3165  0.1904
   16SAPS  H20S 2078   0.065   3.751   5.036  0.1685  0.8425  0.7147
   16SAPS  H20T 2079  -0.095   3.735   4.968 -0.1135  1.8295 -0.0980
   16SAPS   C33 2080   0.205   3.126   3.282 -0.5316  0.1368 -0.1915
   16SAPS   H3X 2081   0.296   3.127   3.218 -0.6239  0.6359 -0.3239
   16SAPS   H3Y 2082   0.164   3.024   3.290  0.1916 -0.1893 -0.5677
   16SAPS   C34 2083   0.225   3.170   3.426  0.1394 -0.4790 -0.5670
   16SAPS   H4X 2084   0.232   3.279   3.444 -1.1796 -0.3881 -0.4704
   16SAPS   H4Y 2085   0.321   3.128   3.463  0.4428  1.2033  0.6512
   16SAPS   C35 2086   0.114   3.114   3.516  0.2953 -0.2794  0.4907
   16SAPS   H5X 2087   0.102   3.004   3.509 -1.2918 -0.3150  2.7617
   16SAPS   H5Y 2088   0.014   3.159   3.500  1.1422  1.3516 -0.5476
   16SAPS   C36 2089   0.148   3.146   3.666 -0.5185 -0.5230 -0.5450
   16SAPS   H6X 2090   0.189   3.248   3.677 -3.3481  0.3984  4.3154
   16SAPS   H6Y 2091   0.232   3.077   3.690  1.6203  2.3787  0.8619
   16SAPS   C37 2092   0.026   3.153   3.758  0.0401  0.1630  0.1616
   16SAPS   H7X 2093  -0.068   3.201   3.726 -0.7943 -1.2513  0.3928
   16SAPS   H7Y 2094   0.063   3.216   3.842  0.8192 -0.0286 -0.0273
   16SAPS   C38 2095  -0.023   3.022   3.811 -0.1499  0.3002  0.2884
   16SAPS   H8X 2096   0.073   2.971   3.835 -0.6562 -1.1014 -0.5403
   16SAPS   H8Y 2097  -0.075   2.964   3.732  1.6194  0.8497 -1.3362
   16SAPS   C39 2098  -0.096   3.024   3.942  0.2205 -0.0111 -0.4065
   16SAPS   H9X 2099  -0.137   2.922   3.964  0.9767 -0.1931  0.1995
   16SAPS   H9Y 2100  -0.185   3.088   3.928  1.2629  1.0371 -2.6740
   16SAPS  C310 2101  -0.033   3.088   4.066 -0.2946 -0.3516 -0.3786
   16SAPS  H10X 2102   0.028   3.173   4.029  0.6165 -1.3262 -1.1750
   16SAPS  H10Y 2103   0.028   3.004   4.106 -1.5910 -1.5140 -0.7609
   16SAPS  C311 2104  -0.135   3.128   4.173  0.6024 -0.8650 -0.1247
   16SAPS  H11X 2105  -0.197   3.038   4.194  0.3427 -0.1120  2.8229
   16SAPS  H11Y 2106  -0.198   3.213   4.139  1.8469  0.1654  0.0907
   16SAPS  C312 2107  -0.076   3.182   4.307 -0.3946  0.6900  0.5239
   16SAPS  H12X 2108  -0.027   3.280   4.291  0.6525  0.3642  1.5561
   16SAPS  H12Y 2109  -0.006   3.107   4.348 -1.6576 -0.5131  0.5549
   16SAPS  C313 2110  -0.185   3.216   4.409  0.2537  0.3916  0.6053
   16SAPS  H13X 2111  -0.203   3.120   4.462 -0.0682  0.1990  0.1536
   16SAPS  H13Y 2112  -0.277   3.253   4.359  0.0461  0.1778  0.8220
   16SAPS  C314 2113  -0.131   3.306   4.524  0.5959 -0.5928 -0.3943
   16SAPS  H14X 2114  -0.124   3.409   4.482  0.3157 -1.8096 -3.7613
   16SAPS  H14Y 2115  -0.033   3.276   4.566  0.1158 -1.7492 -0.0568
   16SAPS  C315 2116  -0.242   3.318   4.623 -0.2568  0.6443  0.0364
   16SAPS  H15X 2117  -0.292   3.221   4.644  0.9206 -0.0587 -0.3175
   16SAPS  H15Y 2118  -0.321   3.390   4.592 -1.3196  0.7598  2.7030
   16SAPS  C316 2119  -0.199   3.370   4.760  0.8711 -0.1167  0.0472
   16SAPS  H16X 2120  -0.143   3.464   4.739  0.4034  0.0322 -0.5903
   16SAPS  H16Y 2121  -0.122   3.295   4.786  1.6110  0.5975 -0.0564
   16SAPS  C317 2122  -0.321   3.413   4.850 -0.9345  0.2757 -0.4752
   16SAPS  H17X 2123  -0.276   3.401   4.951 -1.8569 -1.7812 -0.2485
   16SAPS  H17Y 2124  -0.400   3.334   4.855  1.1231 -1.9284 -0.6275
   16SAPS  C318 2125  -0.373   3.554   4.825  0.1525  0.0033 -0.8663
   16SAPS  H18X 2126  -0.304   3.632   4.864  0.1484  0.0112 -0.8757
   16SAPS  H18Y 2127  -0.469   3.563   4.881  0.9732 -1.5237  0.9083
   16SAPS  H18Z 2128  -0.375   3.562   4.714 -0.3747 -0.2326 -0.8747
   17SAPS     N 2129   3.047   2.673   2.564 -0.3073 -0.1996 -0.4944
   17SAPS   HN1 2130   3.104   2.755   2.594 -2.0173  0.4596  1.1623
   17SAPS   HN2 2131   3.031   2.629   2.657 -0.1927  0.9262  0.0762
   17SAPS   HN3 2132   3.095   2.608   2.500 -1.8281 -1.0740 -0.8034
   17SAPS   C12 2133   2.925   2.728   2.505  0.4551  0.3225  0.0865
   17SAPS  H12A 2134   2.881   2.767   2.596 -0.5221 -1.8728  0.6263
   17SAPS   C13 2135   2.940   2.851   2.413  0.5676 -0.0192  0.3630
   17SAPS  O13A 2136   3.055   2.885   2.371 -0.8877  0.3802 -0.5443
   17SAPS  O13B 2137   2.838   2.908   2.363  0.1361  0.1646  0.1396
   17SAPS   C11 2138   2.832   2.614   2.450  0.6937  0.2856 -0.2879
   17SAPS  H11A 2139   2.899   2.569   2.374 -0.1402 -1.9000  0.2190
   17SAPS  H11B 2140   2.748   2.670   2.401 -0.1177  0.2241  0.9875
   17SAPS     P 2141   2.645   2.504   2.591  0.2983 -0.0386 -0.2788
   17SAPS   O13 2142   2.554   2.545   2.476 -0.0794 -0.3294 -0.5010
   17SAPS   O14 2143   2.631   2.364   2.642  0.1879  0.5514  0.3684
   17SAPS   O12 2144   2.796   2.520   2.547  0.2775 -0.0611  0.4013
   17SAPS   O11 2145   2.625   2.597   2.717 -0.0376 -0.0816 -0.0825
   17SAPS    C1 2146   2.550   2.718   2.708 -0.2798 -0.8011  0.3072
   17SAPS    HA 2147   2.591   2.780   2.626 -0.5658  0.8122  1.3290
   17SAPS    HB 2148   2.444   2.690   2.691  0.3004 -2.7274 -0.3777
   17SAPS    C2 2149   2.547   2.790   2.838 -0.2904  0.4186  0.0460
   17SAPS    HS 2150   2.466   2.865   2.831 -0.4893  0.0485 -2.8285
   17SAPS   O21 2151   2.671   2.854   2.860 -0.2719 -0.3640  0.1709
   17SAPS   C21 2152   2.689   2.976   2.808 -0.4943  0.0540 -0.2013
   17SAPS   O22 2153   2.606   3.025   2.734 -0.4795  0.1291 -0.1080
   17SAPS   C22 2154   2.817   3.035   2.857  0.8713  0.4131  0.2816
   17SAPS   H2R 2155   2.842   2.958   2.933 -3.8976  0.9858  2.8351
   17SAPS   H2S 2156   2.892   3.015   2.777  0.8888 -0.8547  0.5880
   17SAPS    C3 2157   2.501   2.687   2.960 -0.6429  0.2685 -0.1318
   17SAPS    HX 2158   2.547   2.587   2.943 -0.1411  0.5597 -0.5277
   17SAPS    HY 2159   2.392   2.669   2.949 -0.5316  0.2450 -1.3727
   17SAPS   O31 2160   2.541   2.742   3.090  0.5749 -0.2937  0.3661
   17SAPS   C31 2161   2.527   2.663   3.200  0.4069 -0.2483 -0.7317
   17SAPS   O32 2162   2.476   2.551   3.202  0.5593  0.3013 -0.3186
   17SAPS   C32 2163   2.579   2.747   3.322 -0.0417 -0.1005 -0.2018
   17SAPS   H2X 2164   2.535   2.847   3.299  2.1301  0.6828 -1.2768
   17SAPS   H2Y 2165   2.688   2.758   3.308  0.0274  1.7668  1.3399
   17SAPS   C23 2166   2.789   3.176   2.898 -0.1748 -0.0948  0.2996
   17SAPS   H3R 2167   2.788   3.246   2.812  1.2424  1.9984  1.9049
   17SAPS   H3S 2168   2.886   3.209   2.940  0.2522  0.5618 -1.1287
   17SAPS   C24 2169   2.690   3.206   3.001  0.0943 -0.3515  0.1895
   17SAPS   H4R 2170   2.590   3.179   2.960  1.0164 -0.9434 -1.7827
   17SAPS   H4S 2171   2.676   3.314   3.026  1.1386 -0.0086 -0.6275
   17SAPS   C25 2172   2.711   3.119   3.130 -0.2523 -0.4283 -0.3580
   17SAPS   H5R 2173   2.711   3.010   3.117 -1.2571 -0.6975  1.5585
   17SAPS   C26 2174   2.719   3.173   3.260  0.1516  0.5695  0.2942
   17SAPS   H6R 2175   2.767   3.110   3.336  0.2357 -0.0955 -0.2960
   17SAPS   C27 2176   2.711   3.323   3.299  0.4969  0.3203  0.9489
   17SAPS   H7R 2177   2.640   3.380   3.235  0.1935  1.3080  2.1406
   17SAPS   H7S 2178   2.810   3.372   3.289  0.5198  0.0871 -0.1422
   17SAPS   C28 2179   2.667   3.346   3.439  0.0591  0.3652  0.9459
   17SAPS   H8R 2180   2.557   3.351   3.443 -0.1300 -1.8947 -0.1719
   17SAPS   C29 2181   2.732   3.400   3.543  0.8663 -0.3372 -0.3491
   17SAPS   H9R 2182   2.668   3.406   3.632 -2.4195 -3.4158 -2.1987
   17SAPS  C210 2183   2.876   3.427   3.564 -0.5543 -0.2095  0.1481
   17SAPS  H10R 2184   2.934   3.396   3.474  2.1139 -0.2449  1.7842
   17SAPS  H10S 2185   2.909   3.367   3.651 -0.0744 -1.7221 -1.0249
   17SAPS  C211 2186   2.906   3.571   3.605  0.3991  0.6828  0.1435
   17SAPS  H11R 2187   2.842   3.646   3.557  0.4719  0.4001 -0.3974
   17SAPS  C212 2188   3.009   3.608   3.677 -0.0477 -0.1897 -0.0979
   17SAPS  H12R 2189   3.012   3.718   3.687 -0.1704 -0.1011 -0.9588
   17SAPS  C213 2190   3.109   3.522   3.747 -0.0367  0.2879 -0.6457
   17SAPS  H13R 2191   3.191   3.494   3.677  0.0348 -0.0047 -0.4445
   17SAPS  H13S 2192   3.063   3.427   3.781 -1.7465  1.6103  0.8776
   17SAPS  C214 2193   3.176   3.590   3.868 -0.2743 -0.5544  0.2621
   17SAPS  H14R 2194   3.275   3.632   3.844  0.2191 -2.3382 -1.0278
   17SAPS  C215 2195   3.133   3.628   3.982  0.3635  0.3525  0.0747
   17SAPS  H15R 2196   3.216   3.662   4.047  2.1330  0.7954 -2.2984
   17SAPS  C216 2197   2.998   3.618   4.045 -0.4102  0.0544 -0.2892
   17SAPS  H16R 2198   2.935   3.558   3.976 -1.1798  1.5215 -0.9196
   17SAPS  H16S 2199   2.958   3.721   4.056 -1.8587 -0.5029 -0.1587
   17SAPS  C217 2200   3.006   3.568   4.190 -0.3608 -0.1732 -0.3142
   17SAPS  H17R 2201   3.062   3.472   4.188 -1.2642 -0.7545  0.7163
   17SAPS  H17S 2202   2.903   3.539   4.221 -0.4253 -0.9646 -1.2315
   17SAPS  C218 2203   3.056   3.676   4.297 -0.1769  0.4653  0.0957
   17SAPS  H18R 2204   2.975   3.751   4.290 -1.4503 -0.9114 -0.4340
   17SAPS  H18S 2205   3.152   3.722   4.266  1.2616 -1.3832  1.5331
   17SAPS  C219 2206   3.054   3.621   4.434  0.1878 -1.0954 -0.9511
   17SAPS  H19R 2207   3.082   3.701   4.506  2.5864 -3.8550  1.4381
   17SAPS  H19S 2208   3.125   3.536   4.438  1.6907  0.1757  1.6556
   17SAPS  C220 2209   2.917   3.573   4.480  0.5852 -0.4625  0.4094
   17SAPS  H20R 2210   2.860   3.667   4.498 -3.6053 -2.1771 -2.3617
   17SAPS  H20S 2211   2.933   3.515   4.573  2.4469 -0.1718  0.2981
   17SAPS  H20T 2212   2.853   3.523   4.404  0.8770  0.4032 -0.4198
   17SAPS   C33 2213   2.554   2.681   3.456  0.0543 -0.5737 -0.4096
   17SAPS   H3X 2214   2.581   2.573   3.456 -2.2975 -1.2060 -0.8510
   17SAPS   H3Y 2215   2.445   2.675   3.474 -0.2774  3.1161 -0.4295
   17SAPS   C34 2216   2.614   2.749   3.579  0.7255  1.0824  0.6431
   17SAPS   H4X 2217   2.581   2.855   3.580  0.0543  0.8906 -0.2964
   17SAPS   H4Y 2218   2.724   2.754   3.589  0.8007 -1.5630  1.8649
   17SAPS   C35 2219   2.558   2.688   3.717 -0.1441  0.1763 -0.7772
   17SAPS   H5X 2220   2.573   2.579   3.707 -1.7918 -0.0102 -1.7590
   17SAPS   H5Y 2221   2.452   2.721   3.722  0.5503  2.6700 -1.0101
   17SAPS   C36 2222   2.637   2.757   3.829  0.0982  0.1507 -0.4730
   17SAPS   H6X 2223   2.622   2.866   3.815  1.7410  0.4555 -0.0351
   17SAPS   H6Y 2224   2.744   2.733   3.812 -0.5536 -0.8176 -3.9941
   17SAPS   C37 2225   2.594   2.714   3.973  0.3821  0.1099  0.2161
   17SAPS   H7X 2226   2.598   2.603   3.972  0.6039  0.1098 -1.1623
   17SAPS   H7Y 2227   2.490   2.742   3.996  0.7825  1.0582  0.9261
   17SAPS   C38 2228   2.706   2.767   4.067 -0.1879 -0.2310 -0.5938
   17SAPS   H8X 2229   2.731   2.875   4.059  0.5065 -0.2950  0.5578
   17SAPS   H8Y 2230   2.805   2.729   4.033  0.8988  1.4207  0.5523
   17SAPS   C39 2231   2.701   2.730   4.219  0.2919  0.4129  0.4177
   17SAPS   H9X 2232   2.602   2.764   4.256  0.8013  0.2930  1.9767
   17SAPS   H9Y 2233   2.770   2.793   4.279 -1.4452  0.3314  2.6632
   17SAPS  C310 2234   2.735   2.580   4.253 -0.9469  0.0769  0.4625
   17SAPS  H10X 2235   2.839   2.559   4.219 -0.6006  1.5440  0.5739
   17SAPS  H10Y 2236   2.676   2.502   4.201  2.3874 -1.8064 -0.8405
   17SAPS  C311 2237   2.717   2.550   4.404  0.0335  0.3610  0.5224
   17SAPS  H11X 2238   2.607   2.553   4.423 -0.3897 -0.7707 -1.5087
   17SAPS  H11Y 2239   2.772   2.632   4.456  0.8951  0.7092 -0.8948
   17SAPS  C312 2240   2.777   2.416   4.449 -0.5996  0.0119  0.0304
   17SAPS  H12X 2241   2.868   2.398   4.386 -0.4635 -1.3854  0.5848
   17SAPS  H12Y 2242   2.714   2.328   4.426  2.6891 -2.3964 -0.6204
   17SAPS  C313 2243   2.819   2.423   4.585  0.5467 -0.1426  0.7182
   17SAPS  H13X 2244   2.731   2.436   4.652 -0.9063 -2.9984 -0.4722
   17SAPS  H13Y 2245   2.897   2.500   4.606 -1.1349  1.4247  1.4363
   17SAPS  C314 2246   2.872   2.286   4.637 -0.3768 -0.0351  0.8379
   17SAPS  H14X 2247   2.949   2.254   4.564  1.0913  1.1940  1.7974
   17SAPS  H14Y 2248   2.793   2.208   4.644  0.1877 -0.4745  3.0731
   17SAPS  C315 2249   2.941   2.299   4.779  0.2758 -0.3966 -0.1999
   17SAPS  H15X 2250   2.878   2.364   4.844 -0.0349  1.0244 -1.8532
   17SAPS  H15Y 2251   3.039   2.349   4.764  2.1902 -3.4842  1.1152
   17SAPS  C316 2252   2.964   2.178   4.854  0.2941  0.4385  0.3391
   17SAPS  H16X 2253   3.034   2.113   4.797  0.0358  3.2887 -3.6693
   17SAPS  H16Y 2254   2.882   2.111   4.887  1.1104 -0.6452  0.2342
   17SAPS  C317 2255   3.043   2.208   4.980  0.0956  0.0852 -0.2694
   17SAPS  H17X 2256   2.995   2.297   5.027  1.7822  1.1907 -0.5673
   17SAPS  H17Y 2257   3.147   2.239   4.955 -0.3007  2.2680  0.5835
   17SAPS  C318 2258   3.055   2.085   5.078  0.7973 -0.7723  0.4638
   17SAPS  H18X 2259   3.097   1.999   5.022  2.3518  0.7756 -0.8903
   17SAPS  H18Y 2260   2.957   2.068   5.128  1.0092  0.1128  1.2221
   17SAPS  H18Z 2261   3.122   2.127   5.156  2.2371 -1.7049 -0.2365
   18SAPS     N 2262   0.858   0.994   2.397  0.5632 -0.1708  0.1438
   18SAPS   HN1 2263   0.931   1.067   2.384 -1.2418  2.1498  2.0655
   18SAPS   HN2 2264   0.885   0.933   2.476  0.5079  0.7422  0.8844
   18SAPS   HN3 2265   0.837   0.945   2.308  0.4627  0.4174 -0.1668
   18SAPS   C12 2266   0.726   1.059   2.437  0.1176  1.0516 -0.4946
   18SAPS  H12A 2267   0.747   1.160   2.469 -0.8469  1.7318 -1.9265
   18SAPS   C13 2268   0.618   1.059   2.326  1.1392  0.3185 -0.5144
   18SAPS  O13A 2269   0.636   0.991   2.220 -0.3159  0.3909 -0.0544
   18SAPS  O13B 2270   0.519   1.137   2.344  0.4072 -0.1667 -0.1991
   18SAPS   C11 2271   0.665   0.969   2.555 -0.2048 -0.6538 -0.0056
   18SAPS  H11A 2272   0.667   0.865   2.514  0.9970 -0.8761  0.5847
   18SAPS  H11B 2273   0.559   0.992   2.577  0.3787  0.3580  1.8927
   18SAPS     P 2274   0.712   1.091   2.777  0.2266 -0.0150 -0.2138
   18SAPS   O13 2275   0.840   1.143   2.830 -0.7894  0.6895  0.1025
   18SAPS   O14 2276   0.614   1.190   2.735  0.0602 -0.6434  0.7818
   18SAPS   O12 2277   0.742   0.980   2.671 -0.3421 -0.7598  0.3919
   18SAPS   O11 2278   0.654   1.019   2.903 -0.1124  0.1187  0.3095
   18SAPS    C1 2279   0.527   0.953   2.892  0.7774 -0.6273  0.9451
   18SAPS    HA 2280   0.499   0.934   2.787 -0.2943 -1.0462  1.2898
   18SAPS    HB 2281   0.535   0.851   2.934  0.2590 -1.1494 -0.1904
   18SAPS    C2 2282   0.403   1.022   2.968 -0.1846  0.4484  0.7865
   18SAPS    HS 2283   0.384   1.116   2.913 -1.0091 -1.5100 -2.5611
   18SAPS   O21 2284   0.443   1.044   3.104 -0.6156  0.3965 -0.4789
   18SAPS   C21 2285   0.466   1.166   3.140  0.5618  0.2802  0.2811
   18SAPS   O22 2286   0.460   1.265   3.066  0.1443 -0.0856  0.3181
   18SAPS   C22 2287   0.494   1.171   3.288 -0.0030 -0.6855  0.3763
   18SAPS   H2R 2288   0.584   1.113   3.316  2.2722  2.5784  0.3352
   18SAPS   H2S 2289   0.503   1.278   3.316 -0.6337 -0.9895  1.8429
   18SAPS    C3 2290   0.270   0.932   2.969 -0.1962 -0.3451  0.6599
   18SAPS    HX 2291   0.305   0.845   3.027  0.3293  0.1224  1.0560
   18SAPS    HY 2292   0.242   0.906   2.865 -0.7478  1.9212  0.1665
   18SAPS   O31 2293   0.159   1.001   3.040  0.0142  1.0669 -0.0023
   18SAPS   C31 2294   0.102   1.097   2.973  0.5036 -0.5622 -0.5191
   18SAPS   O32 2295   0.128   1.141   2.866 -0.5942 -0.3482  0.7451
   18SAPS   C32 2296   0.001   1.165   3.076 -1.3351 -0.4213  1.0160
   18SAPS   H2X 2297  -0.027   1.091   3.153  1.1052 -2.5220  0.0289
   18SAPS   H2Y 2298  -0.091   1.188   3.018  0.2190 -0.4055 -1.6047
   18SAPS   C23 2299   0.384   1.105   3.372 -0.2051 -0.2759  0.2970
   18SAPS   H3R 2300   0.420   1.000   3.380 -0.6458 -0.6052 -1.5880
   18SAPS   H3S 2301   0.288   1.112   3.316  0.0514  3.0562  0.0686
   18SAPS   C24 2302   0.360   1.175   3.514 -0.4590  0.7433  0.6432
   18SAPS   H4R 2303   0.258   1.136   3.536 -0.5662 -0.4549 -1.6045
   18SAPS   H4S 2304   0.343   1.284   3.499  0.8738  0.6706 -2.0814
   18SAPS   C25 2305   0.465   1.153   3.617 -0.0348  0.0280  0.1386
   18SAPS   H5R 2306   0.566   1.187   3.590  0.3387  1.3148  2.8179
   18SAPS   C26 2307   0.446   1.127   3.746  0.5648 -0.8191  0.1142
   18SAPS   H6R 2308   0.535   1.125   3.812  0.5731  1.2354  0.2330
   18SAPS   C27 2309   0.313   1.107   3.808  0.3086 -0.5494  0.5884
   18SAPS   H7R 2310   0.324   1.051   3.903  1.9273  0.9624  1.3313
   18SAPS   H7S 2311   0.244   1.048   3.743  1.0873 -0.1487 -0.6332
   18SAPS   C28 2312   0.257   1.242   3.844  0.3934  0.0787  0.0389
   18SAPS   H8R 2313   0.220   1.299   3.758  0.5103 -0.0591 -0.1026
   18SAPS   C29 2314   0.249   1.300   3.964  0.0391  0.0441  0.9962
   18SAPS   H9R 2315   0.197   1.396   3.976 -0.3140 -0.3102  2.4262
   18SAPS  C210 2316   0.312   1.248   4.091 -0.2253 -0.2439  0.9268
   18SAPS  H10R 2317   0.338   1.140   4.088 -2.5024 -0.9466  3.0693
   18SAPS  H10S 2318   0.228   1.251   4.164  0.6875 -0.2478  2.0111
   18SAPS  C211 2319   0.422   1.338   4.132 -0.6673  0.3853  0.3019
   18SAPS  H11R 2320   0.496   1.368   4.057 -0.0776  1.2892  1.2137
   18SAPS  C212 2321   0.439   1.399   4.256 -0.3158  0.0871  0.8994
   18SAPS  H12R 2322   0.515   1.478   4.260  1.4686 -1.3288 -1.9479
   18SAPS  C213 2323   0.355   1.372   4.373 -0.2708  0.1007 -0.7613
   18SAPS  H13R 2324   0.407   1.415   4.461 -2.8027 -1.3514  1.6189
   18SAPS  H13S 2325   0.364   1.262   4.389  0.9083  0.2727 -0.0985
   18SAPS  C214 2326   0.206   1.414   4.370  0.0198  0.2934  0.5616
   18SAPS  H14R 2327   0.172   1.424   4.266  1.2651 -2.0502 -0.1472
   18SAPS  C215 2328   0.131   1.443   4.478  0.2103  0.0440 -0.4651
   18SAPS  H15R 2329   0.027   1.475   4.464 -0.4680 -2.0488 -0.5334
   18SAPS  C216 2330   0.177   1.453   4.623 -0.2797  1.0252 -0.0517
   18SAPS  H16R 2331   0.106   1.505   4.691  0.6756  1.7234  0.4333
   18SAPS  H16S 2332   0.274   1.506   4.630  0.9087 -1.1984  1.2810
   18SAPS  C217 2333   0.202   1.323   4.708 -0.0787  0.5928 -0.3455
   18SAPS  H17R 2334   0.252   1.350   4.804 -0.7236  2.7658 -0.5537
   18SAPS  H17S 2335   0.262   1.242   4.662  0.0768  0.8368 -0.5691
   18SAPS  C218 2336   0.079   1.251   4.751 -0.8530 -0.2369 -0.0355
   18SAPS  H18R 2337   0.041   1.193   4.665 -1.8205 -1.0752  0.9295
   18SAPS  H18S 2338  -0.002   1.321   4.782 -1.3583 -0.5817 -0.5527
   18SAPS  C219 2339   0.101   1.151   4.866  0.4413 -0.0655 -0.2762
   18SAPS  H19R 2340   0.123   1.204   4.961 -0.1944 -0.0051 -0.1618
   18SAPS  H19S 2341   0.195   1.095   4.844  0.3012  0.1762 -1.5268
   18SAPS  C220 2342  -0.003   1.045   4.881 -0.4628  0.1410  0.2910
   18SAPS  H20R 2343   0.036   0.970   4.953 -1.5656 -2.1757 -1.4108
   18SAPS  H20S 2344  -0.021   0.990   4.786  1.0099 -0.6293  0.4300
   18SAPS  H20T 2345  -0.102   1.085   4.912 -0.7580 -0.7891  0.5978
   18SAPS   C33 2346   0.064   1.298   3.138 -0.3552  0.4457  0.0367
   18SAPS   H3X 2347   0.089   1.367   3.054 -0.8704 -1.5134 -1.7916
   18SAPS   H3Y 2348   0.153   1.269   3.197 -0.3000  0.0472 -0.2374
   18SAPS   C34 2349  -0.029   1.372   3.237  0.1369 -0.1329  0.4787
   18SAPS   H4X 2350  -0.132   1.387   3.197  0.1466 -1.8956 -0.2955
   18SAPS   H4Y 2351   0.028   1.463   3.265 -0.6182  0.1262  1.2049
   18SAPS   C35 2352  -0.044   1.296   3.372  0.3201 -0.4153  1.0757
   18SAPS   H5X 2353   0.056   1.288   3.419  0.3337  0.3790  1.2011
   18SAPS   H5Y 2354  -0.096   1.200   3.352  0.7930 -0.3319 -0.6793
   18SAPS   C36 2355  -0.123   1.384   3.485 -1.0831  0.4972  0.7827
   18SAPS   H6X 2356  -0.224   1.408   3.447 -0.4866  1.0430 -0.5174
   18SAPS   H6Y 2357  -0.064   1.477   3.497 -1.0000  0.4535  0.7216
   18SAPS   C37 2358  -0.116   1.304   3.618 -0.3876 -0.7058 -0.0538
   18SAPS   H7X 2359  -0.017   1.291   3.666 -0.1082  0.4837 -0.2705
   18SAPS   H7Y 2360  -0.151   1.201   3.596  0.9163 -1.0201 -0.7543
   18SAPS   C38 2361  -0.198   1.366   3.730 -0.2969  0.4465 -0.1689
   18SAPS   H8X 2362  -0.298   1.374   3.682 -1.2512 -0.1567  1.6086
   18SAPS   H8Y 2363  -0.165   1.467   3.762  2.9477 -0.9269  1.2746
   18SAPS   C39 2364  -0.221   1.275   3.853 -0.1912  0.5358 -0.3202
   18SAPS   H9X 2365  -0.269   1.178   3.829  0.3564 -0.0780  0.9562
   18SAPS   H9Y 2366  -0.297   1.329   3.913 -0.9719 -0.4160 -0.4239
   18SAPS  C310 2367  -0.093   1.242   3.935  0.4261 -0.1967  0.0810
   18SAPS  H10X 2368  -0.032   1.335   3.944 -0.3295  0.4076 -0.8303
   18SAPS  H10Y 2369  -0.026   1.185   3.867  0.0429  1.4263 -1.7652
   18SAPS  C311 2370  -0.115   1.182   4.073  0.0314 -0.4819  0.1879
   18SAPS  H11X 2371  -0.022   1.129   4.104  0.3246  1.6509  3.3693
   18SAPS  H11Y 2372  -0.194   1.106   4.055  0.1886 -0.0160 -3.0962
   18SAPS  C312 2373  -0.148   1.286   4.172  0.0843  0.3696 -0.3769
   18SAPS  H12X 2374  -0.223   1.360   4.138 -1.2093 -1.6721 -2.1532
   18SAPS  H12Y 2375  -0.056   1.348   4.186  1.8705 -2.1564 -0.2549
   18SAPS  C313 2376  -0.178   1.240   4.315 -0.2602  0.2329 -0.1682
   18SAPS  H13X 2377  -0.084   1.209   4.365  0.2581 -0.8147 -1.7352
   18SAPS  H13Y 2378  -0.248   1.155   4.331  0.0767  0.0789  0.5051
   18SAPS  C314 2379  -0.227   1.349   4.413 -0.0788 -0.2003  0.2836
   18SAPS  H14X 2380  -0.327   1.380   4.374  0.4694  0.7425 -0.4006
   18SAPS  H14Y 2381  -0.162   1.438   4.406  0.4026 -0.5502  0.2337
   18SAPS  C315 2382  -0.250   1.314   4.561  0.0650 -0.1194  0.3118
   18SAPS  H15X 2383  -0.285   1.407   4.611 -0.0665  0.3251 -0.5739
   18SAPS  H15Y 2384  -0.155   1.275   4.603 -0.5842 -4.4713 -1.7091
   18SAPS  C316 2385  -0.363   1.204   4.566  0.4031  0.9948 -0.2552
   18SAPS  H16X 2386  -0.324   1.116   4.510 -1.7098 -0.3586  0.2970
   18SAPS  H16Y 2387  -0.452   1.245   4.515 -0.3507 -0.4050 -0.1296
   18SAPS  C317 2388  -0.409   1.166   4.707  0.2831  0.0806  0.3768
   18SAPS  H17X 2389  -0.458   1.252   4.758 -0.0366 -0.4578  1.0071
   18SAPS  H17Y 2390  -0.314   1.143   4.759  1.9239  1.5180 -1.8222
   18SAPS  C318 2391  -0.508   1.045   4.708  0.0339  0.0683  0.3160
   18SAPS  H18X 2392  -0.447   0.954   4.689  2.0626  1.6462 -1.0842
   18SAPS  H18Y 2393  -0.590   1.052   4.634 -1.9660 -3.9195  1.8164
   18SAPS  H18Z 2394  -0.560   1.032   4.806 -0.9969  0.2431 -0.2022
   19SAPS     N 2395   6.240   6.011   2.391 -0.9541 -0.0715 -0.3618
   19SAPS   HN1 2396   6.290   5.927   2.426 -5.0962 -1.4309  3.2468
   19SAPS   HN2 2397   6.268   6.090   2.452 -0.8379 -0.2140 -0.2283
   19SAPS   HN3 2398   6.136   5.999   2.389 -0.8330 -1.4018  0.2789
   19SAPS   C12 2399   6.278   6.046   2.260 -0.4019 -0.7595  0.5855
   19SAPS  H12A 2400   6.382   6.078   2.262 -1.5581  3.6944 -0.4507
   19SAPS   C13 2401   6.258   5.926   2.159 -0.4394 -0.4236 -0.4029
   19SAPS  O13A 2402   6.206   5.819   2.195 -0.6907  0.3222 -0.4182
   19SAPS  O13B 2403   6.306   5.952   2.044  0.1123 -0.1034 -0.2573
   19SAPS   C11 2404   6.188   6.174   2.225 -0.3231 -0.0741 -0.7498
   19SAPS  H11A 2405   6.087   6.134   2.204  0.3287 -1.0182 -2.2396
   19SAPS  H11B 2406   6.219   6.216   2.127 -1.3673 -0.2312 -1.1592
   19SAPS     P 2407   6.065   6.386   2.334  0.1401  0.7778  0.1870
   19SAPS   O13 2408   6.104   6.494   2.241  0.1896  0.5120  0.9960
   19SAPS   O14 2409   5.928   6.331   2.315  0.0981 -0.0836  0.4880
   19SAPS   O12 2410   6.175   6.271   2.331 -1.0892  0.0834 -0.8980
   19SAPS   O11 2411   6.066   6.438   2.478 -0.4439 -0.5425 -0.2823
   19SAPS    C1 2412   6.177   6.503   2.531 -0.3103 -0.2370 -0.9065
   19SAPS    HA 2413   6.260   6.429   2.526  1.2630  1.2359  1.3948
   19SAPS    HB 2414   6.216   6.589   2.474  0.0460 -0.6645 -1.3174
   19SAPS    C2 2415   6.154   6.544   2.679  0.7904 -0.3051 -0.0997
   19SAPS    HS 2416   6.248   6.583   2.723 -0.6333 -1.0309  3.9826
   19SAPS   O21 2417   6.099   6.442   2.755  0.4641  0.4223  0.0250
   19SAPS   C21 2418   6.185   6.352   2.798  0.2361 -0.2083  0.7332
   19SAPS   O22 2419   6.295   6.328   2.761  0.0175  0.8850 -0.3129
   19SAPS   C22 2420   6.117   6.297   2.927  0.2126 -0.2789  0.4302
   19SAPS   H2R 2421   6.044   6.373   2.963 -0.1231 -0.3191 -0.1565
   19SAPS   H2S 2422   6.071   6.200   2.900  0.3600  0.4295 -2.8462
   19SAPS    C3 2423   6.054   6.670   2.686 -0.4292  0.2702  0.2249
   19SAPS    HX 2424   5.951   6.629   2.678 -0.9219  1.5445 -0.2085
   19SAPS    HY 2425   6.072   6.736   2.598  2.4252 -1.5780 -0.7206
   19SAPS   O31 2426   6.083   6.743   2.802 -0.3331 -0.2660 -0.5981
   19SAPS   C31 2427   6.008   6.849   2.824  0.4362 -0.1805 -0.3173
   19SAPS   O32 2428   5.930   6.900   2.744  0.2667  0.5809 -0.4194
   19SAPS   C32 2429   6.040   6.912   2.958 -0.2702  0.2261 -0.4386
   19SAPS   H2X 2430   6.074   7.017   2.943 -1.7212  0.4301 -2.9061
   19SAPS   H2Y 2431   6.127   6.851   2.991 -1.4366 -1.2272  0.0224
   19SAPS   C23 2432   6.212   6.272   3.043  0.2764  0.0330  0.5626
   19SAPS   H3R 2433   6.270   6.365   3.063  1.5679 -0.8249  0.9228
   19SAPS   H3S 2434   6.290   6.196   3.021 -0.0777  0.2101 -1.4937
   19SAPS   C24 2435   6.139   6.233   3.175  0.2078  0.5272 -1.1338
   19SAPS   H4R 2436   6.058   6.159   3.157  1.8706 -2.0764  1.3739
   19SAPS   H4S 2437   6.087   6.325   3.211  0.0193 -0.0409  0.0781
   19SAPS   C25 2438   6.225   6.170   3.280  0.3667 -0.7123  0.3792
   19SAPS   H5R 2439   6.289   6.087   3.247  0.1983 -1.9340  2.8668
   19SAPS   C26 2440   6.238   6.207   3.406 -0.4520  0.1284 -0.1559
   19SAPS   H6R 2441   6.307   6.153   3.473  0.4819 -0.0841 -1.2611
   19SAPS   C27 2442   6.166   6.322   3.472  0.7329  0.0163  0.2664
   19SAPS   H7R 2443   6.180   6.317   3.582 -1.8423  2.1378  0.8031
   19SAPS   H7S 2444   6.058   6.316   3.447  0.9629  3.4576 -2.2971
   19SAPS   C28 2445   6.204   6.458   3.422 -0.0643 -0.6481 -0.0678
   19SAPS   H8R 2446   6.224   6.470   3.314 -0.6709 -0.0681 -0.1293
   19SAPS   C29 2447   6.221   6.570   3.499  0.4438 -0.0099  0.1977
   19SAPS   H9R 2448   6.255   6.658   3.442 -1.8984  0.3913 -0.6973
   19SAPS  C210 2449   6.187   6.587   3.645  0.3804  0.2272 -0.4779
   19SAPS  H10R 2450   6.216   6.505   3.713 -0.4841  0.1474 -0.1960
   19SAPS  H10S 2451   6.077   6.592   3.658  0.4773  1.3130  0.0179
   19SAPS  C211 2452   6.238   6.720   3.695  0.1650  0.3554 -0.1003
   19SAPS  H11R 2453   6.266   6.792   3.616  2.1779  0.1414  0.3809
   19SAPS  C212 2454   6.264   6.757   3.823 -0.5725 -0.2687  0.2091
   19SAPS  H12R 2455   6.310   6.854   3.849 -0.5062 -0.7320  1.9210
   19SAPS  C213 2456   6.229   6.677   3.944 -0.2007  0.2177 -0.2480
   19SAPS  H13R 2457   6.160   6.592   3.926 -1.6923  0.7638  2.3606
   19SAPS  H13S 2458   6.168   6.736   4.015 -0.7720 -2.3970  1.6053
   19SAPS  C214 2459   6.344   6.611   4.025 -0.0205  0.4569  0.5298
   19SAPS  H14R 2460   6.434   6.673   4.017  0.7898 -0.8499 -0.9168
   19SAPS  C215 2461   6.346   6.498   4.095  0.3129  0.2527 -0.7282
   19SAPS  H15R 2462   6.438   6.465   4.145 -0.4509 -1.0659 -0.1497
   19SAPS  C216 2463   6.233   6.402   4.119 -0.5706 -0.1473  0.1589
   19SAPS  H16R 2464   6.147   6.427   4.054 -2.7775  0.2240  3.0278
   19SAPS  H16S 2465   6.201   6.430   4.222 -1.0580  0.3259 -0.1194
   19SAPS  C217 2466   6.287   6.259   4.109 -0.5588  1.0573 -0.5240
   19SAPS  H17R 2467   6.211   6.188   4.147  1.0062  0.9611  2.8278
   19SAPS  H17S 2468   6.370   6.237   4.180 -1.2884  0.8537  0.2850
   19SAPS  C218 2469   6.323   6.232   3.959 -1.1334 -0.2135  0.0196
   19SAPS  H18R 2470   6.427   6.269   3.949 -0.0740 -2.7640  0.7626
   19SAPS  H18S 2471   6.265   6.296   3.889 -0.4010  0.2078 -0.2221
   19SAPS  C219 2472   6.325   6.082   3.929  0.1592  1.0706  0.1893
   19SAPS  H19R 2473   6.237   6.033   3.977  1.8368 -1.4576  0.8136
   19SAPS  H19S 2474   6.410   6.034   3.981 -0.0221  0.2195 -0.2899
   19SAPS  C220 2475   6.332   6.063   3.777 -0.2523  0.5555 -0.1431
   19SAPS  H20R 2476   6.234   6.026   3.740  0.6082 -0.7880 -1.1476
   19SAPS  H20S 2477   6.400   5.980   3.750  0.2536  0.2001  1.9968
   19SAPS  H20T 2478   6.371   6.152   3.723  1.4966 -0.3765 -0.4600
   19SAPS   C33 2479   5.923   6.906   3.054 -0.2535 -0.3253  0.0791
   19SAPS   H3X 2480   5.853   6.821   3.037 -0.3236 -0.3068  0.2680
   19SAPS   H3Y 2481   5.862   6.997   3.034 -2.2209 -1.8927 -1.4684
   19SAPS   C34 2482   5.972   6.900   3.203 -0.3555  0.0383  0.3234
   19SAPS   H4X 2483   6.045   6.984   3.213 -0.3828  0.0178  0.6929
   19SAPS   H4Y 2484   6.024   6.804   3.221 -0.6839 -0.6026 -1.8797
   19SAPS   C35 2485   5.856   6.918   3.298 -0.1166  0.7524  0.2896
   19SAPS   H5X 2486   5.783   6.836   3.276  0.4631 -0.1429  1.5584
   19SAPS   H5Y 2487   5.808   7.015   3.275  0.8138  1.7977  2.4612
   19SAPS   C36 2488   5.886   6.903   3.441  0.3533 -0.3741  0.2121
   19SAPS   H6X 2489   5.938   6.995   3.474  1.6481 -0.5494 -1.2050
   19SAPS   H6Y 2490   5.948   6.815   3.466 -0.5898 -0.5252  2.2150
   19SAPS   C37 2491   5.760   6.871   3.531 -0.5445  0.3049  0.4572
   19SAPS   H7X 2492   5.720   6.780   3.481 -0.4803  0.7850 -0.5002
   19SAPS   H7Y 2493   5.680   6.947   3.526 -0.7375  0.0717 -0.0285
   19SAPS   C38 2494   5.802   6.839   3.677 -0.4606 -0.3703 -0.0502
   19SAPS   H8X 2495   5.887   6.772   3.652 -1.2955 -0.8524 -1.7605
   19SAPS   H8Y 2496   5.729   6.783   3.739 -0.7377 -0.0471 -0.0862
   19SAPS   C39 2497   5.852   6.967   3.755  0.9899  0.0883 -0.6670
   19SAPS   H9X 2498   5.765   7.033   3.740  2.0855  1.1892 -2.5577
   19SAPS   H9Y 2499   5.940   7.007   3.701  1.0134  0.3211 -0.4560
   19SAPS  C310 2500   5.883   6.936   3.903  0.1863  0.3468 -0.0441
   19SAPS  H10X 2501   5.975   6.876   3.889 -0.4979 -0.7279 -0.0385
   19SAPS  H10Y 2502   5.803   6.880   3.956  1.2717 -2.7320 -1.4457
   19SAPS  C311 2503   5.901   7.065   3.986 -0.3413  0.2398  0.0153
   19SAPS  H11X 2504   5.811   7.131   3.988 -1.3087 -1.0414 -0.2344
   19SAPS  H11Y 2505   5.973   7.134   3.936 -0.4045  0.6694  0.5128
   19SAPS  C312 2506   5.956   7.038   4.131  0.0299  0.2197  1.0561
   19SAPS  H12X 2507   6.062   7.007   4.117  0.3867  1.8917 -0.3957
   19SAPS  H12Y 2508   5.897   6.959   4.181  0.0393 -1.7851 -1.8156
   19SAPS  C313 2509   5.963   7.173   4.205  0.4939  0.3849 -0.6852
   19SAPS  H13X 2510   5.860   7.215   4.204  0.0851 -0.4123  1.5823
   19SAPS  H13Y 2511   6.032   7.232   4.140  1.2276 -0.8181 -1.0165
   19SAPS  C314 2512   6.018   7.162   4.350  0.6741  0.2025  0.5114
   19SAPS  H14X 2513   6.128   7.166   4.335  0.5366 -0.3073 -0.7142
   19SAPS  H14Y 2514   5.989   7.070   4.405  0.7958  0.5264  1.1271
   19SAPS  C315 2515   5.973   7.286   4.429 -0.2857 -0.9903  0.0185
   19SAPS  H15X 2516   5.865   7.280   4.453 -0.1190 -0.5105  0.9670
   19SAPS  H15Y 2517   5.981   7.366   4.352 -0.8810 -4.4922 -4.0346
   19SAPS  C316 2518   6.068   7.311   4.550 -0.2571  0.5334  0.0034
   19SAPS  H16X 2519   6.161   7.354   4.506  1.1095 -1.9241  0.3127
   19SAPS  H16Y 2520   6.098   7.213   4.592 -1.0658 -0.0279 -0.6869
   19SAPS  C317 2521   6.019   7.394   4.664  0.5357  0.4861  0.2236
   19SAPS  H17X 2522   5.927   7.343   4.699  0.8428 -1.3059 -1.4243
   19SAPS  H17Y 2523   5.993   7.498   4.635  0.1450  0.9566  2.1556
   19SAPS  C318 2524   6.121   7.405   4.775 -0.1089 -0.3057 -0.8124
   19SAPS  H18X 2525   6.213   7.462   4.750 -1.5279  3.2236  1.3149
   19SAPS  H18Y 2526   6.149   7.306   4.817  0.1056 -0.1359 -0.5580
   19SAPS  H18Z 2527   6.074   7.457   4.861  0.6764 -0.5820 -0.2060
   20SAPS     N 2528   0.413   5.228   2.312  0.3033 -0.1120 -0.5201
   20SAPS   HN1 2529   0.352   5.149   2.282 -0.7372  1.3728 -2.6169
   20SAPS   HN2 2530   0.368   5.316   2.281 -1.1706 -0.0670  1.5216
   20SAPS   HN3 2531   0.506   5.223   2.266  0.4885  2.6225 -0.5948
   20SAPS   C12 2532   0.416   5.225   2.463  0.0989  0.0690 -0.1958
   20SAPS  H12A 2533   0.457   5.132   2.500 -2.3985  0.4009  4.1205
   20SAPS   C13 2534   0.505   5.341   2.521 -0.5253  0.4393  0.0509
   20SAPS  O13A 2535   0.572   5.414   2.440 -0.2663 -0.7676 -0.2426
   20SAPS  O13B 2536   0.512   5.356   2.643 -0.0159 -0.3554  0.2111
   20SAPS   C11 2537   0.276   5.232   2.532  0.0495  0.0691  0.1425
   20SAPS  H11A 2538   0.221   5.322   2.499 -3.4547 -2.2974 -1.0399
   20SAPS  H11B 2539   0.304   5.230   2.639 -0.1254  1.3499  0.2200
   20SAPS     P 2540   0.212   4.978   2.579 -0.3455 -0.1610 -0.5022
   20SAPS   O13 2541   0.092   4.899   2.589  0.2202  0.2948  0.4938
   20SAPS   O14 2542   0.313   4.912   2.496 -0.7449 -0.7026  0.2433
   20SAPS   O12 2543   0.187   5.118   2.506  0.8756  0.2465  0.3152
   20SAPS   O11 2544   0.269   5.010   2.730 -0.1257  0.0153  0.7045
   20SAPS    C1 2545   0.154   5.045   2.817 -0.4625 -0.1781  0.1222
   20SAPS    HA 2546   0.094   5.123   2.765  1.2842  0.3524 -1.2098
   20SAPS    HB 2547   0.085   4.960   2.838 -0.6952 -0.2860 -1.0128
   20SAPS    C2 2548   0.206   5.099   2.951  0.4534  0.2979 -0.1157
   20SAPS    HS 2549   0.258   5.193   2.923  0.5284  0.5731  0.9186
   20SAPS   O21 2550   0.297   5.006   3.018 -0.1428  0.3647 -0.5227
   20SAPS   C21 2551   0.412   5.059   3.054 -0.3357 -0.6746 -0.2783
   20SAPS   O22 2552   0.442   5.175   3.030  0.0062  0.5819 -0.4219
   20SAPS   C22 2553   0.495   4.947   3.108  0.1449  0.2224  0.7208
   20SAPS   H2R 2554   0.485   4.863   3.036 -1.1295  2.7450 -2.2598
   20SAPS   H2S 2555   0.603   4.975   3.102  0.5014 -1.0879  0.5419
   20SAPS    C3 2556   0.075   5.132   3.037 -0.8290  1.0380 -0.1479
   20SAPS    HX 2557   0.025   5.034   3.058  0.5241  0.5190  0.8121
   20SAPS    HY 2558   0.012   5.197   2.972  0.4195  1.8053 -0.6191
   20SAPS   O31 2559   0.111   5.192   3.165  0.1706 -0.0141 -0.2600
   20SAPS   C31 2560   0.135   5.319   3.149  0.6594  0.0927  0.1556
   20SAPS   O32 2561   0.124   5.388   3.047  0.4631 -0.3640  0.2339
   20SAPS   C32 2562   0.160   5.372   3.292 -0.1298 -0.8443 -0.3753
   20SAPS   H2X 2563   0.269   5.356   3.302  0.2747  1.5551 -0.5256
   20SAPS   H2Y 2564   0.112   5.303   3.364  1.7387 -2.2454 -0.3997
   20SAPS   C23 2565   0.460   4.911   3.253  0.4012 -0.2754 -0.0793
   20SAPS   H3R 2566   0.517   4.820   3.282 -0.0479 -0.2801  0.8305
   20SAPS   H3S 2567   0.351   4.893   3.241  0.0212  2.3498 -1.3221
   20SAPS   C24 2568   0.478   5.024   3.357 -0.2905 -0.0916 -0.0876
   20SAPS   H4R 2569   0.426   5.118   3.328  0.1287  0.2034  0.0995
   20SAPS   H4S 2570   0.585   5.053   3.363 -0.0829 -0.9784  0.9429
   20SAPS   C25 2571   0.455   4.975   3.500 -0.1219 -0.1485  0.1357
   20SAPS   H5R 2572   0.532   4.911   3.546 -0.6649  0.3355  1.7856
   20SAPS   C26 2573   0.355   5.019   3.574  0.1521 -0.1269  0.4375
   20SAPS   H6R 2574   0.356   4.990   3.680 -0.9383 -1.1133  0.2021
   20SAPS   C27 2575   0.238   5.106   3.524 -0.2671 -0.5070  0.0543
   20SAPS   H7R 2576   0.236   5.103   3.413  0.8532 -0.7866  0.0360
   20SAPS   H7S 2577   0.248   5.214   3.549  2.3115 -0.6075 -0.2903
   20SAPS   C28 2578   0.108   5.070   3.591  0.2520  0.0197  0.8129
   20SAPS   H8R 2579   0.048   4.997   3.535  0.5374 -0.3154  0.9351
   20SAPS   C29 2580   0.060   5.123   3.711 -0.4601 -0.2603 -0.1588
   20SAPS   H9R 2581  -0.033   5.080   3.750 -1.1603  0.7126 -0.7296
   20SAPS  C210 2582   0.131   5.221   3.800 -0.6913 -0.0450  0.0417
   20SAPS  H10R 2583   0.096   5.316   3.755  0.5044 -0.1117 -1.1102
   20SAPS  H10S 2584   0.240   5.225   3.782 -0.9967  1.5805 -1.8258
   20SAPS  C211 2585   0.104   5.211   3.953  1.0900  0.1477  0.1611
   20SAPS  H11R 2586   0.161   5.131   4.002 -0.6790  0.2411  2.5127
   20SAPS  C212 2587   0.005   5.265   4.022  0.3728 -0.8994  0.5863
   20SAPS  H12R 2588   0.008   5.258   4.131  0.5289  1.5929  0.8026
   20SAPS  C213 2589  -0.111   5.352   3.971 -0.7339  0.4795  0.1913
   20SAPS  H13R 2590  -0.071   5.424   3.897 -1.3272  0.8591  0.2264
   20SAPS  H13S 2591  -0.142   5.427   4.048 -0.9492  1.2617 -0.6357
   20SAPS  C214 2592  -0.236   5.279   3.933 -0.0686  0.4689  0.5425
   20SAPS  H14R 2593  -0.271   5.203   4.005  1.2605 -0.5109  0.1934
   20SAPS  C215 2594  -0.291   5.275   3.810 -0.2752 -0.7498  0.7833
   20SAPS  H15R 2595  -0.382   5.219   3.787 -0.5358 -0.0688  0.1156
   20SAPS  C216 2596  -0.243   5.351   3.684 -0.3264 -0.5439  0.0099
   20SAPS  H16R 2597  -0.133   5.366   3.690 -0.5009  0.3489  1.3556
   20SAPS  H16S 2598  -0.279   5.455   3.693 -0.4021 -0.6683  1.1941
   20SAPS  C217 2599  -0.290   5.276   3.559  0.1997 -0.3020  0.4306
   20SAPS  H17R 2600  -0.400   5.259   3.550  0.1634 -0.3665  0.9456
   20SAPS  H17S 2601  -0.242   5.176   3.551  0.8154  0.1570 -2.5843
   20SAPS  C218 2602  -0.232   5.342   3.429  0.2707 -0.2890  0.2466
   20SAPS  H18R 2603  -0.122   5.338   3.449  1.1308  1.0326 -3.3815
   20SAPS  H18S 2604  -0.283   5.440   3.437  1.9473  0.5112  2.1980
   20SAPS  C219 2605  -0.265   5.266   3.298  0.0913 -0.3113  0.3585
   20SAPS  H19R 2606  -0.367   5.228   3.317  0.5853 -1.1756  1.3348
   20SAPS  H19S 2607  -0.215   5.168   3.285 -1.9117 -1.4182  0.5706
   20SAPS  C220 2608  -0.265   5.343   3.165 -0.5378  0.1875  0.4359
   20SAPS  H20R 2609  -0.165   5.387   3.143 -0.5876  0.1694  0.1653
   20SAPS  H20S 2610  -0.339   5.424   3.150 -0.5010 -0.0131 -0.9359
   20SAPS  H20T 2611  -0.288   5.264   3.091 -0.3025  0.4099  0.1212
   20SAPS   C33 2612   0.108   5.515   3.329  0.1764  0.4461 -0.1567
   20SAPS   H3X 2613   0.006   5.493   3.367 -0.1549 -1.1989 -1.8205
   20SAPS   H3Y 2614   0.100   5.579   3.239 -2.0385  1.0554  0.4088
   20SAPS   C34 2615   0.188   5.583   3.437  0.1052  0.0951 -0.2401
   20SAPS   H4X 2616   0.172   5.692   3.427 -1.7673 -0.0920  0.3978
   20SAPS   H4Y 2617   0.297   5.566   3.420  0.3555  0.7356  0.6691
   20SAPS   C35 2618   0.156   5.539   3.570 -0.3241  0.0181 -0.5842
   20SAPS   H5X 2619   0.172   5.429   3.582 -3.4360 -0.9478 -3.5178
   20SAPS   H5Y 2620   0.049   5.560   3.591 -0.5533 -0.5555 -1.1336
   20SAPS   C36 2621   0.246   5.609   3.678  0.8756  1.2571  0.2861
   20SAPS   H6X 2622   0.208   5.713   3.676 -1.5837  0.4898  2.1603
   20SAPS   H6Y 2623   0.349   5.611   3.635  0.9832  1.2971  0.5390
   20SAPS   C37 2624   0.251   5.536   3.813 -0.2184 -0.8002 -0.0577
   20SAPS   H7X 2625   0.296   5.434   3.809 -0.5205 -1.1427  2.7885
   20SAPS   H7Y 2626   0.144   5.518   3.836 -0.3057 -1.0875 -0.6586
   20SAPS   C38 2627   0.325   5.617   3.921 -0.2536 -0.1924 -0.4224
   20SAPS   H8X 2628   0.261   5.706   3.933  0.6278  0.5394 -0.9630
   20SAPS   H8Y 2629   0.424   5.639   3.874 -0.1735 -3.0580 -1.8223
   20SAPS   C39 2630   0.345   5.547   4.056  0.9927  0.0172  0.0859
   20SAPS   H9X 2631   0.424   5.590   4.122 -1.5539  0.1211  3.3757
   20SAPS   H9Y 2632   0.375   5.443   4.034 -0.8428 -0.2684 -1.2437
   20SAPS  C310 2633   0.207   5.547   4.133 -0.2948 -0.4307 -0.5402
   20SAPS  H10X 2634   0.133   5.505   4.063 -0.4158 -1.9715  0.4782
   20SAPS  H10Y 2635   0.187   5.656   4.140  2.0289  0.0787 -0.8315
   20SAPS  C311 2636   0.223   5.474   4.268  0.3131  0.0720  0.1798
   20SAPS  H11X 2637   0.312   5.516   4.320 -0.2729  1.1183  0.3683
   20SAPS  H11Y 2638   0.246   5.366   4.258  2.9023  0.3512  2.1630
   20SAPS  C312 2639   0.091   5.485   4.348 -0.3293  0.5700  0.3714
   20SAPS  H12X 2640   0.015   5.453   4.273  1.1424 -0.1479 -0.8547
   20SAPS  H12Y 2641   0.081   5.593   4.371  1.1307  0.4640  1.6409
   20SAPS  C313 2642   0.074   5.404   4.475 -0.3135 -0.0880  0.6599
   20SAPS  H13X 2643   0.113   5.471   4.555  1.1734 -0.1383  0.0074
   20SAPS  H13Y 2644   0.137   5.314   4.454  0.3072  0.5153 -0.1515
   20SAPS  C314 2645  -0.071   5.361   4.496 -0.2531 -0.4383  0.6704
   20SAPS  H14X 2646  -0.120   5.325   4.402  1.5896  0.8972 -0.8839
   20SAPS  H14Y 2647  -0.135   5.446   4.530 -0.6846 -1.0622  1.4242
   20SAPS  C315 2648  -0.081   5.268   4.612 -0.1782  0.1389 -0.2864
   20SAPS  H15X 2649  -0.036   5.325   4.696  1.0522  3.1723 -2.7992
   20SAPS  H15Y 2650  -0.030   5.169   4.608 -2.2009 -0.9702 -0.0341
   20SAPS  C316 2651  -0.231   5.244   4.647  0.5316  0.4145  0.4577
   20SAPS  H16X 2652  -0.271   5.203   4.551 -0.1879  0.6012  0.6690
   20SAPS  H16Y 2653  -0.277   5.336   4.690  0.3088  0.1722  0.7420
   20SAPS  C317 2654  -0.259   5.126   4.743 -0.5810  0.0365 -0.0649
   20SAPS  H17X 2655  -0.211   5.035   4.702  0.2875  0.6749 -0.5231
   20SAPS  H17Y 2656  -0.368   5.111   4.753 -0.8322  0.9497 -1.1821
   20SAPS  C318 2657  -0.199   5.148   4.889 -0.2655  0.0513 -0.2262
   20SAPS  H18X 2658  -0.235   5.247   4.924  1.4601  0.6839 -0.1743
   20SAPS  H18Y 2659  -0.088   5.151   4.887 -0.2296  0.2225  0.9090
   20SAPS  H18Z 2660  -0.233   5.066   4.956 -0.5341  0.1333 -0.2575
   21CHL1    C3 2661   2.697   4.998   6.286  0.0840 -0.4911  0.0096
   21CHL1    H3 2662   2.589   4.983   6.265 -0.0833  1.6413 -0.9049
   21CHL1    O3 2663   2.733   4.989   6.422 -0.4545 -0.6859  0.6682
   21CHL1   H3' 2664   2.707   4.900   6.448 -0.7505 -1.1661 -1.1054
   21CHL1    C4 2665   2.783   4.899   6.206  0.1411 -0.3732  0.9455
   21CHL1   H4A 2666   2.888   4.902   6.243  0.2833  1.2239  0.4620
   21CHL1   H4B 2667   2.758   4.800   6.250 -0.1524 -0.4695  0.5608
   21CHL1    C5 2668   2.761   4.908   6.055 -0.3253 -0.0379 -0.2169
   21CHL1    C6 2669   2.730   4.805   5.978 -0.2801 -0.5344  0.0763
   21CHL1    H6 2670   2.708   4.706   6.021 -4.7447 -0.5299 -1.6194
   21CHL1    C7 2671   2.722   4.822   5.827  0.0237 -0.2523 -0.4002
   21CHL1   H7A 2672   2.778   4.741   5.776  0.1497  1.2806 -2.8210
   21CHL1   H7B 2673   2.612   4.835   5.815  0.0482  3.9533  2.1638
   21CHL1    C8 2674   2.779   4.952   5.767  0.5145 -0.4953 -0.7876
   21CHL1    H8 2675   2.888   4.932   5.767  0.1656 -2.8139  0.3388
   21CHL1   C14 2676   2.732   4.974   5.623 -0.4874 -0.4048 -0.0232
   21CHL1   H14 2677   2.623   4.994   5.629 -0.4866 -0.6635  1.0128
   21CHL1   C15 2678   2.749   4.855   5.516  0.3189 -0.0237 -0.5246
   21CHL1  H15A 2679   2.846   4.802   5.516 -0.7038 -2.0413  0.9718
   21CHL1  H15B 2680   2.681   4.770   5.539  2.5168 -1.9590 -0.8346
   21CHL1   C16 2681   2.727   4.923   5.381  0.2744 -0.0594 -0.4542
   21CHL1  H16A 2682   2.797   4.884   5.305 -0.2866  0.3013 -1.1686
   21CHL1  H16B 2683   2.621   4.907   5.352 -0.4220  2.9733  0.0330
   21CHL1   C17 2684   2.740   5.078   5.405 -0.0588  0.5924 -0.5610
   21CHL1   H17 2685   2.638   5.122   5.408 -0.8066 -0.8956 -2.0800
   21CHL1   C13 2686   2.805   5.087   5.550 -0.2987  0.1284  0.2837
   21CHL1   C18 2687   2.955   5.055   5.530 -0.2255  0.5306  0.3994
   21CHL1  H18A 2688   3.001   5.035   5.629  0.6462 -2.0645 -0.4385
   21CHL1  H18B 2689   2.973   4.961   5.474 -1.1818  0.4171  0.2581
   21CHL1  H18C 2690   3.008   5.130   5.468 -0.5417  0.7148  0.3486
   21CHL1   C12 2691   2.783   5.213   5.630  0.1890 -0.3704 -0.5715
   21CHL1  H12A 2692   2.840   5.303   5.598 -0.1306 -0.0392 -0.2206
   21CHL1  H12B 2693   2.679   5.251   5.628  0.7950  1.5211  0.9209
   21CHL1   C11 2694   2.829   5.189   5.784  0.2686  0.2668  0.0986
   21CHL1  H11A 2695   2.939   5.206   5.792  0.0359  2.4402 -0.6823
   21CHL1  H11B 2696   2.794   5.274   5.846  0.6623  1.0953 -0.7928
   21CHL1    C9 2697   2.754   5.074   5.855 -0.5853  0.0638  0.3691
   21CHL1    H9 2698   2.644   5.084   5.839 -0.8862 -0.7942  1.7930
   21CHL1   C10 2699   2.786   5.055   6.006 -0.6835  0.4781 -0.0727
   21CHL1   C19 2700   2.938   5.073   6.025 -0.2999 -0.2962  0.0286
   21CHL1  H19A 2701   2.974   5.026   6.119  2.5179 -0.0111 -0.8122
   21CHL1  H19B 2702   3.001   5.019   5.951  0.4298 -1.0170  1.1448
   21CHL1  H19C 2703   2.979   5.177   6.024 -0.0734 -0.2320  3.5268
   21CHL1    C1 2704   2.708   5.163   6.091  0.0186 -0.3907  0.6290
   21CHL1   H1A 2705   2.740   5.260   6.049  0.0400 -1.1840 -1.2559
   21CHL1   H1B 2706   2.602   5.134   6.074  0.5600 -2.1262 -0.0224
   21CHL1    C2 2707   2.735   5.143   6.244  0.1333 -0.3215  0.8560
   21CHL1   H2A 2708   2.674   5.218   6.299  0.1238  0.4964 -0.2440
   21CHL1   H2B 2709   2.841   5.157   6.274  1.3737 -1.1278 -2.6817
   21CHL1   C20 2710   2.804   5.148   5.287 -0.2800 -0.2074 -0.2967
   21CHL1   H20 2711   2.910   5.124   5.263  0.0805  1.5101 -0.5370
   21CHL1   C21 2712   2.794   5.301   5.310 -0.5283  0.2030 -0.5894
   21CHL1  H21A 2713   2.871   5.333   5.383  1.2125  0.1416 -2.3409
   21CHL1  H21B 2714   2.691   5.323   5.344 -0.9909 -0.4842 -1.4885
   21CHL1  H21C 2715   2.806   5.358   5.216  0.8432  0.5131 -0.2379
   21CHL1   C22 2716   2.729   5.120   5.158  0.0023 -0.0635  0.0410
   21CHL1  H22A 2717   2.632   5.069   5.171  0.2813 -0.1603  2.0439
   21CHL1  H22B 2718   2.705   5.216   5.107  1.6309  2.0848  3.0256
   21CHL1   C23 2719   2.800   5.034   5.054 -1.0270  0.7700 -0.0236
   21CHL1  H23A 2720   2.894   5.083   5.021  0.3796 -1.5202  0.3718
   21CHL1  H23B 2721   2.834   4.934   5.091 -0.8065  0.9173  0.1819
   21CHL1   C24 2722   2.702   5.018   4.940 -0.2395 -0.3239  0.5038
   21CHL1  H24A 2723   2.619   4.951   4.968 -0.3300 -1.5125 -2.3039
   21CHL1  H24B 2724   2.669   5.122   4.918 -1.5068 -0.9961 -0.9003
   21CHL1   C25 2725   2.766   4.962   4.822  0.0785  0.5157  0.4978
   21CHL1   H25 2726   2.850   5.030   4.795  0.9800  0.6238  3.2410
   21CHL1   C26 2727   2.841   4.828   4.840  0.2792  0.1393  0.2004
   21CHL1  H26A 2728   2.903   4.815   4.749  1.2398  0.9127  0.7312
   21CHL1  H26B 2729   2.915   4.835   4.922  0.0523 -0.1714  0.4354
   21CHL1  H26C 2730   2.767   4.745   4.848  0.9334 -0.5819 -0.8848
   21CHL1   C27 2731   2.662   4.953   4.705  1.0988  0.2030  1.1422
   21CHL1  H27A 2732   2.698   4.895   4.617  0.8719  1.7022  0.0170
   21CHL1  H27B 2733   2.577   4.894   4.746  0.8486  0.5016  1.0583
   21CHL1  H27C 2734   2.621   5.045   4.659  2.6307  0.0281 -0.7384
   22CHL1    C3 2735   5.367   2.762   6.394  0.0835  0.4094  0.5416
   22CHL1    H3 2736   5.265   2.719   6.391  0.3352 -0.1505 -1.1213
   22CHL1    O3 2737   5.404   2.818   6.517 -0.2506 -0.2467 -1.1136
   22CHL1   H3' 2738   5.415   2.748   6.583 -1.0950  2.1763  1.8201
   22CHL1    C4 2739   5.469   2.645   6.355  0.6960 -0.6109  0.0311
   22CHL1   H4A 2740   5.576   2.672   6.366  1.2342 -2.0533 -1.2816
   22CHL1   H4B 2741   5.451   2.572   6.436  1.4076 -0.9509 -0.1020
   22CHL1    C5 2742   5.449   2.582   6.215  0.0092  0.5422  0.2885
   22CHL1    C6 2743   5.429   2.453   6.197 -0.2250  0.0285  0.3098
   22CHL1    H6 2744   5.432   2.390   6.287  1.2835 -0.1251  0.1754
   22CHL1    C7 2745   5.404   2.387   6.061  0.3166 -0.1163  0.3569
   22CHL1   H7A 2746   5.471   2.300   6.048 -0.4606 -0.7496  0.5287
   22CHL1   H7B 2747   5.297   2.360   6.050  0.6431 -0.9842 -1.0687
   22CHL1    C8 2748   5.436   2.491   5.947  0.1460  0.0646 -0.3994
   22CHL1    H8 2749   5.547   2.493   5.944  0.1697 -0.1421  0.2445
   22CHL1   C14 2750   5.388   2.439   5.816 -0.1281  0.3928  0.0475
   22CHL1   H14 2751   5.279   2.426   5.835 -0.2666  1.9022  0.3720
   22CHL1   C15 2752   5.444   2.303   5.775  0.2682 -0.2086 -0.3713
   22CHL1  H15A 2753   5.553   2.305   5.795 -0.0750  1.4974  1.7494
   22CHL1  H15B 2754   5.396   2.225   5.838 -1.2177  0.8781 -0.0933
   22CHL1   C16 2755   5.404   2.295   5.626 -0.3797 -0.5533 -0.9536
   22CHL1  H16A 2756   5.497   2.281   5.566  1.6169 -1.1535  2.0771
   22CHL1  H16B 2757   5.326   2.219   5.600 -1.9689  0.9106 -0.6524
   22CHL1   C17 2758   5.339   2.433   5.590 -0.8758 -0.3684  0.7135
   22CHL1   H17 2759   5.231   2.413   5.607 -1.4828  1.4617 -0.5593
   22CHL1   C13 2760   5.396   2.527   5.692 -0.3545  0.3535  0.5492
   22CHL1   C18 2761   5.551   2.556   5.666  0.1955 -0.1724  0.5478
   22CHL1  H18A 2762   5.567   2.618   5.575  0.7354  1.0980  1.4762
   22CHL1  H18B 2763   5.596   2.613   5.750 -1.3713  1.1776  0.5114
   22CHL1  H18C 2764   5.609   2.461   5.661 -0.1727 -0.3997  0.5168
   22CHL1   C12 2765   5.329   2.662   5.728  0.2840  0.7791 -0.4392
   22CHL1  H12A 2766   5.348   2.725   5.639  2.0640  1.6697  0.5227
   22CHL1  H12B 2767   5.220   2.643   5.741  1.1373 -5.0265  1.4096
   22CHL1   C11 2768   5.383   2.728   5.853 -0.2967  0.0587  0.3161
   22CHL1  H11A 2769   5.480   2.781   5.836 -0.7096  0.4910 -0.7764
   22CHL1  H11B 2770   5.317   2.812   5.881 -2.4382 -0.5182 -2.5474
   22CHL1    C9 2771   5.381   2.631   5.973  0.0560 -0.2182 -0.1846
   22CHL1    H9 2772   5.272   2.608   5.986  0.5475 -1.3457  2.9551
   22CHL1   C10 2773   5.442   2.686   6.101  0.1175  0.4241  0.2461
   22CHL1   C19 2774   5.580   2.745   6.085 -0.2591 -0.2623 -0.0052
   22CHL1  H19A 2775   5.644   2.660   6.054  0.0018  0.1367 -0.5767
   22CHL1  H19B 2776   5.585   2.819   6.002 -1.7414  1.1709  1.1205
   22CHL1  H19C 2777   5.620   2.788   6.179  1.0888 -1.9804  0.2642
   22CHL1    C1 2778   5.346   2.799   6.149  0.3551 -0.1377  0.1280
   22CHL1   H1A 2779   5.349   2.881   6.074  0.5652 -0.0972  0.1810
   22CHL1   H1B 2780   5.240   2.766   6.152  0.1555  0.5332  1.0349
   22CHL1    C2 2781   5.370   2.868   6.282  0.3168  0.6951  0.5016
   22CHL1   H2A 2782   5.292   2.945   6.301  0.5032  0.3173  3.1819
   22CHL1   H2B 2783   5.469   2.917   6.288  1.0456 -0.7226  0.4377
   22CHL1   C20 2784   5.360   2.461   5.443 -0.9653  0.2802  0.0764
   22CHL1   H20 2785   5.466   2.488   5.421 -0.3520 -0.4151  2.0507
   22CHL1   C21 2786   5.278   2.579   5.393  0.0745  0.7142 -0.2218
   22CHL1  H21A 2787   5.170   2.557   5.408 -0.7025  1.6182 -3.6528
   22CHL1  H21B 2788   5.286   2.597   5.284  0.8438 -1.2358 -0.5311
   22CHL1  H21C 2789   5.304   2.669   5.454  0.7554 -0.8769  1.9899
   22CHL1   C22 2790   5.328   2.331   5.362 -0.5130 -0.6999 -0.5828
   22CHL1  H22A 2791   5.369   2.233   5.396  1.8593 -0.4703 -2.4948
   22CHL1  H22B 2792   5.218   2.318   5.374 -0.7293  0.7907 -0.7823
   22CHL1   C23 2793   5.373   2.329   5.212  0.2166 -0.1935 -0.7489
   22CHL1  H23A 2794   5.329   2.425   5.176  0.9952  1.0609  1.4317
   22CHL1  H23B 2795   5.482   2.347   5.209 -0.0641  1.8613 -0.7455
   22CHL1   C24 2796   5.310   2.206   5.147  0.1041  0.7388  0.2763
   22CHL1  H24A 2797   5.352   2.116   5.196  1.2557  1.3730  0.4898
   22CHL1  H24B 2798   5.200   2.219   5.155  0.3047  2.0996  1.2301
   22CHL1   C25 2799   5.352   2.198   5.000  0.1931  1.1740 -0.3212
   22CHL1   H25 2800   5.345   2.303   4.965 -1.4282  1.1147 -0.2645
   22CHL1   C26 2801   5.500   2.152   4.993 -0.0940  0.2258  0.2354
   22CHL1  H26A 2802   5.547   2.213   5.074 -1.4792 -0.2523  1.4331
   22CHL1  H26B 2803   5.516   2.048   5.029 -0.6355  0.5699  1.5539
   22CHL1  H26C 2804   5.555   2.166   4.898  1.4100 -1.8495  0.7061
   22CHL1   C27 2805   5.260   2.111   4.914  0.1610  0.0962  0.2573
   22CHL1  H27A 2806   5.156   2.129   4.946 -0.2803  0.7278 -1.4543
   22CHL1  H27B 2807   5.267   2.135   4.806  2.5378  1.3805  0.6197
   22CHL1  H27C 2808   5.282   2.004   4.935 -0.5688 -0.3656 -1.2355
   23CHL1    C3 2809   2.366   4.434   6.390 -0.2118  0.4779  0.4986
   23CHL1    H3 2810   2.262   4.411   6.361 -0.0460 -1.7069  1.4500
   23CHL1    O3 2811   2.355   4.467   6.527 -0.1321  0.0825  0.4705
   23CHL1   H3' 2812   2.445   4.456   6.558  0.1358 -2.0741 -0.9139
   23CHL1    C4 2813   2.453   4.311   6.362 -0.6174  0.7428  0.1064
   23CHL1   H4A 2814   2.562   4.321   6.381  0.1396 -1.2749 -2.5182
   23CHL1   H4B 2815   2.412   4.227   6.420 -1.0559  0.7343 -0.2139
   23CHL1    C5 2816   2.440   4.287   6.208 -1.0149  0.4596  0.7051
   23CHL1    C6 2817   2.391   4.177   6.148  0.2351 -0.0820 -0.1364
   23CHL1    H6 2818   2.362   4.090   6.208 -0.4015 -0.2160 -0.6336
   23CHL1    C7 2819   2.386   4.152   6.006  0.2370  0.0745  0.1028
   23CHL1   H7A 2820   2.411   4.045   5.984  0.4210  0.1428 -0.0248
   23CHL1   H7B 2821   2.289   4.164   5.955  0.3608 -0.6737 -0.3290
   23CHL1    C8 2822   2.481   4.243   5.930 -0.2630  0.2369 -0.3224
   23CHL1    H8 2823   2.587   4.211   5.938 -0.4175  0.2038  2.7422
   23CHL1   C14 2824   2.436   4.231   5.777 -0.5006  0.0428  0.6768
   23CHL1   H14 2825   2.330   4.265   5.779  0.0498  1.8351  1.6873
   23CHL1   C15 2826   2.445   4.093   5.728 -0.5433 -0.0856  0.6492
   23CHL1  H15A 2827   2.531   4.034   5.766 -0.6221 -0.8969 -0.4069
   23CHL1  H15B 2828   2.355   4.032   5.751  0.7303 -1.5964  1.8814
   23CHL1   C16 2829   2.452   4.113   5.572 -0.2034  0.6289  0.3818
   23CHL1  H16A 2830   2.534   4.044   5.541 -0.3224 -0.4600  2.2796
   23CHL1  H16B 2831   2.360   4.068   5.529  0.4638 -3.4951  2.6584
   23CHL1   C17 2832   2.479   4.265   5.545  1.1920  0.7411 -0.0918
   23CHL1   H17 2833   2.378   4.309   5.530  0.8258  0.2021  0.7062
   23CHL1   C13 2834   2.527   4.316   5.686 -1.0892  0.0004  0.0578
   23CHL1   C18 2835   2.678   4.289   5.704 -0.8889  0.3786 -0.4694
   23CHL1  H18A 2836   2.711   4.305   5.808  0.0970 -0.3341 -0.6650
   23CHL1  H18B 2837   2.696   4.182   5.681  0.6729  0.9447 -2.1001
   23CHL1  H18C 2838   2.743   4.339   5.628  0.6736 -1.6142 -0.5192
   23CHL1   C12 2839   2.501   4.461   5.731 -0.4503 -0.4155 -0.2469
   23CHL1  H12A 2840   2.554   4.542   5.677 -0.2449  0.1275  0.7344
   23CHL1  H12B 2841   2.395   4.481   5.704 -0.6687 -2.4417 -1.0564
   23CHL1   C11 2842   2.522   4.494   5.884 -0.3089 -0.5456  1.0265
   23CHL1  H11A 2843   2.632   4.499   5.897  0.2043  1.5590 -2.6796
   23CHL1  H11B 2844   2.473   4.590   5.910 -1.6562 -1.1602  0.8500
   23CHL1    C9 2845   2.465   4.389   5.979 -0.2831  0.3108  0.3450
   23CHL1    H9 2846   2.354   4.399   5.976 -0.5497 -2.3224 -1.4662
   23CHL1   C10 2847   2.499   4.408   6.132  0.7004 -0.7742  0.5061
   23CHL1   C19 2848   2.650   4.405   6.154 -0.5716 -0.4580  0.3215
   23CHL1  H19A 2849   2.680   4.436   6.256  2.2624 -1.2264 -0.1963
   23CHL1  H19B 2850   2.699   4.308   6.130  0.9044  0.0943  0.9954
   23CHL1  H19C 2851   2.707   4.479   6.095 -0.5840  0.3851  1.3482
   23CHL1    C1 2852   2.432   4.546   6.174  0.3056  0.8375  0.0671
   23CHL1   H1A 2853   2.500   4.627   6.138  1.2898  0.5351  1.1758
   23CHL1   H1B 2854   2.335   4.555   6.121  1.0096 -1.4084 -1.7342
   23CHL1    C2 2855   2.422   4.560   6.322  0.1411  0.5742  0.0950
   23CHL1   H2A 2856   2.367   4.649   6.359  2.2133  1.6953  0.6000
   23CHL1   H2B 2857   2.522   4.594   6.354  1.0106 -1.4782 -0.2740
   23CHL1   C20 2858   2.559   4.284   5.419  0.0990 -0.0888  0.8177
   23CHL1   H20 2859   2.662   4.251   5.443  1.2139  3.2782  1.1934
   23CHL1   C21 2860   2.580   4.437   5.391  0.1106  0.3234  0.6853
   23CHL1  H21A 2861   2.495   4.495   5.349  0.8335 -0.8720 -2.8315
   23CHL1  H21B 2862   2.655   4.438   5.308 -4.0065 -1.5583 -3.5131
   23CHL1  H21C 2863   2.621   4.492   5.479  1.4216  1.4641 -0.5777
   23CHL1   C22 2864   2.510   4.206   5.297  0.1206  0.1309  0.1139
   23CHL1  H22A 2865   2.483   4.102   5.325  0.4269  0.5089  1.8867
   23CHL1  H22B 2866   2.418   4.259   5.264  0.9769  1.9964  0.5968
   23CHL1   C23 2867   2.627   4.200   5.191 -0.5864  0.2572 -0.1804
   23CHL1  H23A 2868   2.642   4.302   5.149  0.9083 -1.5946 -4.9451
   23CHL1  H23B 2869   2.722   4.171   5.241 -0.7021  1.6519  0.8983
   23CHL1   C24 2870   2.601   4.100   5.076  0.1166  0.1728 -0.7003
   23CHL1  H24A 2871   2.561   4.003   5.112  0.0726  0.5488  0.3189
   23CHL1  H24B 2872   2.523   4.146   5.012 -0.8211 -0.7202 -0.2344
   23CHL1   C25 2873   2.719   4.072   4.981  0.4754  0.2033 -0.5540
   23CHL1   H25 2874   2.807   4.060   5.047  1.2012 -0.7614 -1.6450
   23CHL1   C26 2875   2.695   3.934   4.898  0.4806 -0.0912 -0.0373
   23CHL1  H26A 2876   2.779   3.920   4.827 -1.3383  0.3429 -2.3925
   23CHL1  H26B 2877   2.686   3.840   4.957  0.3713 -0.0222  0.0568
   23CHL1  H26C 2878   2.600   3.946   4.841  1.5640  2.6616 -1.4625
   23CHL1   C27 2879   2.742   4.182   4.880 -0.1750  0.4380  0.3539
   23CHL1  H27A 2880   2.827   4.159   4.812 -2.7821 -0.7100 -2.7841
   23CHL1  H27B 2881   2.653   4.199   4.815 -0.0758  0.3363  0.1904
   23CHL1  H27C 2882   2.766   4.281   4.925 -1.4613 -0.0906  2.3410
   24CHL1    C3 2883   4.752   3.037   6.491 -0.5339 -1.1307  0.2102
   24CHL1    H3 2884   4.795   2.935   6.494 -2.7400 -2.1049  0.6003
   24CHL1    O3 2885   4.704   3.092   6.620  0.1611  0.5670  0.2566
   24CHL1   H3' 2886   4.647   3.027   6.661 -0.1787 -0.5076 -1.7602
   24CHL1    C4 2887   4.858   3.148   6.432 -0.9562 -0.2970  0.5083
   24CHL1   H4A 2888   4.817   3.250   6.436 -0.6461 -0.1978  1.5944
   24CHL1   H4B 2889   4.947   3.151   6.499 -0.2673 -0.5129 -0.3863
   24CHL1    C5 2890   4.899   3.110   6.291 -0.3116 -0.5192  0.0468
   24CHL1    C6 2891   5.026   3.085   6.256  0.2226  0.0915  0.0557
   24CHL1    H6 2892   5.102   3.082   6.335  0.2259 -0.8910  0.0206
   24CHL1    C7 2893   5.067   3.066   6.112 -0.3513 -0.3727  0.3130
   24CHL1   H7A 2894   5.150   3.138   6.094 -0.7303  0.7628  2.6947
   24CHL1   H7B 2895   5.099   2.961   6.095  1.0632 -0.2535  1.9712
   24CHL1    C8 2896   4.964   3.109   6.003 -0.4080  0.3098  0.1824
   24CHL1    H8 2897   4.964   3.220   6.001 -2.3005  0.3477 -0.9064
   24CHL1   C14 2898   5.000   3.052   5.869  0.3529  0.3304  0.7183
   24CHL1   H14 2899   5.012   2.944   5.890 -2.9127  0.2674  2.9802
   24CHL1   C15 2900   5.139   3.088   5.810  0.3039  0.5199  0.3688
   24CHL1  H15A 2901   5.160   3.196   5.829  0.0400  0.3908  1.4107
   24CHL1  H15B 2902   5.211   3.020   5.860  0.3658 -0.8046 -1.4122
   24CHL1   C16 2903   5.135   3.063   5.658 -0.3807  0.2852  0.2829
   24CHL1  H16A 2904   5.156   3.154   5.599 -0.0699  0.6159  0.8891
   24CHL1  H16B 2905   5.209   2.984   5.632 -1.8778 -0.8583 -0.6739
   24CHL1   C17 2906   4.984   3.004   5.632  0.2369 -0.1200  0.2773
   24CHL1   H17 2907   4.984   2.895   5.655 -0.8985 -0.5416 -1.5023
   24CHL1   C13 2908   4.902   3.068   5.754 -0.5841  0.5039  0.2379
   24CHL1   C18 2909   4.889   3.218   5.722  0.7386  0.1560  0.2099
   24CHL1  H18A 2910   4.863   3.260   5.821 -1.7864 -3.2531  1.1878
   24CHL1  H18B 2911   4.982   3.271   5.690  0.5714  2.4150  3.0517
   24CHL1  H18C 2912   4.805   3.238   5.651 -0.2698 -1.5575  0.8696
   24CHL1   C12 2913   4.775   3.002   5.808 -0.6077  0.4578 -0.2120
   24CHL1  H12A 2914   4.693   3.016   5.735  1.0454  0.0943 -2.2300
   24CHL1  H12B 2915   4.806   2.896   5.819 -0.4510  0.3682 -1.4045
   24CHL1   C11 2916   4.723   3.066   5.938  0.2833 -0.1892 -0.0984
   24CHL1  H11A 2917   4.697   3.171   5.911  1.8961  0.2805  0.0814
   24CHL1  H11B 2918   4.632   3.015   5.977  0.7998  0.2132  1.7039
   24CHL1    C9 2919   4.832   3.062   6.048 -0.8878 -0.0649  0.4831
   24CHL1    H9 2920   4.852   2.953   6.059  1.0941  0.3455  1.5339
   24CHL1   C10 2921   4.783   3.121   6.191 -0.3017 -0.8710 -0.0871
   24CHL1   C19 2922   4.729   3.264   6.160  0.4979 -0.0616 -0.1893
   24CHL1  H19A 2923   4.791   3.331   6.096 -1.5725 -0.5066 -2.8324
   24CHL1  H19B 2924   4.632   3.257   6.107  1.2405 -1.4246 -1.4335
   24CHL1  H19C 2925   4.715   3.319   6.256  0.0047  0.2042 -0.4126
   24CHL1    C1 2926   4.675   3.014   6.246 -0.1450 -0.0475 -0.2640
   24CHL1   H1A 2927   4.591   3.025   6.175  2.6165 -0.9040 -3.9162
   24CHL1   H1B 2928   4.714   2.911   6.231  1.7792  0.7498 -1.1639
   24CHL1    C2 2929   4.630   3.029   6.394  0.2830  0.1891 -0.5231
   24CHL1   H2A 2930   4.552   2.956   6.422  1.0228 -0.2148  0.5306
   24CHL1   H2B 2931   4.598   3.136   6.402  1.5967  0.5057  0.7953
   24CHL1   C20 2932   4.940   3.039   5.491  0.4957  0.8715  0.4177
   24CHL1   H20 2933   4.945   3.149   5.477 -0.9911  0.8653 -0.3575
   24CHL1   C21 2934   4.793   2.990   5.471  0.4357  0.2104 -0.3310
   24CHL1  H21A 2935   4.788   2.884   5.503 -1.5121  0.0888 -0.9100
   24CHL1  H21B 2936   4.770   3.002   5.364  1.1851 -0.0646 -0.5318
   24CHL1  H21C 2937   4.729   3.061   5.528  1.1753  1.1403 -0.6208
   24CHL1   C22 2938   5.019   2.964   5.380 -0.3627 -0.1508 -0.5654
   24CHL1  H22A 2939   5.011   2.857   5.409  2.4152 -0.8016 -1.8082
   24CHL1  H22B 2940   4.964   2.980   5.285 -0.4483  1.3914 -0.2841
   24CHL1   C23 2941   5.171   3.004   5.347  0.1927 -0.8204  0.0831
   24CHL1  H23A 2942   5.182   3.115   5.339 -0.6304 -0.8174 -1.3250
   24CHL1  H23B 2943   5.225   2.964   5.435  0.5951 -2.2627 -0.8028
   24CHL1   C24 2944   5.221   2.938   5.212 -0.1055 -0.2582 -0.0446
   24CHL1  H24A 2945   5.200   2.829   5.216 -0.0115 -0.2427  1.0085
   24CHL1  H24B 2946   5.160   2.970   5.124  0.2327  0.6491  0.0424
   24CHL1   C25 2947   5.369   2.969   5.195  0.4035  0.1365 -0.6082
   24CHL1   H25 2948   5.389   3.078   5.206 -1.9059  0.6461 -0.9602
   24CHL1   C26 2949   5.460   2.891   5.290 -0.0172 -0.4118 -0.1708
   24CHL1  H26A 2950   5.440   2.782   5.283  0.9043 -0.5547 -0.7835
   24CHL1  H26B 2951   5.570   2.908   5.281  0.6891 -3.7821  0.7818
   24CHL1  H26C 2952   5.456   2.914   5.399  2.2127 -0.8090  0.0528
   24CHL1   C27 2953   5.410   2.944   5.040 -0.4927 -0.3879 -0.4896
   24CHL1  H27A 2954   5.347   2.990   4.961  2.2518  1.5009 -1.7406
   24CHL1  H27B 2955   5.517   2.973   5.039 -0.5274 -0.2310 -1.8063
   24CHL1  H27C 2956   5.420   2.834   5.028 -1.6325 -0.4921 -0.6284
   25CHL1    C3 2957   1.616   2.442   6.062  0.0326 -0.0445 -0.0556
   25CHL1    H3 2958   1.713   2.388   6.063  0.9142  1.4403 -1.0988
   25CHL1    O3 2959   1.577   2.475   6.195 -0.5240  0.2209  0.4185
   25CHL1   H3' 2960   1.495   2.525   6.192 -0.3721  0.6262  1.9911
   25CHL1    C4 2961   1.647   2.575   5.987  0.2583 -0.8853  0.2207
   25CHL1   H4A 2962   1.562   2.643   6.008  0.9129  0.3561 -0.9661
   25CHL1   H4B 2963   1.738   2.613   6.038 -0.9970  1.9811  0.5221
   25CHL1    C5 2964   1.660   2.561   5.841 -0.3407  0.0783  0.2989
   25CHL1    C6 2965   1.751   2.627   5.776 -0.4648  0.5440 -0.4575
   25CHL1    H6 2966   1.821   2.689   5.834 -0.9954  0.6811  0.0568
   25CHL1    C7 2967   1.758   2.647   5.629  1.1510 -0.1055  0.0621
   25CHL1   H7A 2968   1.767   2.755   5.606  1.0046  0.3236  1.8430
   25CHL1   H7B 2969   1.856   2.601   5.602  1.5188  0.3291  0.6441
   25CHL1    C8 2970   1.640   2.580   5.549 -0.4468 -0.2144  0.6052
   25CHL1    H8 2971   1.550   2.645   5.538  0.4406  0.9863  0.2788
   25CHL1   C14 2972   1.682   2.564   5.406 -0.4375 -0.3075  0.0927
   25CHL1   H14 2973   1.763   2.488   5.417 -1.0146 -0.8819  0.4621
   25CHL1   C15 2974   1.751   2.673   5.335 -0.2492 -0.3478  0.4015
   25CHL1  H15A 2975   1.702   2.772   5.336  1.1489  0.4145  2.9231
   25CHL1  H15B 2976   1.857   2.692   5.365 -0.3874  1.0901  0.0307
   25CHL1   C16 2977   1.747   2.618   5.187  0.5041  0.3722  0.2361
   25CHL1  H16A 2978   1.691   2.684   5.118  0.8648 -2.1515 -2.6922
   25CHL1  H16B 2979   1.847   2.586   5.150 -0.3230  0.2061 -2.0287
   25CHL1   C17 2980   1.666   2.488   5.192 -0.2209  0.9397  0.2445
   25CHL1   H17 2981   1.735   2.405   5.215 -0.4814  0.5571 -0.3219
   25CHL1   C13 2982   1.575   2.499   5.322 -0.5713 -0.1326  0.8825
   25CHL1   C18 2983   1.455   2.586   5.293 -0.0460 -0.1109 -0.8324
   25CHL1  H18A 2984   1.474   2.691   5.262  1.7241  0.1986  1.0725
   25CHL1  H18B 2985   1.394   2.531   5.218  1.1091  0.2970 -2.1236
   25CHL1  H18C 2986   1.394   2.598   5.385 -0.1441  0.3202 -0.9489
   25CHL1   C12 2987   1.530   2.362   5.380 -0.1840  0.6621  0.1279
   25CHL1  H12A 2988   1.449   2.311   5.325  1.2428  0.0813 -1.5160
   25CHL1  H12B 2989   1.612   2.288   5.386 -0.8925 -0.0368  1.9663
   25CHL1   C11 2990   1.492   2.371   5.527  0.3474  0.6277 -0.0843
   25CHL1  H11A 2991   1.392   2.416   5.545 -0.8909 -1.7400 -0.6764
   25CHL1  H11B 2992   1.474   2.269   5.569 -0.0786  0.1229 -1.4476
   25CHL1    C9 2993   1.598   2.452   5.615 -0.0949  0.0015  0.4985
   25CHL1    H9 2994   1.693   2.395   5.611 -1.1714 -1.8252  0.3277
   25CHL1   C10 2995   1.556   2.469   5.766  0.2260 -0.1572  0.3002
   25CHL1   C19 2996   1.421   2.545   5.767  0.7117 -0.6491 -0.1455
   25CHL1  H19A 2997   1.430   2.637   5.705 -0.0280  1.0067  2.0923
   25CHL1  H19B 2998   1.342   2.474   5.733  0.7387 -1.4467  1.3781
   25CHL1  H19C 2999   1.396   2.579   5.869  0.5602  0.0912 -0.4269
   25CHL1    C1 3000   1.548   2.343   5.849 -0.0723  0.3557 -0.6854
   25CHL1   H1A 3001   1.476   2.278   5.795 -0.1848  0.3169 -0.4889
   25CHL1   H1B 3002   1.646   2.292   5.846  1.0280  2.2445  0.6381
   25CHL1    C2 3003   1.510   2.360   5.999 -0.0462  0.6339  0.4343
   25CHL1   H2A 3004   1.500   2.259   6.044  3.4333  0.5798  1.3936
   25CHL1   H2B 3005   1.414   2.411   6.021 -0.2808  0.5831 -0.4313
   25CHL1   C20 3006   1.594   2.443   5.062  0.0467 -0.3029 -0.0060
   25CHL1   H20 3007   1.523   2.364   5.096  0.5387 -0.6936  0.1110
   25CHL1   C21 3008   1.698   2.367   4.978 -0.2189 -0.9210 -0.9083
   25CHL1  H21A 3009   1.736   2.275   5.027 -3.3929 -1.1519  1.4312
   25CHL1  H21B 3010   1.783   2.437   4.967 -0.4587 -0.4871 -0.0566
   25CHL1  H21C 3011   1.662   2.348   4.875 -0.9992  2.1670 -1.3007
   25CHL1   C22 3012   1.523   2.548   4.977  0.5773  0.1914  0.6562
   25CHL1  H22A 3013   1.455   2.614   5.036  3.8421  4.2316  0.3831
   25CHL1  H22B 3014   1.607   2.606   4.934 -0.4846 -0.1047 -2.0003
   25CHL1   C23 3015   1.440   2.484   4.858  0.0768  0.1634 -0.5926
   25CHL1  H23A 3016   1.488   2.407   4.794  0.4868 -0.3229  0.2832
   25CHL1  H23B 3017   1.351   2.438   4.907  1.9029 -2.5135  0.4780
   25CHL1   C24 3018   1.379   2.587   4.765  0.4401 -0.1615 -0.2715
   25CHL1  H24A 3019   1.348   2.678   4.820 -3.2751 -0.5887 -1.3297
   25CHL1  H24B 3020   1.450   2.623   4.688 -0.2149 -1.1307 -1.3804
   25CHL1   C25 3021   1.260   2.531   4.679  0.5340 -0.4458 -0.1022
   25CHL1   H25 3022   1.187   2.485   4.749 -0.7596 -0.4028 -1.3778
   25CHL1   C26 3023   1.200   2.649   4.607  0.1832 -0.2890 -0.0320
   25CHL1  H26A 3024   1.103   2.637   4.554 -1.5274  0.3025  2.7305
   25CHL1  H26B 3025   1.190   2.733   4.679  2.8466  0.4877 -0.4498
   25CHL1  H26C 3026   1.277   2.675   4.531  1.1675 -1.7127  0.4462
   25CHL1   C27 3027   1.292   2.431   4.571 -0.2582  0.1630 -0.0357
   25CHL1  H27A 3028   1.327   2.340   4.623  0.2687 -1.0838 -2.4443
   25CHL1  H27B 3029   1.203   2.405   4.511 -2.3498 -2.1131  3.6292
   25CHL1  H27C 3030   1.385   2.456   4.517 -0.7026 -0.2373 -1.0013
   26CHL1    C3 3031   4.248   3.256   6.290 -0.3089  0.1592  0.3326
   26CHL1    H3 3032   4.356   3.282   6.297 -0.8218  1.9898  3.7828
   26CHL1    O3 3033   4.186   3.259   6.418  0.0192 -0.1758  0.3559
   26CHL1   H3' 3034   4.241   3.319   6.469 -1.3687 -0.0423  1.7585
   26CHL1    C4 3035   4.167   3.346   6.194 -0.8688 -0.0385 -1.1797
   26CHL1   H4A 3036   4.063   3.311   6.212 -0.8704  0.2005 -0.7328
   26CHL1   H4B 3037   4.160   3.451   6.227  1.3600 -0.1217 -0.2894
   26CHL1    C5 3038   4.198   3.336   6.046 -0.5910  0.6007 -0.3027
   26CHL1    C6 3039   4.229   3.448   5.974 -0.0560 -0.8759  0.6316
   26CHL1    H6 3040   4.236   3.549   6.016  1.1008 -0.3972 -0.6400
   26CHL1    C7 3041   4.257   3.445   5.823 -0.1438 -0.1952 -0.5527
   26CHL1   H7A 3042   4.197   3.528   5.781  1.7501  1.2229 -0.6004
   26CHL1   H7B 3043   4.366   3.466   5.816  0.2067 -0.4951  2.7681
   26CHL1    C8 3044   4.220   3.310   5.762 -0.0456  0.1469 -0.1112
   26CHL1    H8 3045   4.111   3.309   5.742  0.0964  3.3099 -1.6129
   26CHL1   C14 3046   4.282   3.305   5.621 -0.6146  0.2945 -0.4732
   26CHL1   H14 3047   4.390   3.325   5.636 -1.0791  0.7362  3.2096
   26CHL1   C15 3048   4.247   3.411   5.518 -0.4065 -0.2766  0.1778
   26CHL1  H15A 3049   4.140   3.442   5.523 -1.0680 -2.0828 -1.4544
   26CHL1  H15B 3050   4.307   3.503   5.536 -0.0778 -0.2627 -0.9033
   26CHL1   C16 3051   4.269   3.345   5.376 -0.1276 -0.4215 -0.6247
   26CHL1  H16A 3052   4.188   3.363   5.303  1.0977 -1.3484 -2.2674
   26CHL1  H16B 3053   4.352   3.406   5.334  1.6547 -2.3959 -0.1440
   26CHL1   C17 3054   4.309   3.200   5.406 -0.0998 -0.0943 -0.8730
   26CHL1   H17 3055   4.417   3.195   5.432 -0.3585  1.3491  0.6978
   26CHL1   C13 3056   4.262   3.166   5.551  0.7719 -0.4670 -0.1282
   26CHL1   C18 3057   4.112   3.127   5.535 -0.5872 -0.0022 -0.1286
   26CHL1  H18A 3058   4.045   3.103   5.620 -2.4754 -2.0989 -2.0554
   26CHL1  H18B 3059   4.062   3.213   5.486 -2.2672 -1.7788 -1.7007
   26CHL1  H18C 3060   4.102   3.045   5.461 -0.8908  0.8575 -1.0589
   26CHL1   C12 3061   4.335   3.051   5.633  0.5137 -0.2952  0.5455
   26CHL1  H12A 3062   4.306   2.956   5.584  1.7572  0.1162 -1.0456
   26CHL1  H12B 3063   4.446   3.056   5.636  0.4516  1.2193  2.4183
   26CHL1   C11 3064   4.276   3.053   5.778 -0.0463 -0.3721  0.0661
   26CHL1  H11A 3065   4.179   3.000   5.783  0.0166 -0.3338  2.6671
   26CHL1  H11B 3066   4.329   2.984   5.847  1.2138 -0.7523 -1.2212
   26CHL1    C9 3067   4.268   3.191   5.849  0.4416 -0.0211 -0.4530
   26CHL1    H9 3068   4.375   3.216   5.868  0.6004 -0.7849 -0.3000
   26CHL1   C10 3069   4.205   3.187   5.990 -0.5172  0.1823 -1.8510
   26CHL1   C19 3070   4.068   3.109   5.986 -0.5610 -0.0463 -0.0009
   26CHL1  H19A 3071   4.010   3.116   6.080 -0.6506 -2.2440  0.1445
   26CHL1  H19B 3072   4.009   3.152   5.902  0.7041  0.6176 -0.5798
   26CHL1  H19C 3073   4.081   3.001   5.967  2.5302  0.3650 -0.7997
   26CHL1    C1 3074   4.291   3.100   6.085 -0.4573  0.1511  0.0268
   26CHL1   H1A 3075   4.317   2.998   6.051  2.3293  1.6378 -2.7728
   26CHL1   H1B 3076   4.393   3.143   6.081  0.2743 -1.6087 -0.7672
   26CHL1    C2 3077   4.244   3.113   6.230  0.7293 -0.1878  0.4633
   26CHL1   H2A 3078   4.310   3.053   6.296 -0.6064 -2.3546 -0.0843
   26CHL1   H2B 3079   4.138   3.084   6.242  0.1173  0.3947 -2.6617
   26CHL1   C20 3080   4.303   3.086   5.295  0.2144 -0.4454  0.0251
   26CHL1   H20 3081   4.311   2.992   5.354  0.6039 -0.2200  0.3357
   26CHL1   C21 3082   4.429   3.105   5.211 -0.1800  0.9458 -0.1384
   26CHL1  H21A 3083   4.438   3.211   5.180 -0.2133  0.3213 -2.4760
   26CHL1  H21B 3084   4.423   3.039   5.122  0.2611  1.2544 -0.4000
   26CHL1  H21C 3085   4.519   3.075   5.269 -0.6527 -1.9286 -0.7284
   26CHL1   C22 3086   4.181   3.090   5.199  0.1380  0.3131  0.1007
   26CHL1  H22A 3087   4.085   3.110   5.251  1.3822  3.0046  1.5469
   26CHL1  H22B 3088   4.187   3.182   5.136  0.1327 -0.0368 -0.4218
   26CHL1   C23 3089   4.163   2.967   5.108  0.2273  0.4884  0.4321
   26CHL1  H23A 3090   4.259   2.944   5.056  0.7069  0.6725  1.2210
   26CHL1  H23B 3091   4.139   2.876   5.167 -0.4091 -0.1738 -0.7926
   26CHL1   C24 3092   4.042   2.980   5.014 -0.0836  0.3184 -0.6594
   26CHL1  H24A 3093   3.942   2.961   5.059  1.0517 -1.4827  1.2731
   26CHL1  H24B 3094   4.036   3.078   4.963 -0.2421 -0.2652 -1.7854
   26CHL1   C25 3095   4.038   2.879   4.894 -0.0719 -0.6813 -0.3295
   26CHL1   H25 3096   4.120   2.908   4.825  2.0173 -1.8187  1.5361
   26CHL1   C26 3097   4.068   2.739   4.943  0.1101  0.4864  0.4144
   26CHL1  H26A 3098   4.040   2.669   4.861 -2.0698  1.7656 -0.0121
   26CHL1  H26B 3099   4.177   2.737   4.967  0.3979 -0.5193 -0.8705
   26CHL1  H26C 3100   4.010   2.702   5.030 -1.6207 -1.0346 -1.3117
   26CHL1   C27 3101   3.913   2.895   4.811  0.1856  1.0444  0.3636
   26CHL1  H27A 3102   3.938   2.854   4.711  0.0470 -1.2837  1.2318
   26CHL1  H27B 3103   3.826   2.852   4.866  0.1381  1.7958  0.8988
   26CHL1  H27C 3104   3.890   3.001   4.786  2.4485  1.7680  1.1279
   27CHL1    C3 3105   3.259   4.356   6.474  0.0095 -0.1907  0.0343
   27CHL1    H3 3106   3.341   4.431   6.482 -0.9379  1.0028 -1.0419
   27CHL1    O3 3107   3.244   4.295   6.602  0.1912 -0.1000  0.1226
   27CHL1   H3' 3108   3.334   4.264   6.615  0.5592  0.3387 -1.2086
   27CHL1    C4 3109   3.131   4.430   6.434  0.4218  0.8150  0.1589
   27CHL1   H4A 3110   3.042   4.364   6.440  0.5395  0.6549  0.1562
   27CHL1   H4B 3111   3.112   4.508   6.512 -1.1599 -2.2335  3.0730
   27CHL1    C5 3112   3.139   4.481   6.290  0.4537 -0.0365 -0.5769
   27CHL1    C6 3113   3.100   4.607   6.266 -0.0058  0.3017 -0.1458
   27CHL1    H6 3114   3.064   4.663   6.354 -0.7043  0.1491 -0.3209
   27CHL1    C7 3115   3.097   4.673   6.134  0.5461  0.5714  0.5861
   27CHL1   H7A 3116   3.006   4.735   6.117 -1.0969 -1.2215  2.3184
   27CHL1   H7B 3117   3.184   4.742   6.127 -0.1272  1.2860 -1.1171
   27CHL1    C8 3118   3.122   4.569   6.017 -0.6820  0.4062  0.2173
   27CHL1    H8 3119   3.021   4.525   6.000 -0.6195  0.2202  0.3331
   27CHL1   C14 3120   3.175   4.629   5.887 -0.3412 -0.1133 -0.4191
   27CHL1   H14 3121   3.277   4.671   5.903 -0.6330  0.5738 -0.3407
   27CHL1   C15 3122   3.089   4.742   5.825  0.8540  0.1119  0.0456
   27CHL1  H15A 3123   2.982   4.710   5.832  1.0659 -0.3886  1.5947
   27CHL1  H15B 3124   3.092   4.845   5.867  0.3845  0.2863 -0.3323
   27CHL1   C16 3125   3.129   4.738   5.681 -0.2883  0.2558  0.4564
   27CHL1  H16A 3126   3.041   4.734   5.613 -0.5694 -2.7361  0.8266
   27CHL1  H16B 3127   3.171   4.840   5.667 -0.6031  0.4047  0.5943
   27CHL1   C17 3128   3.231   4.619   5.664  0.2439 -0.1947 -0.6577
   27CHL1   H17 3129   3.329   4.669   5.678 -1.4787  3.5999 -1.1352
   27CHL1   C13 3130   3.197   4.526   5.778 -0.0539  1.1568 -0.0191
   27CHL1   C18 3131   3.065   4.441   5.751 -0.2298 -0.1910  0.2596
   27CHL1  H18A 3132   3.080   4.354   5.684  0.5599  1.5953 -2.0204
   27CHL1  H18B 3133   3.022   4.399   5.844 -0.2075 -1.5856 -0.3393
   27CHL1  H18C 3134   2.990   4.501   5.695  0.7021 -0.7239 -1.6504
   27CHL1   C12 3135   3.315   4.444   5.822 -0.4697  0.4335  0.0696
   27CHL1  H12A 3136   3.352   4.377   5.741  0.1352  1.9775 -0.9772
   27CHL1  H12B 3137   3.402   4.511   5.841 -0.0797  0.6190 -2.1637
   27CHL1   C11 3138   3.276   4.368   5.954  0.6521 -0.3391 -0.3458
   27CHL1  H11A 3139   3.203   4.288   5.928 -0.9051  0.5176  1.1982
   27CHL1  H11B 3140   3.370   4.317   5.984 -0.6230 -1.2168  2.5239
   27CHL1    C9 3141   3.228   4.462   6.058 -0.1211 -0.2869 -1.3905
   27CHL1    H9 3142   3.314   4.525   6.090  0.2876 -0.3318 -2.3612
   27CHL1   C10 3143   3.194   4.391   6.185 -0.1569  0.7704 -1.0465
   27CHL1   C19 3144   3.073   4.292   6.163 -0.3691  0.0118  0.0934
   27CHL1  H19A 3145   2.986   4.346   6.121 -1.9414 -1.2363  1.5869
   27CHL1  H19B 3146   3.096   4.215   6.087 -1.2146 -0.8095  0.6550
   27CHL1  H19C 3147   3.040   4.253   6.262  3.4057 -0.5687  1.2888
   27CHL1    C1 3148   3.314   4.307   6.241 -0.2570  0.5162 -0.1237
   27CHL1   H1A 3149   3.353   4.231   6.170  0.0979  0.8784 -0.3235
   27CHL1   H1B 3150   3.403   4.373   6.255  0.0232  0.0522  0.2949
   27CHL1    C2 3151   3.296   4.247   6.378 -0.0144  0.0142 -0.6185
   27CHL1   H2A 3152   3.393   4.197   6.398 -0.8370 -1.4852 -0.2947
   27CHL1   H2B 3153   3.215   4.171   6.378 -0.4585  0.4236  1.2913
   27CHL1   C20 3154   3.241   4.566   5.518  0.6919  0.1895 -0.3889
   27CHL1   H20 3155   3.139   4.527   5.501  0.5416  1.1586 -1.9234
   27CHL1   C21 3156   3.342   4.453   5.513 -0.4652 -0.0782 -0.5803
   27CHL1  H21A 3157   3.291   4.366   5.559  0.3917 -0.2831  0.0137
   27CHL1  H21B 3158   3.439   4.477   5.562 -0.4505 -1.0767 -0.0819
   27CHL1  H21C 3159   3.378   4.428   5.411  1.8546  1.9383 -0.3476
   27CHL1   C22 3160   3.261   4.662   5.401  0.4662 -0.2681 -0.5931
   27CHL1  H22A 3161   3.232   4.762   5.440  1.5768 -0.7576  1.6433
   27CHL1  H22B 3162   3.372   4.667   5.391  0.6306 -0.0227  1.0694
   27CHL1   C23 3163   3.196   4.619   5.265 -1.0318 -1.2325 -0.4961
   27CHL1  H23A 3164   3.238   4.674   5.178 -0.3228 -1.7642 -0.5007
   27CHL1  H23B 3165   3.224   4.514   5.240  0.9981 -0.7074 -0.6132
   27CHL1   C24 3166   3.042   4.622   5.256  0.1285  0.4919  0.1053
   27CHL1  H24A 3167   3.003   4.589   5.355 -1.1692  2.5866  0.3470
   27CHL1  H24B 3168   3.016   4.729   5.241 -2.9341  0.0254  1.2876
   27CHL1   C25 3169   2.976   4.542   5.141 -0.7164  0.1069 -0.8153
   27CHL1   H25 3170   3.027   4.553   5.043 -2.0187 -0.3759 -1.5648
   27CHL1   C26 3171   2.986   4.391   5.160  0.0171 -0.8808 -0.3668
   27CHL1  H26A 3172   3.093   4.362   5.155  0.6990  1.3283  0.2055
   27CHL1  H26B 3173   2.959   4.354   5.261  2.6559 -1.1065  0.3098
   27CHL1  H26C 3174   2.941   4.328   5.081 -1.1365 -1.6384  0.8416
   27CHL1   C27 3175   2.830   4.578   5.125  0.0502 -0.0779  0.7108
   27CHL1  H27A 3176   2.830   4.687   5.100  0.8945 -0.1902  0.1594
   27CHL1  H27B 3177   2.772   4.564   5.218 -0.5026  2.9702  0.9415
   27CHL1  H27C 3178   2.790   4.511   5.046  1.3665 -0.1901  0.1097
   28CHL1    C3 3179   6.490   2.085   6.521 -0.2424  0.2647 -0.1266
   28CHL1    H3 3180   6.451   2.188   6.537  0.7007  0.4913  0.8509
   28CHL1    O3 3181   6.513   2.030   6.651 -0.4577 -0.5683 -0.0430
   28CHL1   H3' 3182   6.540   2.104   6.706  0.0357 -0.2626 -0.6808
   28CHL1    C4 3183   6.376   2.011   6.454 -0.3473 -0.2395  0.3343
   28CHL1   H4A 3184   6.394   1.902   6.456 -1.9060 -0.5184  1.6050
   28CHL1   H4B 3185   6.293   2.024   6.527  2.1126  1.4945  3.0298
   28CHL1    C5 3186   6.354   2.047   6.310  0.4928  0.1278 -0.3108
   28CHL1    C6 3187   6.236   2.106   6.261 -0.3363  0.5140 -0.5318
   28CHL1    H6 3188   6.151   2.121   6.329  1.2180  0.1989  1.5389
   28CHL1    C7 3189   6.214   2.149   6.120  0.5820  0.3266 -0.0599
   28CHL1   H7A 3190   6.110   2.120   6.094 -0.0726  0.9667  1.6632
   28CHL1   H7B 3191   6.223   2.259   6.116 -0.9720  0.4811  0.0700
   28CHL1    C8 3192   6.323   2.085   6.026  0.6638 -0.0452  0.6462
   28CHL1    H8 3193   6.284   1.981   6.029  0.8216 -0.0916  1.7411
   28CHL1   C14 3194   6.313   2.140   5.883 -0.3594  0.2398 -0.7573
   28CHL1   H14 3195   6.346   2.246   5.895  1.1791 -0.4286  1.9103
   28CHL1   C15 3196   6.177   2.141   5.813  0.9349  0.5157  0.0179
   28CHL1  H15A 3197   6.133   2.039   5.822 -2.1113  1.6885 -0.5756
   28CHL1  H15B 3198   6.111   2.217   5.858 -0.7412 -1.2631  0.7111
   28CHL1   C16 3199   6.210   2.166   5.663 -0.3189 -0.0315  0.5046
   28CHL1  H16A 3200   6.155   2.084   5.612  0.7593 -0.8979  0.7052
   28CHL1  H16B 3201   6.178   2.269   5.634  1.7564  0.8350  1.0842
   28CHL1   C17 3202   6.364   2.153   5.650  0.2167  0.4903 -0.0738
   28CHL1   H17 3203   6.406   2.255   5.654  3.1325 -0.5800 -0.9950
   28CHL1   C13 3204   6.416   2.083   5.787 -0.3739  0.2892  0.4176
   28CHL1   C18 3205   6.387   1.931   5.770  0.0746 -0.3057  0.0847
   28CHL1  H18A 3206   6.397   1.888   5.872 -0.6772  0.4074  0.4734
   28CHL1  H18B 3207   6.278   1.914   5.753  0.4449 -2.4235 -0.5060
   28CHL1  H18C 3208   6.443   1.880   5.689  1.3553 -0.1498  0.8431
   28CHL1   C12 3209   6.556   2.117   5.831  0.5844  0.8610  0.3586
   28CHL1  H12A 3210   6.633   2.074   5.763  0.1214  0.6978 -0.0625
   28CHL1  H12B 3211   6.569   2.228   5.827  2.2775  0.6493 -0.9044
   28CHL1   C11 3212   6.574   2.059   5.974 -0.7748 -0.7939 -0.3221
   28CHL1  H11A 3213   6.584   1.950   5.954  0.9006 -0.9195  1.0078
   28CHL1  H11B 3214   6.671   2.081   6.024 -1.2828  0.8294  0.0115
   28CHL1    C9 3215   6.465   2.098   6.073  1.2043  0.5062 -0.6100
   28CHL1    H9 3216   6.477   2.207   6.085 -1.0939  0.8010 -0.5532
   28CHL1   C10 3217   6.485   2.037   6.226 -0.0920  0.0083  0.3600
   28CHL1   C19 3218   6.523   1.889   6.204  0.4626  0.2452 -0.2089
   28CHL1  H19A 3219   6.620   1.881   6.151  1.5296 -1.3265  1.8158
   28CHL1  H19B 3220   6.539   1.838   6.302  0.1034  1.6934  0.6214
   28CHL1  H19C 3221   6.444   1.835   6.147  1.1699 -0.1518 -0.8268
   28CHL1    C1 3222   6.604   2.113   6.296 -0.6176  0.3567  0.2059
   28CHL1   H1A 3223   6.703   2.094   6.248 -1.9361 -1.0111 -2.1583
   28CHL1   H1B 3224   6.571   2.219   6.300 -2.2763 -0.1321  0.4233
   28CHL1    C2 3225   6.622   2.073   6.444 -0.3242  0.3658  0.0009
   28CHL1   H2A 3226   6.706   2.137   6.479 -0.3829  0.3997  0.0815
   28CHL1   H2B 3227   6.673   1.975   6.454  1.2086  0.8325 -2.3557
   28CHL1   C20 3228   6.406   2.084   5.516 -0.5026 -0.2952  0.1893
   28CHL1   H20 3229   6.342   1.994   5.509 -1.1497  0.1479  0.2258
   28CHL1   C21 3230   6.559   2.067   5.502 -0.4409 -0.1880  0.3067
   28CHL1  H21A 3231   6.589   2.036   5.400 -3.2853 -0.3720 -0.5564
   28CHL1  H21B 3232   6.596   1.980   5.561  2.3874  0.9328  0.2909
   28CHL1  H21C 3233   6.613   2.161   5.526  1.3132 -0.5217 -2.0909
   28CHL1   C22 3234   6.357   2.181   5.398  0.0383  0.4804  0.2237
   28CHL1  H22A 3235   6.262   2.238   5.410 -0.1510  0.3577 -0.6343
   28CHL1  H22B 3236   6.442   2.249   5.376 -0.5812  1.1913 -0.0185
   28CHL1   C23 3237   6.325   2.103   5.261 -0.4694  0.4560 -0.1150
   28CHL1  H23A 3238   6.340   2.184   5.187  3.8157  0.1117  0.1403
   28CHL1  H23B 3239   6.400   2.027   5.233 -0.7659 -0.5761  1.6929
   28CHL1   C24 3240   6.192   2.034   5.256  0.4768 -0.7784 -1.0577
   28CHL1  H24A 3241   6.190   1.953   5.333 -0.0279 -1.1534 -1.4561
   28CHL1  H24B 3242   6.106   2.102   5.276  1.0243  0.6028 -3.1907
   28CHL1   C25 3243   6.162   1.952   5.132 -0.2556  0.0727 -0.6902
   28CHL1   H25 3244   6.235   1.868   5.135  0.1170  0.4208  0.7373
   28CHL1   C26 3245   6.022   1.895   5.139  0.1076  0.3597  0.0371
   28CHL1  H26A 3246   5.999   1.834   5.049  3.1770 -0.5607 -0.2378
   28CHL1  H26B 3247   6.024   1.837   5.233  0.5522  2.6573  1.5167
   28CHL1  H26C 3248   5.955   1.984   5.148  0.2811  0.5115 -0.1567
   28CHL1   C27 3249   6.168   2.041   5.007  0.2369 -0.5425  0.1192
   28CHL1  H27A 3250   6.161   1.984   4.911  0.6916 -1.0420  0.3792
   28CHL1  H27B 3251   6.075   2.101   5.017 -0.2746 -1.2595 -0.2843
   28CHL1  H27C 3252   6.264   2.097   4.995 -1.0218  1.9446  0.9402
   29CHL1    C3 3253   2.788   5.564   6.507 -0.5383  0.3757  0.2363
   29CHL1    H3 3254   2.723   5.478   6.478  1.4803 -0.8089 -1.0497
   29CHL1    O3 3255   2.783   5.598   6.647 -0.3879 -0.8442 -0.2771
   29CHL1   H3' 3256   2.860   5.653   6.663 -0.4702 -0.8793  0.2652
   29CHL1    C4 3257   2.933   5.523   6.464 -0.3310  0.3240  0.6303
   29CHL1   H4A 3258   3.005   5.590   6.515 -0.8011  1.2886  0.0757
   29CHL1   H4B 3259   2.952   5.427   6.515 -0.3962 -0.5491 -0.9209
   29CHL1    C5 3260   2.963   5.530   6.313 -0.0397  0.2601  0.3730
   29CHL1    C6 3261   3.007   5.423   6.238  0.7208  0.0196 -0.1005
   29CHL1    H6 3262   3.028   5.333   6.297 -0.8356 -0.1188  0.2838
   29CHL1    C7 3263   3.037   5.428   6.088  0.2787  0.3148 -0.7901
   29CHL1   H7A 3264   3.125   5.364   6.067 -0.8993 -2.1440  1.2069
   29CHL1   H7B 3265   2.946   5.388   6.038  0.6578 -2.0962  0.2599
   29CHL1    C8 3266   3.060   5.569   6.050 -0.3280 -0.4681  0.6857
   29CHL1    H8 3267   3.149   5.616   6.097  0.4559 -1.7871  0.5659
   29CHL1   C14 3268   3.074   5.568   5.892  0.0298  0.7369 -0.0285
   29CHL1   H14 3269   2.975   5.528   5.862  0.1205  0.1920  0.3955
   29CHL1   C15 3270   3.188   5.487   5.829 -0.1003 -0.4217 -0.1520
   29CHL1  H15A 3271   3.286   5.511   5.875 -0.0573 -0.5432 -0.1790
   29CHL1  H15B 3272   3.162   5.381   5.850 -1.2597  0.4349  3.3190
   29CHL1   C16 3273   3.180   5.527   5.678 -0.1474 -0.6169 -0.4956
   29CHL1  H16A 3274   3.285   5.559   5.659 -0.5726  1.4817  0.4645
   29CHL1  H16B 3275   3.142   5.451   5.606  0.1777 -1.2800  0.0144
   29CHL1   C17 3276   3.095   5.658   5.676  0.2613 -0.7067  0.0114
   29CHL1   H17 3277   2.991   5.646   5.639  0.2891 -2.4871  0.4291
   29CHL1   C13 3278   3.081   5.709   5.828  0.5021 -0.0487  0.2692
   29CHL1   C18 3279   3.203   5.779   5.884 -0.1901 -0.0995  0.0296
   29CHL1  H18A 3280   3.201   5.883   5.844  0.3973 -0.3961 -0.7824
   29CHL1  H18B 3281   3.215   5.793   5.994  0.0086  2.3159 -0.2378
   29CHL1  H18C 3282   3.295   5.731   5.846 -1.3885 -1.5531 -1.1468
   29CHL1   C12 3283   2.943   5.771   5.861 -0.0127  1.0236  0.2359
   29CHL1  H12A 3284   2.926   5.859   5.797  1.2005 -0.4383 -2.2386
   29CHL1  H12B 3285   2.862   5.703   5.827  1.0999 -0.1724 -0.1151
   29CHL1   C11 3286   2.921   5.779   6.011 -0.4516 -1.0708  0.2756
   29CHL1  H11A 3287   2.983   5.859   6.056  0.7023 -0.8142 -1.6421
   29CHL1  H11B 3288   2.815   5.813   6.011  0.2302  1.3342 -1.1366
   29CHL1    C9 3289   2.937   5.649   6.091 -0.0280  0.4091 -0.0229
   29CHL1    H9 3290   2.850   5.587   6.060  1.7093 -1.8430 -0.6842
   29CHL1   C10 3291   2.925   5.657   6.248 -0.0172  0.4961  0.0399
   29CHL1   C19 3292   3.020   5.772   6.300  0.0855  0.7297 -0.2134
   29CHL1  H19A 3293   3.012   5.777   6.411 -0.1573 -1.9749 -0.0369
   29CHL1  H19B 3294   3.125   5.748   6.272 -0.3610 -1.3201 -0.3270
   29CHL1  H19C 3295   2.980   5.869   6.265 -1.3753 -0.0965 -0.9060
   29CHL1    C1 3296   2.774   5.694   6.281  0.2416 -0.1519 -0.1215
   29CHL1   H1A 3297   2.749   5.791   6.233 -0.8490 -1.3162 -2.1013
   29CHL1   H1B 3298   2.707   5.619   6.232 -1.3831  1.0641  0.1578
   29CHL1    C2 3299   2.739   5.690   6.434  0.0508 -0.3518 -0.0459
   29CHL1   H2A 3300   2.629   5.703   6.446 -0.2582 -2.3407 -0.4424
   29CHL1   H2B 3301   2.789   5.779   6.478  0.9108  1.1539 -3.6890
   29CHL1   C20 3302   3.157   5.761   5.589 -0.2540 -0.7391  0.1091
   29CHL1   H20 3303   3.259   5.782   5.627 -0.6662  0.4115  0.6039
   29CHL1   C21 3304   3.069   5.890   5.582 -0.2178  0.8379 -0.7344
   29CHL1  H21A 3305   3.107   5.958   5.503  0.7444  0.9014 -0.2307
   29CHL1  H21B 3306   3.091   5.954   5.670  0.4424 -0.1714 -0.1498
   29CHL1  H21C 3307   2.962   5.866   5.565 -0.0246 -0.7199  0.0524
   29CHL1   C22 3308   3.186   5.712   5.440 -0.5728 -0.0041  0.7496
   29CHL1  H22A 3309   3.248   5.794   5.399 -0.4478 -1.3936 -2.0795
   29CHL1  H22B 3310   3.261   5.631   5.454  1.6142  2.0291  1.4282
   29CHL1   C23 3311   3.073   5.668   5.343  0.0085 -0.5573  0.1494
   29CHL1  H23A 3312   3.015   5.583   5.384  0.4828 -0.5769  0.8091
   29CHL1  H23B 3313   2.998   5.750   5.340 -0.8267 -1.3446 -2.5060
   29CHL1   C24 3314   3.111   5.641   5.198  0.0744 -0.2024 -0.3331
   29CHL1  H24A 3315   3.012   5.627   5.149 -0.0423  3.2043 -1.3196
   29CHL1  H24B 3316   3.157   5.733   5.156  0.0017  0.1968  0.4444
   29CHL1   C25 3317   3.195   5.513   5.174  0.1111  0.4396  0.0343
   29CHL1   H25 3318   3.289   5.513   5.233 -0.0148  0.3249  0.2319
   29CHL1   C26 3319   3.112   5.386   5.200  0.2519 -0.0271  0.2459
   29CHL1  H26A 3320   3.170   5.297   5.169  2.0594  1.0499  0.3787
   29CHL1  H26B 3321   3.090   5.375   5.309  0.6190  3.0491  0.7233
   29CHL1  H26C 3322   3.016   5.389   5.143  0.4045  0.3583  0.0050
   29CHL1   C27 3323   3.249   5.522   5.035 -0.6006 -0.2744 -0.0512
   29CHL1  H27A 3324   3.305   5.616   5.012  2.0536 -1.1665  2.2324
   29CHL1  H27B 3325   3.321   5.440   5.018  1.1169  0.5996  2.3784
   29CHL1  H27C 3326   3.171   5.516   4.956 -1.3834 -0.4643  0.7170
   30CHL1    C3 3327   5.312   4.456   6.585  0.8531 -0.3376 -0.6573
   30CHL1    H3 3328   5.339   4.353   6.553  2.3913  0.5400 -2.4168
   30CHL1    O3 3329   5.320   4.469   6.729 -0.4067 -0.1227 -0.4117
   30CHL1   H3' 3330   5.376   4.546   6.742 -1.2230  0.0775  2.6257
   30CHL1    C4 3331   5.406   4.560   6.520 -0.3061 -0.8600  0.4430
   30CHL1   H4A 3332   5.397   4.661   6.566  0.2263 -0.6933  0.1877
   30CHL1   H4B 3333   5.509   4.529   6.547  0.5476 -0.8857 -2.4956
   30CHL1    C5 3334   5.403   4.543   6.372 -0.3040  0.4795  0.0488
   30CHL1    C6 3335   5.505   4.500   6.292  0.9669 -0.6753 -0.2151
   30CHL1    H6 3336   5.603   4.475   6.333  0.1094  0.3140  2.6440
   30CHL1    C7 3337   5.502   4.494   6.141 -0.3228 -0.0609 -0.4030
   30CHL1   H7A 3338   5.594   4.544   6.104 -0.7084  0.4919 -0.6308
   30CHL1   H7B 3339   5.509   4.386   6.115  1.0135 -0.7900  2.5702
   30CHL1    C8 3340   5.379   4.561   6.074  0.5509 -0.2938  0.9065
   30CHL1    H8 3341   5.409   4.667   6.064  1.1477 -0.5896 -0.7966
   30CHL1   C14 3342   5.365   4.504   5.933 -0.3032  0.4583  0.2523
   30CHL1   H14 3343   5.344   4.396   5.948  1.0083 -0.1720 -2.0735
   30CHL1   C15 3344   5.492   4.509   5.839  0.4029 -0.0554 -0.2217
   30CHL1  H15A 3345   5.538   4.610   5.845  0.0208  0.0441  1.9059
   30CHL1  H15B 3346   5.574   4.437   5.858  2.4545  1.8146 -1.5367
   30CHL1   C16 3347   5.428   4.481   5.702  0.4320  0.1689 -0.6408
   30CHL1  H16A 3348   5.467   4.555   5.629  1.4191 -0.1520 -0.4542
   30CHL1  H16B 3349   5.464   4.384   5.663  2.1240  0.1684  0.7770
   30CHL1   C17 3350   5.268   4.485   5.719  0.2709 -0.3854 -0.3126
   30CHL1   H17 3351   5.231   4.380   5.727 -1.5056  0.2196 -0.1645
   30CHL1   C13 3352   5.246   4.560   5.857  0.6667  0.3996 -0.9411
   30CHL1   C18 3353   5.263   4.714   5.836  0.9315  0.0652 -0.2082
   30CHL1  H18A 3354   5.263   4.764   5.935 -1.1129  1.6154 -0.9243
   30CHL1  H18B 3355   5.362   4.722   5.785  0.9697 -2.2486 -0.6314
   30CHL1  H18C 3356   5.182   4.759   5.775 -1.7726 -0.5692  2.6356
   30CHL1   C12 3357   5.114   4.522   5.941 -0.4585 -0.2800  1.2514
   30CHL1  H12A 3358   5.022   4.565   5.896 -2.4861 -4.4774  0.8996
   30CHL1  H12B 3359   5.105   4.411   5.942  1.8553 -0.5357 -0.2802
   30CHL1   C11 3360   5.123   4.583   6.078 -0.0995  0.9069 -0.0661
   30CHL1  H11A 3361   5.117   4.694   6.079  0.1990  0.9279  1.6254
   30CHL1  H11B 3362   5.036   4.558   6.142  0.6526  0.3173  0.7462
   30CHL1    C9 3363   5.251   4.533   6.155  0.0341  0.1560  0.0637
   30CHL1    H9 3364   5.249   4.422   6.149  2.1565  0.1375 -1.5758
   30CHL1   C10 3365   5.262   4.576   6.310 -0.1864  0.7013 -0.3633
   30CHL1   C19 3366   5.230   4.722   6.313 -0.0776 -0.4243 -0.2311
   30CHL1  H19A 3367   5.266   4.766   6.409  1.4132  1.3450 -1.5142
   30CHL1  H19B 3368   5.279   4.779   6.231  1.5255  0.9927  1.5991
   30CHL1  H19C 3369   5.124   4.751   6.297 -0.3095 -0.9487  0.3433
   30CHL1    C1 3370   5.156   4.492   6.390  0.3501  0.3188 -0.6263
   30CHL1   H1A 3371   5.057   4.530   6.355  0.2842  0.8838  0.1332
   30CHL1   H1B 3372   5.184   4.387   6.369  0.5529  0.2775 -0.1692
   30CHL1    C2 3373   5.171   4.498   6.545 -0.6346  0.0396  0.4766
   30CHL1   H2A 3374   5.101   4.429   6.597  0.9450 -0.6301  1.8321
   30CHL1   H2B 3375   5.144   4.598   6.584 -1.6812 -0.0971  0.1336
   30CHL1   C20 3376   5.211   4.545   5.598 -0.0440  0.3008  0.3694
   30CHL1   H20 3377   5.238   4.652   5.585 -1.9754  0.8823  0.9063
   30CHL1   C21 3378   5.052   4.541   5.614 -1.4602 -0.7629  0.3318
   30CHL1  H21A 3379   5.005   4.564   5.516 -1.2306 -3.2282 -0.4003
   30CHL1  H21B 3380   5.026   4.616   5.693  0.8989 -0.2961  0.7453
   30CHL1  H21C 3381   5.020   4.442   5.653 -3.8506  0.1688  0.9024
   30CHL1   C22 3382   5.244   4.465   5.465 -0.1077  0.1030  0.5034
   30CHL1  H22A 3383   5.352   4.438   5.466  0.3665  1.4553 -2.4360
   30CHL1  H22B 3384   5.180   4.375   5.454 -2.3037  1.5651  0.6600
   30CHL1   C23 3385   5.222   4.551   5.342  0.3046 -0.2941 -0.2442
   30CHL1  H23A 3386   5.119   4.595   5.345  1.1606  1.7845  1.3963
   30CHL1  H23B 3387   5.296   4.633   5.349 -1.2622  1.0739  1.6550
   30CHL1   C24 3388   5.238   4.465   5.220 -0.2453 -0.4225  0.3373
   30CHL1  H24A 3389   5.330   4.402   5.218 -0.5296 -0.8259 -0.6954
   30CHL1  H24B 3390   5.155   4.393   5.205 -0.5254 -0.9634  3.8288
   30CHL1   C25 3391   5.248   4.552   5.090  0.1250 -0.4748 -0.3384
   30CHL1   H25 3392   5.312   4.643   5.101  1.9767 -1.3312 -3.0023
   30CHL1   C26 3393   5.309   4.465   4.972 -0.1328  0.0152  0.1339
   30CHL1  H26A 3394   5.232   4.402   4.922 -0.4788  0.6193 -0.0973
   30CHL1  H26B 3395   5.339   4.545   4.901  1.0979 -0.3003  0.2718
   30CHL1  H26C 3396   5.404   4.414   5.002 -0.2681 -0.1118  0.3484
   30CHL1   C27 3397   5.106   4.605   5.059 -0.0380 -0.3672  0.2724
   30CHL1  H27A 3398   5.055   4.509   5.034  1.3913 -0.7831 -1.2631
   30CHL1  H27B 3399   5.067   4.664   5.145 -4.5657  0.1538 -1.8418
   30CHL1  H27C 3400   5.104   4.666   4.966 -0.1289  0.3235  0.7187
   31CHL1    C3 3401   3.702   5.122   6.718 -1.1461 -0.5821 -0.7720
   31CHL1    H3 3402   3.651   5.023   6.709 -2.7849  0.0587  0.8592
   31CHL1    O3 3403   3.701   5.164   6.860  0.6928 -0.1285  1.0761
   31CHL1   H3' 3404   3.734   5.254   6.857  0.0804  0.1035  1.1467
   31CHL1    C4 3405   3.849   5.096   6.680 -0.4829 -0.0226 -0.1249
   31CHL1   H4A 3406   3.911   5.182   6.710  1.8420 -0.0808 -4.0077
   31CHL1   H4B 3407   3.894   5.018   6.744  1.7026 -0.7150 -2.3416
   31CHL1    C5 3408   3.881   5.055   6.542  0.0057 -0.5351  0.7089
   31CHL1    C6 3409   3.939   4.940   6.505  0.9384  0.0199  0.5821
   31CHL1    H6 3410   3.975   4.870   6.582  0.7264  0.7029  1.3250
   31CHL1    C7 3411   3.970   4.917   6.358 -0.4107  0.0622 -0.0461
   31CHL1   H7A 3412   4.074   4.878   6.352 -0.4286 -0.6878  2.9356
   31CHL1   H7B 3413   3.904   4.834   6.326 -1.8715  1.5710 -1.0990
   31CHL1    C8 3414   3.962   5.029   6.260 -0.0877  0.0159  0.3031
   31CHL1    H8 3415   4.045   5.098   6.286 -0.8558  2.0156 -2.1576
   31CHL1   C14 3416   3.967   4.981   6.121  0.3196 -0.1941 -0.6516
   31CHL1   H14 3417   3.872   4.925   6.106  0.3448 -0.9549  1.5827
   31CHL1   C15 3418   4.089   4.879   6.076  0.1180  0.1711  0.1316
   31CHL1  H15A 3419   4.180   4.918   6.126  0.9046 -1.3192 -0.1058
   31CHL1  H15B 3420   4.062   4.777   6.109  1.0054 -0.8672 -2.1618
   31CHL1   C16 3421   4.089   4.887   5.925  0.0665 -0.2524  0.1011
   31CHL1  H16A 3422   4.192   4.906   5.889 -0.3722 -0.1966 -1.2033
   31CHL1  H16B 3423   4.051   4.792   5.881 -1.5180  0.2895  0.2136
   31CHL1   C17 3424   3.979   4.999   5.891 -0.7634 -0.6588 -0.0004
   31CHL1   H17 3425   3.883   4.943   5.892 -0.5616 -1.0541 -1.1047
   31CHL1   C13 3426   3.965   5.089   6.012  0.0081 -0.1053 -0.8003
   31CHL1   C18 3427   4.087   5.184   6.026 -0.7671  0.3755 -0.1010
   31CHL1  H18A 3428   4.089   5.261   5.946 -1.6252  1.8527  1.2471
   31CHL1  H18B 3429   4.099   5.244   6.118 -1.0445 -0.1720  0.2954
   31CHL1  H18C 3430   4.178   5.125   6.003  0.1580  3.1494 -5.1434
   31CHL1   C12 3431   3.836   5.172   6.040  0.9033 -0.3889 -0.5505
   31CHL1  H12A 3432   3.836   5.263   5.976 -0.8146  1.8700  2.3891
   31CHL1  H12B 3433   3.745   5.111   6.025  0.5715 -0.9262  2.7417
   31CHL1   C11 3434   3.813   5.212   6.185 -0.3246  0.0536  0.7263
   31CHL1  H11A 3435   3.893   5.286   6.204  0.6478 -1.2032  1.7529
   31CHL1  H11B 3436   3.718   5.266   6.204  0.6785  1.6282  1.4040
   31CHL1    C9 3437   3.832   5.107   6.293 -0.5610  0.6425  0.2749
   31CHL1    H9 3438   3.758   5.027   6.271  2.0625 -2.1125  0.7870
   31CHL1   C10 3439   3.820   5.154   6.439  0.4619 -0.3760 -1.3308
   31CHL1   C19 3440   3.898   5.288   6.461  0.1776  0.1106 -0.3006
   31CHL1  H19A 3441   3.920   5.322   6.564  1.2157  0.4893 -0.6348
   31CHL1  H19B 3442   3.999   5.265   6.420  1.1887  1.4968  1.2820
   31CHL1  H19C 3443   3.848   5.373   6.410  1.3857  1.8329  1.2551
   31CHL1    C1 3444   3.669   5.177   6.481 -0.0970  0.1189  0.4557
   31CHL1   H1A 3445   3.626   5.248   6.407  0.5877 -0.3787 -0.4417
   31CHL1   H1B 3446   3.627   5.075   6.467  1.2009 -0.3299 -0.3977
   31CHL1    C2 3447   3.644   5.226   6.622 -0.0771  0.2170 -0.3595
   31CHL1   H2A 3448   3.542   5.260   6.651  0.1646 -0.9522  2.1079
   31CHL1   H2B 3449   3.709   5.313   6.643 -1.8654  1.9046 -1.4045
   31CHL1   C20 3450   4.006   5.063   5.762 -0.8557 -0.0127  1.3375
   31CHL1   H20 3451   4.075   5.149   5.779  0.4712 -0.8592  0.3756
   31CHL1   C21 3452   3.873   5.112   5.710  0.2723  0.6796  0.8123
   31CHL1  H21A 3453   3.885   5.197   5.639  0.0172  0.4324  0.4742
   31CHL1  H21B 3454   3.799   5.135   5.791 -1.7985  1.0978 -1.0908
   31CHL1  H21C 3455   3.819   5.036   5.650 -1.2768  2.9330 -0.8124
   31CHL1   C22 3456   4.075   4.977   5.643 -0.9097  0.1379 -0.0788
   31CHL1  H22A 3457   4.179   4.971   5.681 -0.8525 -0.0808 -0.2656
   31CHL1  H22B 3458   4.029   4.876   5.642  2.0773 -1.3130 -0.2628
   31CHL1   C23 3459   4.071   5.038   5.503 -0.2407  0.3116  0.0233
   31CHL1  H23A 3460   3.968   5.033   5.462 -0.6004  0.3846  0.8984
   31CHL1  H23B 3461   4.097   5.145   5.518  0.0340  0.2358  0.0973
   31CHL1   C24 3462   4.170   4.967   5.401  0.4180 -0.2837 -0.3982
   31CHL1  H24A 3463   4.273   4.990   5.434 -0.2456  1.1740  0.7947
   31CHL1  H24B 3464   4.141   4.860   5.396  2.0396 -0.7707 -0.0335
   31CHL1   C25 3465   4.151   5.029   5.265 -0.6490  0.0673  0.4740
   31CHL1   H25 3466   4.043   5.032   5.241 -0.6023  1.3602  0.3681
   31CHL1   C26 3467   4.205   5.172   5.250  0.4026 -0.2403 -0.8802
   31CHL1  H26A 3468   4.305   5.166   5.299  0.4716 -0.2391 -1.0199
   31CHL1  H26B 3469   4.198   5.200   5.143 -1.7298 -0.0063 -0.7127
   31CHL1  H26C 3470   4.139   5.242   5.305 -0.8888 -1.5384 -0.7362
   31CHL1   C27 3471   4.227   4.937   5.162  0.4185 -0.2912 -0.1388
   31CHL1  H27A 3472   4.248   4.990   5.067 -0.1849 -1.4695 -0.9547
   31CHL1  H27B 3473   4.322   4.888   5.195  0.8415 -0.9572 -2.2208
   31CHL1  H27C 3474   4.156   4.853   5.150  1.0789 -0.7598 -0.8536
   32CHL1    C3 3475   4.881   2.479   6.175 -0.7948 -0.1309 -1.2714
   32CHL1    H3 3476   4.810   2.562   6.151 -0.9669  0.1164  0.0224
   32CHL1    O3 3477   4.914   2.479   6.319 -0.5628  0.5174  0.3559
   32CHL1   H3' 3478   4.960   2.562   6.334  0.8916  0.7057 -3.7757
   32CHL1    C4 3479   4.802   2.348   6.134  0.6133 -0.0700 -0.0499
   32CHL1   H4A 3480   4.864   2.263   6.172 -0.2287 -1.0016 -0.7070
   32CHL1   H4B 3481   4.714   2.343   6.201  0.8360 -0.0871  0.2446
   32CHL1    C5 3482   4.782   2.337   5.988 -0.2244 -0.7047  0.1068
   32CHL1    C6 3483   4.654   2.322   5.946 -0.2228  0.5380 -0.0928
   32CHL1    H6 3484   4.578   2.301   6.023 -2.0886  3.1792 -1.0656
   32CHL1    C7 3485   4.613   2.308   5.800 -0.4173  0.3925 -0.1955
   32CHL1   H7A 3486   4.542   2.225   5.778 -0.3525  0.7142 -1.6854
   32CHL1   H7B 3487   4.553   2.396   5.770  0.1375  0.5337 -0.9039
   32CHL1    C8 3488   4.737   2.286   5.707  0.4908 -0.1564  0.9530
   32CHL1    H8 3489   4.775   2.181   5.710 -0.2220 -0.4016  1.4783
   32CHL1   C14 3490   4.689   2.311   5.570  0.4884 -0.3603  0.6843
   32CHL1   H14 3491   4.655   2.417   5.566 -2.4669 -1.2296 -1.1293
   32CHL1   C15 3492   4.564   2.235   5.515  0.5761  0.6527  0.0485
   32CHL1  H15A 3493   4.559   2.133   5.561  0.2991 -0.2181 -1.8049
   32CHL1  H15B 3494   4.475   2.292   5.548  0.0867 -1.1937  2.1990
   32CHL1   C16 3495   4.584   2.222   5.363 -0.1741 -0.1314  0.0535
   32CHL1  H16A 3496   4.616   2.117   5.346 -0.3622 -0.2289  0.3119
   32CHL1  H16B 3497   4.492   2.250   5.308 -0.2662  1.2689  0.8775
   32CHL1   C17 3498   4.711   2.312   5.330 -0.1260  0.5331  0.5553
   32CHL1   H17 3499   4.673   2.417   5.325 -2.8300 -0.4094 -0.6970
   32CHL1   C13 3500   4.796   2.302   5.461  0.1622  0.1261 -0.2816
   32CHL1   C18 3501   4.867   2.161   5.471  0.0776  0.2464  0.5518
   32CHL1  H18A 3502   4.927   2.155   5.564 -0.1903  1.5612  0.8258
   32CHL1  H18B 3503   4.791   2.080   5.476 -1.7236  1.8524  0.4368
   32CHL1  H18C 3504   4.934   2.139   5.386 -0.4640 -3.8271  0.9706
   32CHL1   C12 3505   4.888   2.427   5.486 -0.3302 -0.0703 -0.2685
   32CHL1  H12A 3506   4.975   2.437   5.418  0.0886  0.7998  0.3816
   32CHL1  H12B 3507   4.822   2.515   5.475  1.1327  1.0383 -0.4115
   32CHL1   C11 3508   4.945   2.414   5.630 -0.9610  0.2171 -0.1102
   32CHL1  H11A 3509   5.025   2.337   5.629 -1.9042 -0.8383  1.1472
   32CHL1  H11B 3510   5.003   2.503   5.660  0.4660 -1.0377  0.9996
   32CHL1    C9 3511   4.850   2.386   5.746 -0.2627 -0.0474 -0.0541
   32CHL1    H9 3512   4.784   2.475   5.758  0.3810  0.2054  2.0988
   32CHL1   C10 3513   4.905   2.355   5.889 -0.2469  0.0271 -0.3630
   32CHL1   C19 3514   4.986   2.227   5.892 -0.5467  0.2288 -0.4535
   32CHL1  H19A 3515   5.066   2.234   5.815 -1.4360  0.3254 -1.3833
   32CHL1  H19B 3516   5.036   2.218   5.991 -0.8012  2.0525 -0.1243
   32CHL1  H19C 3517   4.920   2.140   5.871 -0.2919  0.7385 -3.8896
   32CHL1    C1 3518   4.987   2.476   5.939 -0.4381 -0.5279  0.6370
   32CHL1   H1A 3519   5.082   2.472   5.883 -0.8710  2.1056 -0.4454
   32CHL1   H1B 3520   4.953   2.580   5.917  1.3212  0.2065  1.2056
   32CHL1    C2 3521   5.007   2.485   6.087  0.4907 -0.1059  0.3206
   32CHL1   H2A 3522   5.051   2.583   6.114  2.0250 -0.2037 -1.6025
   32CHL1   H2B 3523   5.080   2.407   6.119 -0.9753 -1.1309  1.2621
   32CHL1   C20 3524   4.777   2.279   5.200  0.6430 -0.7055 -0.4284
   32CHL1   H20 3525   4.817   2.175   5.206  2.4517  0.0160  0.8972
   32CHL1   C21 3526   4.904   2.362   5.168  0.8429  0.1406 -0.0946
   32CHL1  H21A 3527   4.987   2.341   5.238 -0.0167 -2.7890  0.1858
   32CHL1  H21B 3528   4.881   2.471   5.177 -1.2135 -0.2880  0.2228
   32CHL1  H21C 3529   4.948   2.339   5.069 -1.3824 -1.5823 -0.7689
   32CHL1   C22 3530   4.667   2.292   5.087 -0.0679 -1.0063  0.6158
   32CHL1  H22A 3531   4.586   2.218   5.107  0.0959 -1.7922 -1.3895
   32CHL1  H22B 3532   4.621   2.393   5.085 -0.3408 -1.1409 -0.2285
   32CHL1   C23 3533   4.724   2.257   4.946 -0.9443 -0.5502 -0.4393
   32CHL1  H23A 3534   4.647   2.255   4.866 -1.0149  0.1525 -0.3924
   32CHL1  H23B 3535   4.793   2.336   4.909  0.0301 -1.8802 -1.5727
   32CHL1   C24 3536   4.791   2.121   4.939 -0.4177  0.1824 -0.3258
   32CHL1  H24A 3537   4.877   2.114   5.008  0.2066 -0.2417 -1.1244
   32CHL1  H24B 3538   4.713   2.050   4.975  0.0316  0.1888  0.6832
   32CHL1   C25 3539   4.856   2.084   4.796  0.3874 -0.4079  0.1388
   32CHL1   H25 3540   4.767   2.082   4.728  0.6692  1.0632 -0.2902
   32CHL1   C26 3541   4.955   2.192   4.746 -0.2452  0.2436 -0.2438
   32CHL1  H26A 3542   5.003   2.148   4.656 -0.7913 -1.5032  0.2863
   32CHL1  H26B 3543   4.894   2.281   4.719  1.3729  0.8421 -2.2175
   32CHL1  H26C 3544   5.017   2.217   4.835 -0.0798  1.1516 -0.6008
   32CHL1   C27 3545   4.927   1.949   4.788  0.2855  0.5123 -0.3942
   32CHL1  H27A 3546   4.977   1.915   4.695  0.8954  2.2545 -0.7365
   32CHL1  H27B 3547   5.009   1.941   4.863 -0.9221  1.3549  1.0822
   32CHL1  H27C 3548   4.851   1.871   4.810  1.4084 -0.0639  1.7504
   33CHL1    C3 3549   2.860   3.845   6.415 -0.0148  0.3619 -0.8180
   33CHL1    H3 3550   2.938   3.767   6.432 -1.1711 -0.6913 -0.1970
   33CHL1    O3 3551   2.802   3.862   6.544  0.3669 -0.0360 -0.2858
   33CHL1   H3' 3552   2.750   3.942   6.552 -1.8551 -1.5281  1.5206
   33CHL1    C4 3553   2.942   3.968   6.368 -0.0632  0.2851  0.4746
   33CHL1   H4A 3554   2.881   4.060   6.379  2.7565  2.9565 -3.5250
   33CHL1   H4B 3555   3.029   3.969   6.438  0.5455 -2.6128 -0.1051
   33CHL1    C5 3556   2.982   3.956   6.223  0.4147  0.4151 -0.7454
   33CHL1    C6 3557   3.109   3.957   6.184  0.7488  0.9920  0.2288
   33CHL1    H6 3558   3.185   3.979   6.261 -0.7154  2.4653  1.3215
   33CHL1    C7 3559   3.168   3.940   6.044  0.0276 -1.0018  0.5411
   33CHL1   H7A 3560   3.261   3.998   6.027 -1.5172  0.6095 -3.9230
   33CHL1   H7B 3561   3.189   3.833   6.024  0.3903 -0.7211 -0.6467
   33CHL1    C8 3562   3.053   3.962   5.944  0.0676  0.0566  0.4976
   33CHL1    H8 3563   3.029   4.071   5.946 -0.8531 -0.1239 -0.0242
   33CHL1   C14 3564   3.098   3.920   5.805  0.0681 -0.3503 -0.1923
   33CHL1   H14 3565   3.125   3.812   5.812  0.9713 -0.1564 -0.5632
   33CHL1   C15 3566   3.233   3.977   5.756  0.3553 -0.1583  1.2119
   33CHL1  H15A 3567   3.232   4.087   5.762 -1.1080  0.0257 -0.9198
   33CHL1  H15B 3568   3.325   3.940   5.805  1.6933  0.9019 -0.3805
   33CHL1   C16 3569   3.225   3.944   5.600  0.1027 -0.2444  0.3127
   33CHL1  H16A 3570   3.242   4.040   5.548  1.4024  0.1682  1.4138
   33CHL1  H16B 3571   3.297   3.870   5.557 -0.3826 -0.1462 -0.6854
   33CHL1   C17 3572   3.077   3.903   5.557  0.1797 -0.2392  0.1345
   33CHL1   H17 3573   3.077   3.793   5.546  2.7138 -0.1177 -1.9736
   33CHL1   C13 3574   2.997   3.934   5.688 -0.7954  0.2611 -0.8272
   33CHL1   C18 3575   2.949   4.082   5.688 -0.1667 -0.2067 -0.4018
   33CHL1  H18A 3576   3.039   4.147   5.684 -0.4395  0.1412 -1.1249
   33CHL1  H18B 3577   2.880   4.093   5.601  1.6710  1.2247 -1.7858
   33CHL1  H18C 3578   2.891   4.103   5.780  0.5045 -1.4083  0.3173
   33CHL1   C12 3579   2.880   3.842   5.734  0.3188  0.2935 -0.0247
   33CHL1  H12A 3580   2.810   3.825   5.650 -0.9261 -0.6728  1.1796
   33CHL1  H12B 3581   2.931   3.743   5.743 -0.6713 -0.0480  2.5451
   33CHL1   C11 3582   2.816   3.877   5.867  0.1234  0.1541 -0.9107
   33CHL1  H11A 3583   2.754   3.969   5.862  0.6078  0.5306 -0.0530
   33CHL1  H11B 3584   2.747   3.796   5.897  1.1690 -0.6986 -0.7557
   33CHL1    C9 3585   2.928   3.883   5.977 -0.0393  0.2519 -0.4570
   33CHL1    H9 3586   2.957   3.776   5.983 -1.3699 -0.3959 -3.4152
   33CHL1   C10 3587   2.879   3.921   6.117  0.2702 -0.0761 -0.3129
   33CHL1   C19 3588   2.770   4.035   6.104 -0.8011 -0.0021 -0.5269
   33CHL1  H19A 3589   2.680   3.994   6.053 -2.4405  2.0575  0.5415
   33CHL1  H19B 3590   2.722   4.070   6.198 -0.2374  0.1475 -0.2916
   33CHL1  H19C 3591   2.826   4.119   6.057  2.4846 -1.3069  0.7995
   33CHL1    C1 3592   2.811   3.793   6.171 -0.1414 -0.2551 -0.5519
   33CHL1   H1A 3593   2.721   3.762   6.114 -1.5500 -1.1285  1.9964
   33CHL1   H1B 3594   2.878   3.704   6.176 -1.8913 -1.6442 -0.5894
   33CHL1    C2 3595   2.750   3.805   6.318  0.5276 -0.4107  0.8044
   33CHL1   H2A 3596   2.709   3.707   6.351  0.0946 -1.0530 -1.4787
   33CHL1   H2B 3597   2.669   3.881   6.316  2.3958  1.8261  3.1569
   33CHL1   C20 3598   3.028   3.963   5.422 -0.8289 -0.4009  0.3419
   33CHL1   H20 3599   3.024   4.074   5.426  0.2084 -0.3834  2.6693
   33CHL1   C21 3600   2.882   3.919   5.384  0.4297 -0.1128 -0.0415
   33CHL1  H21A 3601   2.800   3.947   5.454 -1.0609 -2.0152 -0.9176
   33CHL1  H21B 3602   2.868   3.812   5.361 -1.4062  0.4837 -2.0493
   33CHL1  H21C 3603   2.849   3.971   5.291 -1.3808  0.9548  1.1233
   33CHL1   C22 3604   3.132   3.932   5.308 -0.1668  0.6611 -0.1861
   33CHL1  H22A 3605   3.228   3.974   5.344 -0.1590  1.0927 -0.7058
   33CHL1  H22B 3606   3.143   3.824   5.287 -1.4292 -0.0117  2.1993
   33CHL1   C23 3607   3.097   3.988   5.163  0.1921 -0.9029  0.0726
   33CHL1  H23A 3608   3.028   3.914   5.116  0.9978 -1.3754 -0.3747
   33CHL1  H23B 3609   3.049   4.088   5.174  0.3746 -0.3925 -2.8768
   33CHL1   C24 3610   3.228   3.989   5.080  0.5189  1.0404 -0.6518
   33CHL1  H24A 3611   3.294   4.061   5.133 -0.4165  0.4292  1.4553
   33CHL1  H24B 3612   3.272   3.887   5.085 -0.2188  0.7842  2.1751
   33CHL1   C25 3613   3.208   4.037   4.937  0.5008 -0.1616  0.4595
   33CHL1   H25 3614   3.154   4.133   4.928 -0.9586 -0.8722  1.3500
   33CHL1   C26 3615   3.349   4.050   4.870 -0.7827 -0.0911 -0.1644
   33CHL1  H26A 3616   3.416   4.117   4.926  1.6033 -2.0568 -0.5062
   33CHL1  H26B 3617   3.401   3.952   4.880 -0.1324  0.0355 -1.9803
   33CHL1  H26C 3618   3.342   4.083   4.764  0.3023 -1.9808 -0.8691
   33CHL1   C27 3619   3.133   3.931   4.850  0.5135 -0.2641  0.2889
   33CHL1  H27A 3620   3.156   3.947   4.742 -1.1496 -1.8909 -0.3673
   33CHL1  H27B 3621   3.159   3.830   4.888  0.5448 -0.5373 -0.4424
   33CHL1  H27C 3622   3.023   3.947   4.865  0.5328  2.5308 -1.6551
   34CHL1    C3 3623   5.337   3.928   6.508 -0.0935  0.5601 -1.0561
   34CHL1    H3 3624   5.251   3.860   6.491  0.5346 -0.3083 -0.7887
   34CHL1    O3 3625   5.343   3.960   6.650 -0.2999  0.1697  0.5795
   34CHL1   H3' 3626   5.414   4.024   6.650  0.4233 -0.5738 -0.7831
   34CHL1    C4 3627   5.469   3.867   6.458 -0.2135 -0.2192 -0.4581
   34CHL1   H4A 3628   5.549   3.933   6.497 -0.3746  1.1761 -2.3384
   34CHL1   H4B 3629   5.471   3.765   6.503  3.2690 -0.4929 -0.9950
   34CHL1    C5 3630   5.480   3.860   6.306  0.1143 -0.2739 -0.3533
   34CHL1    C6 3631   5.503   3.747   6.243 -0.0842  0.5432  0.3456
   34CHL1    H6 3632   5.515   3.652   6.298 -0.1475  0.5138  0.3087
   34CHL1    C7 3633   5.511   3.725   6.094  0.1364  0.7801 -0.7762
   34CHL1   H7A 3634   5.586   3.646   6.072  0.0261 -1.0345  4.0954
   34CHL1   H7B 3635   5.413   3.690   6.057  0.0479  2.5980 -2.4412
   34CHL1    C8 3636   5.539   3.860   6.029 -0.2860 -0.1814  0.0962
   34CHL1    H8 3637   5.643   3.892   6.052 -0.9260  0.2504  2.6606
   34CHL1   C14 3638   5.531   3.844   5.878 -0.2162  0.7780  0.9880
   34CHL1   H14 3639   5.427   3.810   5.861  0.1609 -0.4732  1.0728
   34CHL1   C15 3640   5.618   3.736   5.810 -0.5343 -0.5361 -0.4899
   34CHL1  H15A 3641   5.719   3.732   5.855 -1.3270  1.7524  1.6817
   34CHL1  H15B 3642   5.568   3.638   5.797  0.2163 -0.8024 -1.5301
   34CHL1   C16 3643   5.630   3.793   5.664  0.8248  0.1034 -0.5107
   34CHL1  H16A 3644   5.737   3.810   5.639  1.1841 -0.1647  0.8107
   34CHL1  H16B 3645   5.592   3.720   5.589  0.5970  0.5558 -0.8385
   34CHL1   C17 3646   5.546   3.924   5.655  0.3277 -0.2519  0.0635
   34CHL1   H17 3647   5.442   3.886   5.650 -0.5877  2.0256  0.2446
   34CHL1   C13 3648   5.548   3.978   5.794  0.2643 -0.3289 -0.9980
   34CHL1   C18 3649   5.687   4.037   5.828 -0.3061  0.3281 -0.1528
   34CHL1  H18A 3650   5.709   4.125   5.762  0.3703 -0.9532 -1.7004
   34CHL1  H18B 3651   5.701   4.056   5.936  0.4149 -1.6949  0.1287
   34CHL1  H18C 3652   5.765   3.964   5.800  1.1245  1.9850 -0.6737
   34CHL1   C12 3653   5.427   4.069   5.840  0.7954  0.1716 -0.3665
   34CHL1  H12A 3654   5.428   4.174   5.803  1.9627  1.6456  3.3263
   34CHL1  H12B 3655   5.329   4.020   5.823 -0.8303  1.2808  4.3088
   34CHL1   C11 3656   5.435   4.087   5.989  0.5461 -0.2202  0.1282
   34CHL1  H11A 3657   5.526   4.148   6.010  0.6434 -0.6155  0.9092
   34CHL1  H11B 3658   5.344   4.141   6.022  1.2364  0.8408  0.3352
   34CHL1    C9 3659   5.437   3.960   6.077  0.3855 -0.5040  1.0000
   34CHL1    H9 3660   5.339   3.912   6.058  1.1706 -1.6337 -0.3474
   34CHL1   C10 3661   5.442   3.991   6.231 -0.8044 -0.3028  0.0867
   34CHL1   C19 3662   5.556   4.095   6.259  0.5276  0.6317  0.0275
   34CHL1  H19A 3663   5.535   4.198   6.222 -0.6299  0.5430  0.3918
   34CHL1  H19B 3664   5.602   4.095   6.360 -0.5898 -1.3457  0.5894
   34CHL1  H19C 3665   5.648   4.053   6.212 -0.1780 -1.7964  0.6692
   34CHL1    C1 3666   5.304   4.043   6.286 -0.1037 -0.7230 -0.3327
   34CHL1   H1A 3667   5.285   4.143   6.243 -0.4139 -0.6669 -0.0755
   34CHL1   H1B 3668   5.238   3.961   6.251 -0.9235  0.2093 -1.0480
   34CHL1    C2 3669   5.311   4.064   6.435  0.0589  0.3625 -0.3706
   34CHL1   H2A 3670   5.219   4.113   6.471 -0.0954 -1.2071  1.5098
   34CHL1   H2B 3671   5.390   4.140   6.453  1.2543 -1.3987  2.6661
   34CHL1   C20 3672   5.586   4.015   5.535  0.0032  0.7137 -0.4036
   34CHL1   H20 3673   5.695   4.020   5.552 -0.2803  2.8440  1.0555
   34CHL1   C21 3674   5.531   4.161   5.543  0.4479 -0.2032  0.4248
   34CHL1  H21A 3675   5.572   4.224   5.462 -1.6110  0.0273 -0.5070
   34CHL1  H21B 3676   5.548   4.212   5.640 -1.2454  2.4997 -0.5614
   34CHL1  H21C 3677   5.420   4.152   5.541  0.5427 -1.5349  0.3641
   34CHL1   C22 3678   5.547   3.959   5.400 -0.0173  0.0487  0.6119
   34CHL1  H22A 3679   5.579   3.852   5.400 -0.9990 -0.2582  1.4070
   34CHL1  H22B 3680   5.436   3.952   5.399 -0.0823  0.5106  2.1155
   34CHL1   C23 3681   5.607   4.025   5.272 -0.9541  0.1295  0.7371
   34CHL1  H23A 3682   5.596   4.136   5.275 -1.6243  0.0672  0.7591
   34CHL1  H23B 3683   5.718   4.017   5.274 -1.0783 -1.7768  2.3202
   34CHL1   C24 3684   5.541   3.984   5.134  0.8869 -0.3063  0.2832
   34CHL1  H24A 3685   5.430   3.981   5.142  0.7139  1.0412 -1.1707
   34CHL1  H24B 3686   5.576   4.070   5.073  1.9928 -0.8149  0.1754
   34CHL1   C25 3687   5.598   3.857   5.065 -0.0212  0.8018  0.0316
   34CHL1   H25 3688   5.572   3.771   5.130  2.2815 -0.3448 -0.4530
   34CHL1   C26 3689   5.539   3.842   4.930  0.4072 -0.5969 -0.0260
   34CHL1  H26A 3690   5.430   3.865   4.927  0.9184  2.3637  0.8714
   34CHL1  H26B 3691   5.573   3.925   4.864 -0.3787 -1.0412 -1.0166
   34CHL1  H26C 3692   5.565   3.760   4.860 -1.4777  0.6036 -2.2778
   34CHL1   C27 3693   5.752   3.854   5.051  0.3499 -0.4362  0.0691
   34CHL1  H27A 3694   5.781   3.936   4.982 -0.2143 -0.0414  0.2965
   34CHL1  H27B 3695   5.793   3.872   5.153  3.3317  0.0014 -1.0959
   34CHL1  H27C 3696   5.789   3.758   5.009 -1.8085 -1.7794  1.0735
   35CHL1    C3 3697   5.266   5.733   6.310 -0.2534  0.6737  0.1190
   35CHL1    H3 3698   5.252   5.637   6.256  1.0180  0.0508  0.8442
   35CHL1    O3 3699   5.292   5.711   6.448 -0.2830 -0.3733  0.1287
   35CHL1   H3' 3700   5.312   5.804   6.464  1.2914 -0.1780 -2.3149
   35CHL1    C4 3701   5.390   5.791   6.243  0.7023  0.1626 -0.0465
   35CHL1   H4A 3702   5.432   5.880   6.294  1.3010  0.8854 -1.7592
   35CHL1   H4B 3703   5.474   5.718   6.244 -1.5295 -2.7113 -2.3700
   35CHL1    C5 3704   5.353   5.825   6.101 -0.1055 -0.2262  0.0470
   35CHL1    C6 3705   5.420   5.769   5.994 -0.1042  0.2906 -0.0902
   35CHL1    H6 3706   5.505   5.701   6.011 -0.8842 -0.9752 -1.0692
   35CHL1    C7 3707   5.392   5.803   5.847 -0.4043  0.6065  0.1191
   35CHL1   H7A 3708   5.488   5.820   5.794  0.5023 -1.6280  0.9229
   35CHL1   H7B 3709   5.333   5.727   5.793  0.3115  1.4809 -2.0026
   35CHL1    C8 3710   5.299   5.930   5.836  0.4269 -0.2290  0.6448
   35CHL1    H8 3711   5.355   6.025   5.847 -0.0995  0.0082  1.3304
   35CHL1   C14 3712   5.254   5.931   5.687  0.1322  0.2954 -0.0850
   35CHL1   H14 3713   5.205   5.833   5.670 -1.5603  1.2504 -1.0606
   35CHL1   C15 3714   5.366   5.956   5.581  0.0546  0.7669 -0.4002
   35CHL1  H15A 3715   5.416   6.045   5.624 -2.6282  0.8805  2.9417
   35CHL1  H15B 3716   5.442   5.876   5.576 -1.1635 -0.3769 -1.5297
   35CHL1   C16 3717   5.290   5.990   5.455 -0.0603 -0.0966 -0.1585
   35CHL1  H16A 3718   5.347   6.075   5.412  0.7924 -1.2284 -1.3301
   35CHL1  H16B 3719   5.293   5.909   5.379  1.9618  0.2142 -0.4656
   35CHL1   C17 3720   5.139   6.009   5.498  0.6384  0.2969  0.3186
   35CHL1   H17 3721   5.095   5.908   5.492 -0.1501  0.3692  3.4132
   35CHL1   C13 3722   5.147   6.027   5.651 -0.2638 -0.2502 -0.3494
   35CHL1   C18 3723   5.192   6.165   5.669 -0.0472 -1.4105  0.3741
   35CHL1  H18A 3724   5.244   6.210   5.582 -0.6529  0.7809  1.0763
   35CHL1  H18B 3725   5.097   6.223   5.671  0.7911  0.0144  0.1993
   35CHL1  H18C 3726   5.257   6.170   5.759 -0.0478 -2.0517  0.4097
   35CHL1   C12 3727   5.025   5.991   5.740 -0.5775 -0.0898 -0.1616
   35CHL1  H12A 3728   4.932   6.047   5.717 -1.3324 -1.5711 -0.8227
   35CHL1  H12B 3729   4.998   5.885   5.722  1.5966 -1.1191  1.8956
   35CHL1   C11 3730   5.060   6.000   5.888 -0.8489  0.0550 -0.3651
   35CHL1  H11A 3731   5.084   6.106   5.913  0.0741 -0.8186  2.9825
   35CHL1  H11B 3732   4.967   5.984   5.947 -1.1374  1.7075 -0.3121
   35CHL1    C9 3733   5.180   5.912   5.926 -0.5349 -0.3582  0.2505
   35CHL1    H9 3734   5.147   5.808   5.907 -0.7037 -0.6111  1.7525
   35CHL1   C10 3735   5.223   5.909   6.077 -0.2858  0.1133 -1.0038
   35CHL1   C19 3736   5.256   6.053   6.130 -0.5278  0.2475  0.5922
   35CHL1  H19A 3737   5.285   6.050   6.237  1.0022 -3.1950  0.2137
   35CHL1  H19B 3738   5.346   6.084   6.073 -2.0287 -0.0195 -2.0914
   35CHL1  H19C 3739   5.172   6.125   6.116  0.0896  0.9998  0.6799
   35CHL1    C1 3740   5.104   5.850   6.154  0.2420  0.2377 -0.2341
   35CHL1   H1A 3741   5.019   5.922   6.156 -1.3061 -1.3570  4.3190
   35CHL1   H1B 3742   5.068   5.750   6.124 -0.9696  0.3174  0.8461
   35CHL1    C2 3743   5.139   5.819   6.299 -0.0120 -0.1801 -0.6967
   35CHL1   H2A 3744   5.052   5.776   6.353  0.1115  0.5514  0.0874
   35CHL1   H2B 3745   5.159   5.913   6.355  1.0908 -0.9470  0.2679
   35CHL1   C20 3746   5.074   6.111   5.408 -0.1678 -0.2553 -0.2929
   35CHL1   H20 3747   5.121   6.212   5.414  1.0141 -0.8660  1.7033
   35CHL1   C21 3748   4.924   6.121   5.446  0.3390  0.4214  0.1355
   35CHL1  H21A 3749   4.871   6.023   5.448  0.5719  0.2933  0.1417
   35CHL1  H21B 3750   4.871   6.191   5.378  0.4504 -0.7216 -1.1959
   35CHL1  H21C 3751   4.910   6.163   5.548  0.4101  3.7024 -1.0969
   35CHL1   C22 3752   5.079   6.067   5.264  0.2848 -0.3177 -0.5076
   35CHL1  H22A 3753   5.181   6.042   5.228 -0.5389 -2.0600 -1.8461
   35CHL1  H22B 3754   5.005   5.986   5.246 -0.4332  0.4362 -1.0251
   35CHL1   C23 3755   5.013   6.175   5.174 -0.4986  0.0820 -0.7327
   35CHL1  H23A 3756   4.908   6.146   5.158 -0.4904 -0.4488  0.0903
   35CHL1  H23B 3757   5.018   6.267   5.237  2.1685 -0.5354  0.1137
   35CHL1   C24 3758   5.081   6.199   5.041  0.3767  0.8839  0.0404
   35CHL1  H24A 3759   5.182   6.240   5.061  0.5592 -0.0028  0.9904
   35CHL1  H24B 3760   5.088   6.098   4.996 -1.0547  1.0092 -0.5302
   35CHL1   C25 3761   5.011   6.307   4.955  0.4694 -0.0504 -0.4076
   35CHL1   H25 3762   4.912   6.258   4.940  0.3953  0.2070 -0.7536
   35CHL1   C26 3763   4.993   6.441   5.017 -0.8544 -0.5622  0.7241
   35CHL1  H26A 3764   5.090   6.495   5.024 -1.1597  0.1998 -0.6544
   35CHL1  H26B 3765   4.922   6.500   4.954 -0.9362 -0.1147  1.2281
   35CHL1  H26C 3766   4.948   6.440   5.118  0.9350 -1.0794  1.5639
   35CHL1   C27 3767   5.068   6.316   4.809  0.6600  0.3104 -0.0047
   35CHL1  H27A 3768   5.165   6.369   4.808  0.4728  0.6489 -0.8396
   35CHL1  H27B 3769   5.072   6.220   4.754 -1.5465  1.9325 -3.3719
   35CHL1  H27C 3770   5.002   6.379   4.745  0.6254  1.8821  1.4829
   36CHL1    C3 3771   2.201   4.904   6.363  0.1122  0.2390  0.7322
   36CHL1    H3 3772   2.302   4.858   6.353 -1.3300 -2.7870 -2.7186
   36CHL1    O3 3773   2.172   4.919   6.501  0.2021 -0.2598  0.1723
   36CHL1   H3' 3774   2.083   4.957   6.504 -1.3114 -3.2022 -1.9952
   36CHL1    C4 3775   2.193   5.045   6.289  0.4568 -0.0273 -0.2389
   36CHL1   H4A 3776   2.096   5.095   6.311 -0.2325 -1.8018  1.0195
   36CHL1   H4B 3777   2.274   5.113   6.324  1.3547 -1.0088 -0.3688
   36CHL1    C5 3778   2.207   5.038   6.137 -0.0016  0.6569  0.0185
   36CHL1    C6 3779   2.294   5.112   6.066 -0.0080 -0.7615  0.0823
   36CHL1    H6 3780   2.355   5.182   6.125  0.9925 -1.5778  0.0265
   36CHL1    C7 3781   2.296   5.109   5.920 -0.2188  0.5119  0.3812
   36CHL1   H7A 3782   2.308   5.216   5.894  1.4246  0.4971  0.9969
   36CHL1   H7B 3783   2.396   5.067   5.896 -0.7360  0.5100 -2.0325
   36CHL1    C8 3784   2.190   5.024   5.843  0.4718 -0.6873  0.0268
   36CHL1    H8 3785   2.095   5.079   5.828  1.9317  1.8476 -0.5967
   36CHL1   C14 3786   2.247   4.994   5.706  0.4584  0.6766 -0.7921
   36CHL1   H14 3787   2.328   4.925   5.738 -0.1533  0.2645 -0.0905
   36CHL1   C15 3788   2.307   5.101   5.626 -0.1730  0.5578  0.1306
   36CHL1  H15A 3789   2.218   5.166   5.611 -1.6071 -0.6035  2.9336
   36CHL1  H15B 3790   2.394   5.152   5.673 -0.5909  1.1808  0.2513
   36CHL1   C16 3791   2.322   5.035   5.492 -0.8890  0.5457  0.3040
   36CHL1  H16A 3792   2.287   5.090   5.402  1.2431  0.4497 -0.6400
   36CHL1  H16B 3793   2.428   5.024   5.461 -0.5059  0.0252  1.7185
   36CHL1   C17 3794   2.257   4.894   5.499  0.5951 -0.4124  0.7854
   36CHL1   H17 3795   2.331   4.825   5.545  0.8601 -1.5871 -1.2670
   36CHL1   C13 3796   2.163   4.913   5.617  0.0821 -0.1554 -0.1110
   36CHL1   C18 3797   2.033   4.998   5.581 -0.3190  0.1575 -0.0293
   36CHL1  H18A 3798   1.969   4.928   5.524  0.6112 -3.4017  2.9634
   36CHL1  H18B 3799   1.973   5.016   5.673  0.4567 -0.8712  0.7031
   36CHL1  H18C 3800   2.059   5.098   5.540  3.0015 -0.4619  0.3037
   36CHL1   C12 3801   2.118   4.782   5.697 -0.3156 -0.3315  0.5271
   36CHL1  H12A 3802   2.040   4.726   5.640  1.6311 -1.0326 -1.6031
   36CHL1  H12B 3803   2.206   4.714   5.700 -0.1181 -0.1431 -0.6553
   36CHL1   C11 3804   2.070   4.804   5.842  0.0820  0.6917 -0.0241
   36CHL1  H11A 3805   1.963   4.831   5.829 -0.1122 -0.5071 -1.2592
   36CHL1  H11B 3806   2.071   4.701   5.883  1.6468  0.5128 -0.4486
   36CHL1    C9 3807   2.163   4.899   5.922  0.6310 -0.2005  0.5208
   36CHL1    H9 3808   2.265   4.855   5.919  1.9040  2.6097 -0.8880
   36CHL1   C10 3809   2.126   4.923   6.069  0.3033 -0.1275 -0.2781
   36CHL1   C19 3810   1.982   4.988   6.078  0.2228  0.4446 -0.0146
   36CHL1  H19A 3811   1.932   4.998   6.177 -2.2189 -2.2691 -0.8071
   36CHL1  H19B 3812   1.974   5.075   6.009  1.0060  0.1161 -0.5271
   36CHL1  H19C 3813   1.917   4.910   6.033  1.2145  0.5330 -1.6780
   36CHL1    C1 3814   2.127   4.792   6.152  0.5214  0.6171  0.5688
   36CHL1   H1A 3815   2.052   4.723   6.107 -1.0816  1.6027  1.5969
   36CHL1   H1B 3816   2.225   4.742   6.138 -0.8523 -1.8429 -1.1170
   36CHL1    C2 3817   2.104   4.802   6.305  0.0567 -0.6660  0.4740
   36CHL1   H2A 3818   2.127   4.698   6.333  1.9682 -0.5276 -0.4352
   36CHL1   H2B 3819   2.000   4.818   6.340 -0.2386 -2.0609  0.2772
   36CHL1   C20 3820   2.212   4.841   5.357 -0.6552 -0.4145 -0.3811
   36CHL1   H20 3821   2.157   4.919   5.300  0.3337 -0.8603 -2.0393
   36CHL1   C21 3822   2.109   4.726   5.368 -0.1764  0.9273 -0.2488
   36CHL1  H21A 3823   2.084   4.684   5.268 -1.7168 -2.1700  1.3192
   36CHL1  H21B 3824   2.015   4.759   5.416  0.5945  0.4708  1.6668
   36CHL1  H21C 3825   2.149   4.646   5.433 -4.2895 -1.5164 -0.3678
   36CHL1   C22 3826   2.344   4.786   5.289 -0.3625 -0.6738  0.2616
   36CHL1  H22A 3827   2.421   4.865   5.303 -3.2166  2.5087 -0.3333
   36CHL1  H22B 3828   2.373   4.693   5.341 -0.1702 -0.6025  0.2832
   36CHL1   C23 3829   2.333   4.744   5.141  0.3311 -0.2774  0.0612
   36CHL1  H23A 3830   2.258   4.663   5.131  1.5282 -1.3660 -0.4336
   36CHL1  H23B 3831   2.311   4.829   5.072  0.1428  0.7759  1.3799
   36CHL1   C24 3832   2.463   4.696   5.080 -0.1663  0.3166 -0.4948
   36CHL1  H24A 3833   2.541   4.775   5.071  1.2111 -0.9689 -0.2915
   36CHL1  H24B 3834   2.501   4.613   5.144 -0.1337 -0.5006 -1.5475
   36CHL1   C25 3835   2.463   4.632   4.936 -0.1296 -0.2798 -0.2080
   36CHL1   H25 3836   2.562   4.662   4.895 -0.4413  3.2287  1.2332
   36CHL1   C26 3837   2.445   4.476   4.940 -0.2325  0.1555  0.2644
   36CHL1  H26A 3838   2.347   4.448   4.984 -1.3272  1.5641 -1.1859
   36CHL1  H26B 3839   2.452   4.440   4.835 -2.3030 -1.3265  0.5642
   36CHL1  H26C 3840   2.522   4.429   5.005  0.8815  1.5333 -0.0280
   36CHL1   C27 3841   2.351   4.683   4.840  0.2000 -0.1427 -0.3903
   36CHL1  H27A 3842   2.264   4.615   4.848  2.4728 -3.4503 -1.4219
   36CHL1  H27B 3843   2.326   4.789   4.860  1.3659  0.0435  0.1568
   36CHL1  H27C 3844   2.387   4.667   4.736 -0.8701  2.4537 -1.2272
   37CHL1    C3 3845   3.150   1.434   6.758 -0.0741  0.4844  0.2841
   37CHL1    H3 3846   3.248   1.435   6.705 -1.4212  1.2017 -2.3620
   37CHL1    O3 3847   3.168   1.432   6.897 -0.3200 -0.2637  1.0460
   37CHL1   H3' 3848   3.209   1.346   6.911  1.1328  0.2705  0.2250
   37CHL1    C4 3849   3.061   1.552   6.720 -1.1071  0.0329  0.6849
   37CHL1   H4A 3850   2.961   1.553   6.769 -1.4849 -0.8964 -0.0204
   37CHL1   H4B 3851   3.117   1.636   6.767 -0.0949  0.4918 -1.2330
   37CHL1    C5 3852   3.050   1.558   6.567  0.0884  0.1861 -0.3853
   37CHL1    C6 3853   3.099   1.651   6.492  0.4670  0.5606 -0.1911
   37CHL1    H6 3854   3.146   1.736   6.544 -0.7552  1.0346  0.1756
   37CHL1    C7 3855   3.069   1.655   6.346  0.1366  0.0936  0.0688
   37CHL1   H7A 3856   3.051   1.762   6.320  1.2616  0.0248 -1.1085
   37CHL1   H7B 3857   3.157   1.620   6.288 -0.4562  1.7189 -1.9440
   37CHL1    C8 3858   2.949   1.575   6.302  0.7498 -0.0744 -0.0317
   37CHL1    H8 3859   2.858   1.627   6.339  2.0744 -0.0864  3.7489
   37CHL1   C14 3860   2.951   1.559   6.152  0.1701  0.2587  0.4841
   37CHL1   H14 3861   3.035   1.491   6.126 -1.3083 -0.5912 -2.5740
   37CHL1   C15 3862   2.955   1.688   6.071  0.7414 -0.0719  0.6954
   37CHL1  H15A 3863   2.890   1.764   6.119  1.7799  0.4541  1.3066
   37CHL1  H15B 3864   3.056   1.735   6.066 -1.0974  4.3283  0.4071
   37CHL1   C16 3865   2.908   1.648   5.927 -0.2535 -0.7567 -0.4706
   37CHL1  H16A 3866   2.817   1.711   5.916 -1.6227 -2.1477  1.9854
   37CHL1  H16B 3867   2.982   1.668   5.846  0.9720  1.3169  1.0655
   37CHL1   C17 3868   2.855   1.499   5.943 -0.0831 -0.5907  0.4705
   37CHL1   H17 3869   2.945   1.443   5.910  0.4919  1.8441 -2.6099
   37CHL1   C13 3870   2.833   1.480   6.100 -0.3910  0.9624  0.6461
   37CHL1   C18 3871   2.704   1.540   6.141  0.1835 -0.1152  0.2755
   37CHL1  H18A 3872   2.685   1.635   6.086 -0.2090 -0.9279 -1.0466
   37CHL1  H18B 3873   2.623   1.468   6.118 -1.4574  1.4736  0.8506
   37CHL1  H18C 3874   2.682   1.560   6.248 -2.9472  0.4576 -0.3844
   37CHL1   C12 3875   2.852   1.343   6.151  0.0295 -0.7162 -0.2241
   37CHL1  H12A 3876   2.759   1.297   6.110 -1.8822 -0.5090  3.3995
   37CHL1  H12B 3877   2.941   1.285   6.120  0.5037  0.4450 -1.1037
   37CHL1   C11 3878   2.852   1.340   6.306  0.2210  0.1726 -0.5593
   37CHL1  H11A 3879   2.752   1.376   6.338 -0.2230 -0.2640 -1.4125
   37CHL1  H11B 3880   2.853   1.234   6.338 -2.9007  0.7597  2.0063
   37CHL1    C9 3881   2.958   1.435   6.367  0.5650  1.0143 -0.3669
   37CHL1    H9 3882   3.054   1.385   6.341 -0.8369 -2.0036 -0.2057
   37CHL1   C10 3883   2.965   1.434   6.524  0.1386 -0.7864  0.1040
   37CHL1   C19 3884   2.817   1.449   6.572  0.5845 -0.5078 -0.7529
   37CHL1  H19A 3885   2.800   1.462   6.681 -1.3817 -0.8010 -0.9958
   37CHL1  H19B 3886   2.771   1.535   6.519  2.1577 -0.2976 -1.8403
   37CHL1  H19C 3887   2.769   1.354   6.544  0.7732 -0.2148 -2.1725
   37CHL1    C1 3888   3.035   1.306   6.576 -0.1358  0.2319  0.6018
   37CHL1   H1A 3889   2.974   1.214   6.562 -0.8465  0.7189  0.4686
   37CHL1   H1B 3890   3.131   1.290   6.522  0.7668 -0.6489  2.3400
   37CHL1    C2 3891   3.065   1.311   6.722 -0.1742  0.2307 -0.0736
   37CHL1   H2A 3892   3.131   1.228   6.757 -0.3569 -0.5172 -1.4357
   37CHL1   H2B 3893   2.968   1.321   6.776  0.1028  0.3806  0.4012
   37CHL1   C20 3894   2.743   1.453   5.845  0.5516  0.5493 -0.0748
   37CHL1   H20 3895   2.645   1.473   5.894 -0.8377  0.4091 -2.6381
   37CHL1   C21 3896   2.747   1.297   5.825  0.1657 -0.4113  0.3522
   37CHL1  H21A 3897   2.688   1.261   5.738  0.6327  0.4403 -0.3379
   37CHL1  H21B 3898   2.710   1.237   5.911 -1.2844 -0.5201 -0.3166
   37CHL1  H21C 3899   2.845   1.247   5.805 -1.6972 -3.6522 -1.5633
   37CHL1   C22 3900   2.746   1.519   5.702  0.2277  0.0532 -0.3657
   37CHL1  H22A 3901   2.740   1.627   5.726 -1.4617  0.1097 -0.9704
   37CHL1  H22B 3902   2.847   1.513   5.656  0.3565 -0.1299 -0.0665
   37CHL1   C23 3903   2.637   1.471   5.607  0.5072 -0.5723 -0.2637
   37CHL1  H23A 3904   2.652   1.368   5.567 -0.0365 -0.5665 -0.5019
   37CHL1  H23B 3905   2.536   1.482   5.651  1.1784 -0.8688  1.4262
   37CHL1   C24 3906   2.624   1.565   5.476  0.0773 -0.8306  0.0995
   37CHL1  H24A 3907   2.611   1.669   5.512 -1.9450 -1.5073  1.5355
   37CHL1  H24B 3908   2.721   1.559   5.422  0.0813  0.0342 -0.0017
   37CHL1   C25 3909   2.505   1.533   5.382 -0.2482  0.2856  0.1717
   37CHL1   H25 3910   2.411   1.559   5.435 -1.8684  0.6474 -2.6822
   37CHL1   C26 3911   2.513   1.633   5.266  0.0341 -0.8882  0.6320
   37CHL1  H26A 3912   2.432   1.613   5.192 -0.1275  0.5761  0.3998
   37CHL1  H26B 3913   2.485   1.733   5.305  1.7547 -0.3339  0.5048
   37CHL1  H26C 3914   2.611   1.644   5.216 -1.0470  0.7825 -1.2248
   37CHL1   C27 3915   2.501   1.388   5.326 -0.2249 -0.7028 -0.1617
   37CHL1  H27A 3916   2.596   1.356   5.278 -0.4109  0.7522 -1.5838
   37CHL1  H27B 3917   2.494   1.318   5.412 -0.3400 -0.5054 -0.0101
   37CHL1  H27C 3918   2.412   1.364   5.263 -2.7647  1.1770  2.4452
   38CHL1    C3 3919   4.797   0.437   6.706  0.0330 -0.1275 -0.7515
   38CHL1    H3 3920   4.897   0.418   6.660  1.2750 -2.0951  2.4434
   38CHL1    O3 3921   4.820   0.426   6.844  0.2736  0.3610 -0.6604
   38CHL1   H3' 3922   4.734   0.413   6.885  0.2154 -1.1687 -1.1844
   38CHL1    C4 3923   4.750   0.578   6.680 -0.5484 -0.6886 -0.4450
   38CHL1   H4A 3924   4.665   0.598   6.748  0.2068 -0.8118  0.5632
   38CHL1   H4B 3925   4.831   0.646   6.714 -0.1121 -1.2425 -0.3481
   38CHL1    C5 3926   4.703   0.603   6.537  0.4939 -0.7571 -0.4514
   38CHL1    C6 3927   4.741   0.712   6.469  0.0876 -0.3880 -0.0947
   38CHL1    H6 3928   4.806   0.787   6.515  0.0250 -0.2325 -0.2554
   38CHL1    C7 3929   4.716   0.727   6.322  0.0297 -0.2033 -0.0006
   38CHL1   H7A 3930   4.705   0.832   6.286  4.3014  1.1067  1.8575
   38CHL1   H7B 3931   4.806   0.687   6.270 -1.0024  0.2921 -2.3153
   38CHL1    C8 3932   4.603   0.642   6.264  0.2437 -0.0567  0.1829
   38CHL1    H8 3933   4.507   0.687   6.295  1.0005  3.1780 -1.7046
   38CHL1   C14 3934   4.607   0.642   6.105 -0.2219 -0.1960  0.3417
   38CHL1   H14 3935   4.708   0.601   6.083  0.0271  1.1982 -1.3288
   38CHL1   C15 3936   4.613   0.778   6.031  0.1684  0.0543 -0.3109
   38CHL1  H15A 3937   4.539   0.843   6.083  1.2790  1.0944  0.0195
   38CHL1  H15B 3938   4.710   0.830   6.043 -0.6510  2.2289 -2.5115
   38CHL1   C16 3939   4.582   0.747   5.887 -0.6866 -0.1232 -0.0334
   38CHL1  H16A 3940   4.494   0.812   5.865 -0.5485  0.3771  0.8365
   38CHL1  H16B 3941   4.671   0.766   5.823 -0.4230 -2.5368 -0.4761
   38CHL1   C17 3942   4.548   0.592   5.893  0.1915  0.5314  0.8645
   38CHL1   H17 3943   4.635   0.523   5.890 -1.3925 -1.5822  1.7253
   38CHL1   C13 3944   4.500   0.560   6.035  0.7347 -0.3216 -0.6895
   38CHL1   C18 3945   4.365   0.628   6.062 -0.4114 -0.5617 -0.4797
   38CHL1  H18A 3946   4.354   0.632   6.173  2.2285  0.4027 -0.1841
   38CHL1  H18B 3947   4.360   0.736   6.037  2.6256  0.2661  1.7793
   38CHL1  H18C 3948   4.279   0.570   6.023 -1.2370  0.0000  0.4594
   38CHL1   C12 3949   4.516   0.415   6.091 -0.1856 -0.4560  0.0286
   38CHL1  H12A 3950   4.431   0.350   6.060  0.3263 -1.0766 -0.1032
   38CHL1  H12B 3951   4.605   0.362   6.052  2.2188  0.6529  3.5540
   38CHL1   C11 3952   4.522   0.408   6.248  0.5850  0.5086  0.7363
   38CHL1  H11A 3953   4.418   0.418   6.284 -0.6222 -1.3985 -1.8867
   38CHL1  H11B 3954   4.554   0.302   6.262  0.1992  0.1290 -0.9449
   38CHL1    C9 3955   4.618   0.501   6.315 -0.4215 -0.4405  0.0682
   38CHL1    H9 3956   4.718   0.461   6.288 -1.1592 -1.6072 -1.0830
   38CHL1   C10 3957   4.614   0.495   6.476 -0.1167 -0.8251  0.1165
   38CHL1   C19 3958   4.471   0.516   6.531  0.4680 -0.3297 -1.0401
   38CHL1  H19A 3959   4.476   0.534   6.640 -0.9203  1.4995 -1.2392
   38CHL1  H19B 3960   4.423   0.607   6.489  2.2945  0.0532 -2.4354
   38CHL1  H19C 3961   4.401   0.431   6.510 -1.2240  0.3045  1.6206
   38CHL1    C1 3962   4.659   0.354   6.523 -0.2372  0.3239  0.8970
   38CHL1   H1A 3963   4.584   0.280   6.488  1.0556 -0.7079  0.2109
   38CHL1   H1B 3964   4.754   0.333   6.470 -1.2028 -0.6683 -0.5041
   38CHL1    C2 3965   4.693   0.333   6.671  0.6819 -0.8793 -0.1168
   38CHL1   H2A 3966   4.731   0.230   6.687 -1.8374 -1.8645  0.1146
   38CHL1   H2B 3967   4.603   0.352   6.733 -1.1777  0.1071 -2.8832
   38CHL1   C20 3968   4.445   0.551   5.779 -0.2379 -0.8518 -0.7589
   38CHL1   H20 3969   4.341   0.582   5.801 -0.2829 -1.4873 -0.0238
   38CHL1   C21 3970   4.428   0.397   5.784 -0.0838 -0.2514  0.0523
   38CHL1  H21A 3971   4.521   0.341   5.804  0.2381  0.7911  1.7015
   38CHL1  H21B 3972   4.379   0.355   5.694  0.1688  2.5072 -1.4992
   38CHL1  H21C 3973   4.359   0.368   5.866  0.4036 -0.1198  0.5145
   38CHL1   C22 3974   4.480   0.595   5.636 -0.2502  0.9974 -1.0371
   38CHL1  H22A 3975   4.396   0.553   5.578  0.3326 -1.5064 -0.1948
   38CHL1  H22B 3976   4.484   0.704   5.614  3.2231  0.9841 -1.0450
   38CHL1   C23 3977   4.612   0.536   5.587 -0.1914 -0.7813  0.5855
   38CHL1  H23A 3978   4.694   0.576   5.649  0.0946  0.4628 -0.5545
   38CHL1  H23B 3979   4.603   0.425   5.580 -0.7692 -0.6294 -2.9209
   38CHL1   C24 3980   4.651   0.596   5.453  0.0685 -0.3861 -0.4834
   38CHL1  H24A 3981   4.692   0.697   5.479  3.3092 -1.4275 -1.0233
   38CHL1  H24B 3982   4.739   0.534   5.426 -0.1098 -1.3011  0.9977
   38CHL1   C25 3983   4.541   0.600   5.345  0.1923  0.0157 -0.0165
   38CHL1   H25 3984   4.456   0.662   5.379  1.2766  2.1566 -0.9841
   38CHL1   C26 3985   4.593   0.656   5.210 -0.8530  0.3761 -0.3575
   38CHL1  H26A 3986   4.680   0.593   5.183 -0.9236  0.4224 -0.6937
   38CHL1  H26B 3987   4.521   0.653   5.125  0.0116 -0.0669 -1.0856
   38CHL1  H26C 3988   4.638   0.756   5.228  1.8081 -0.8926  0.5057
   38CHL1   C27 3989   4.488   0.463   5.324  0.1029  0.2344 -0.2319
   38CHL1  H27A 3990   4.434   0.420   5.411 -0.7025  2.0186  0.1952
   38CHL1  H27B 3991   4.413   0.462   5.241 -0.7612  0.9582  0.5199
   38CHL1  H27C 3992   4.571   0.399   5.286  0.9545  0.6541  0.8775
   39CHL1    C3 3993   4.412   1.078   6.788  0.0243 -0.0909  0.7388
   39CHL1    H3 3994   4.455   1.178   6.766 -0.4628 -0.0647 -0.1437
   39CHL1    O3 3995   4.417   1.040   6.920 -0.1649  0.2273  0.0522
   39CHL1   H3' 3996   4.439   0.946   6.918 -0.2976  0.1562  1.1153
   39CHL1    C4 3997   4.264   1.076   6.749  0.0031 -0.0866 -0.2149
   39CHL1   H4A 3998   4.230   0.971   6.761 -2.4067  0.1572 -3.4220
   39CHL1   H4B 3999   4.207   1.143   6.817  1.3038  1.6402 -0.7512
   39CHL1    C5 4000   4.250   1.112   6.601 -0.0955 -0.4797 -0.1744
   39CHL1    C6 4001   4.180   1.223   6.579  0.5096 -0.2531  0.3270
   39CHL1    H6 4002   4.147   1.288   6.662  0.3943  0.9895 -0.6529
   39CHL1    C7 4003   4.138   1.262   6.438 -0.5802  0.1861  0.0538
   39CHL1   H7A 4004   4.028   1.281   6.436 -0.7097  0.4267  3.2378
   39CHL1   H7B 4005   4.197   1.348   6.401  0.0347 -1.0071 -1.8736
   39CHL1    C8 4006   4.167   1.153   6.332  0.0112  0.2921 -0.0309
   39CHL1    H8 4007   4.090   1.074   6.342  1.3703 -1.0022  0.6234
   39CHL1   C14 4008   4.152   1.206   6.190  0.8975 -0.1864  0.0937
   39CHL1   H14 4009   4.230   1.284   6.177  0.6186 -0.0465 -0.8419
   39CHL1   C15 4010   4.008   1.270   6.147 -0.4186  0.7624 -0.7122
   39CHL1  H15A 4011   3.928   1.203   6.183  0.5592 -0.8466 -1.4133
   39CHL1  H15B 4012   4.007   1.371   6.193 -0.7486 -0.5986  2.4717
   39CHL1   C16 4013   4.016   1.267   5.993  0.6192  0.2506 -0.2907
   39CHL1  H16A 4014   3.928   1.219   5.945  1.2587 -0.8144 -0.4505
   39CHL1  H16B 4015   4.020   1.363   5.937 -0.8727 -1.5852 -3.9201
   39CHL1   C17 4016   4.149   1.187   5.957 -0.1133 -0.1663 -0.2473
   39CHL1   H17 4017   4.236   1.256   5.950 -0.2133  0.0287  0.3827
   39CHL1   C13 4018   4.180   1.097   6.080 -0.3674 -0.4825  0.3328
   39CHL1   C18 4019   4.081   0.980   6.076 -0.2793  1.3280  0.8248
   39CHL1  H18A 4020   4.070   0.929   6.174 -0.7772 -1.4425 -0.5730
   39CHL1  H18B 4021   3.981   1.022   6.054 -0.3914  1.2078  1.1101
   39CHL1  H18C 4022   4.117   0.905   6.002  0.9018  2.4000  0.2612
   39CHL1   C12 4023   4.325   1.045   6.099  0.1165  0.9049 -0.8256
   39CHL1  H12A 4024   4.342   0.955   6.036  0.7265 -0.6503  1.4281
   39CHL1  H12B 4025   4.393   1.129   6.074  0.2812  1.2139  0.5880
   39CHL1   C11 4026   4.343   0.996   6.242 -1.0906 -0.7235  0.2701
   39CHL1  H11A 4027   4.277   0.907   6.246  0.3141 -1.8636 -0.8701
   39CHL1  H11B 4028   4.446   0.961   6.258 -1.0516 -0.1873  1.2795
   39CHL1    C9 4029   4.300   1.082   6.356  0.0068 -0.0540  0.1081
   39CHL1    H9 4030   4.375   1.163   6.349  1.4284 -1.4114 -1.2614
   39CHL1   C10 4031   4.310   1.021   6.500  0.6607 -0.3405  0.4250
   39CHL1   C19 4032   4.244   0.879   6.504 -0.2415  0.0832  0.0646
   39CHL1  H19A 4033   4.248   0.837   6.606  0.7988 -0.1804 -0.0743
   39CHL1  H19B 4034   4.133   0.881   6.493 -0.4100 -1.4682  1.1016
   39CHL1  H19C 4035   4.286   0.804   6.434 -0.2978 -0.9464  1.1024
   39CHL1    C1 4036   4.460   1.012   6.544  0.2263  0.2773  0.0030
   39CHL1   H1A 4037   4.506   0.928   6.488 -0.5018 -0.2682  0.2062
   39CHL1   H1B 4038   4.494   1.117   6.533 -1.8535  1.2825  2.1512
   39CHL1    C2 4039   4.484   0.988   6.693 -0.7740 -0.0085  0.0335
   39CHL1   H2A 4040   4.593   0.992   6.711 -0.5731  0.3754 -1.1891
   39CHL1   H2B 4041   4.447   0.888   6.723 -2.7759  0.9531  1.0258
   39CHL1   C20 4042   4.134   1.130   5.806 -0.2352 -0.5600  0.0983
   39CHL1   H20 4043   4.070   1.040   5.808 -4.2948  2.0635 -0.5035
   39CHL1   C21 4044   4.277   1.077   5.756  0.3912  0.0940  0.2109
   39CHL1  H21A 4045   4.341   1.163   5.727  2.0681 -1.4111 -0.7519
   39CHL1  H21B 4046   4.270   1.017   5.663  1.5970 -1.4822  1.0910
   39CHL1  H21C 4047   4.319   1.009   5.833 -0.2438 -1.4370 -0.7445
   39CHL1   C22 4048   4.067   1.220   5.700 -0.1236 -0.4720 -0.6898
   39CHL1  H22A 4049   3.966   1.240   5.741  0.2743  0.2394 -0.0226
   39CHL1  H22B 4050   4.112   1.321   5.691  2.0216 -1.3850 -0.7132
   39CHL1   C23 4051   4.052   1.154   5.562 -0.3149  0.6550 -0.3742
   39CHL1  H23A 4052   4.151   1.133   5.516 -0.3406 -2.3218  0.7376
   39CHL1  H23B 4053   3.998   1.058   5.577 -1.5058  1.0618 -1.7237
   39CHL1   C24 4054   3.976   1.259   5.479  0.1721  0.0816  0.9837
   39CHL1  H24A 4055   3.870   1.258   5.511  0.0379 -0.9086  0.5482
   39CHL1  H24B 4056   4.015   1.363   5.490  2.4630 -0.8297  2.2862
   39CHL1   C25 4057   3.972   1.225   5.323  0.3712 -0.3558 -0.1185
   39CHL1   H25 4058   4.073   1.201   5.285  0.6592  0.3035  0.2138
   39CHL1   C26 4059   3.887   1.099   5.301 -0.8276 -0.0289  0.4092
   39CHL1  H26A 4060   3.868   1.081   5.193 -1.0344  0.0307  0.4340
   39CHL1  H26B 4061   3.944   1.012   5.339 -0.8737 -0.4870 -0.5438
   39CHL1  H26C 4062   3.791   1.098   5.357 -1.3499 -1.1893 -0.4552
   39CHL1   C27 4063   3.923   1.346   5.242  0.0735 -0.0621 -0.1138
   39CHL1  H27A 4064   3.812   1.345   5.240  0.0407 -1.8997  0.9268
   39CHL1  H27B 4065   3.957   1.444   5.282 -0.6395  0.3298 -0.4439
   39CHL1  H27C 4066   3.950   1.335   5.134 -0.0694 -1.5596 -0.0220
   40CHL1    C3 4067   4.620   5.720   6.588 -0.1486 -0.0434  0.1197
   40CHL1    H3 4068   4.535   5.649   6.580 -2.9317  3.0226  0.2940
   40CHL1    O3 4069   4.678   5.703   6.716  0.6182 -0.6271 -0.7543
   40CHL1   H3' 4070   4.672   5.608   6.727  0.4842 -0.4727  0.8702
   40CHL1    C4 4071   4.734   5.695   6.489  0.1599  0.1052 -0.5262
   40CHL1   H4A 4072   4.825   5.756   6.506  0.8059 -0.9145 -0.1752
   40CHL1   H4B 4073   4.761   5.588   6.500 -0.2035  0.1377  0.8209
   40CHL1    C5 4074   4.689   5.723   6.343  0.0882 -0.6854 -0.5228
   40CHL1    C6 4075   4.691   5.629   6.243  0.2554  1.1668 -0.5315
   40CHL1    H6 4076   4.745   5.535   6.261  3.0623  2.5194 -1.1744
   40CHL1    C7 4077   4.647   5.645   6.103 -0.3432 -0.3623  0.3719
   40CHL1   H7A 4078   4.724   5.600   6.037  2.2263  2.7240  1.0289
   40CHL1   H7B 4079   4.543   5.612   6.082 -1.2830  1.6877  1.5337
   40CHL1    C8 4080   4.626   5.796   6.068  0.2130 -1.0131 -1.0915
   40CHL1    H8 4081   4.721   5.852   6.056 -1.0186  0.7334 -4.1282
   40CHL1   C14 4082   4.546   5.807   5.937 -0.7930 -0.0812  0.1121
   40CHL1   H14 4083   4.444   5.766   5.957 -0.8604  0.7722  1.6569
   40CHL1   C15 4084   4.599   5.746   5.807 -0.3248  0.7232  0.3497
   40CHL1  H15A 4085   4.706   5.771   5.789 -0.4153  0.4598 -0.6403
   40CHL1  H15B 4086   4.593   5.635   5.808  1.0416  0.6181 -0.1911
   40CHL1   C16 4087   4.515   5.809   5.693 -0.1682  0.1271  0.2483
   40CHL1  H16A 4088   4.572   5.829   5.600 -0.5414  2.0433  0.3966
   40CHL1  H16B 4089   4.428   5.742   5.673 -0.4577  0.1461  1.3589
   40CHL1   C17 4090   4.451   5.929   5.768  0.3049  0.1163  0.2987
   40CHL1   H17 4091   4.352   5.896   5.805  0.6441 -2.3425 -0.7781
   40CHL1   C13 4092   4.522   5.955   5.895 -0.4653  0.6108 -0.6188
   40CHL1   C18 4093   4.644   6.043   5.871  0.5494  0.6522 -0.3924
   40CHL1  H18A 4094   4.623   6.145   5.832  1.7136 -0.2954 -3.8310
   40CHL1  H18B 4095   4.712   6.047   5.960 -1.1043  1.9759  0.8776
   40CHL1  H18C 4096   4.699   5.988   5.792 -0.6315 -1.5095  0.1919
   40CHL1   C12 4097   4.426   6.016   6.015 -1.1326 -0.0211  0.2427
   40CHL1  H12A 4098   4.422   6.124   5.987  0.9728 -0.3099 -1.4539
   40CHL1  H12B 4099   4.329   5.964   6.017 -0.6425 -1.1625 -2.2435
   40CHL1   C11 4100   4.505   6.004   6.149 -0.4059 -0.3275 -0.1081
   40CHL1  H11A 4101   4.590   6.075   6.137 -1.1851  0.7404  0.5462
   40CHL1  H11B 4102   4.444   6.044   6.233  1.1946  1.7388  0.1664
   40CHL1    C9 4103   4.549   5.864   6.185  0.4926  1.3248 -0.4863
   40CHL1    H9 4104   4.451   5.814   6.198 -0.3845  3.3547  1.4683
   40CHL1   C10 4105   4.620   5.857   6.321  0.7612 -0.0098 -0.3109
   40CHL1   C19 4106   4.732   5.962   6.338 -0.0088  0.3037 -0.3502
   40CHL1  H19A 4107   4.806   5.946   6.419  0.9869  2.2833 -0.7973
   40CHL1  H19B 4108   4.780   5.986   6.241  0.2094 -1.0062 -0.5887
   40CHL1  H19C 4109   4.682   6.056   6.370 -0.6133  0.0529 -0.5250
   40CHL1    C1 4110   4.512   5.873   6.438 -0.6067  0.2704 -0.2079
   40CHL1   H1A 4111   4.478   5.979   6.436 -1.3025  0.1047  1.4993
   40CHL1   H1B 4112   4.425   5.808   6.418 -0.2374  0.3659 -2.2954
   40CHL1    C2 4113   4.564   5.864   6.577 -0.7010 -0.6194 -0.1053
   40CHL1   H2A 4114   4.480   5.876   6.650 -0.2918 -0.6319  0.3749
   40CHL1   H2B 4115   4.640   5.934   6.616 -0.3918 -1.8776  1.7198
   40CHL1   C20 4116   4.414   6.049   5.676  0.0443  0.1050  0.4551
   40CHL1   H20 4117   4.408   6.147   5.727 -0.2421  1.7991 -2.5684
   40CHL1   C21 4118   4.263   6.018   5.620 -0.1167  0.3032 -0.2646
   40CHL1  H21A 4119   4.264   5.922   5.565 -2.1977 -0.7662  1.4429
   40CHL1  H21B 4120   4.234   6.106   5.558 -1.4717  1.3331  1.7060
   40CHL1  H21C 4121   4.200   6.009   5.711 -0.4383  0.4013 -0.4770
   40CHL1   C22 4122   4.508   6.071   5.554 -0.1317 -0.1392 -0.0918
   40CHL1  H22A 4123   4.615   6.066   5.584 -0.3470  3.2186  1.6554
   40CHL1  H22B 4124   4.486   5.987   5.484 -0.7152 -0.4764  0.4795
   40CHL1   C23 4125   4.489   6.207   5.487 -0.4231 -0.2825 -0.9121
   40CHL1  H23A 4126   4.382   6.235   5.476 -1.0846 -2.0029  0.5917
   40CHL1  H23B 4127   4.545   6.272   5.557  0.6864 -2.2175  0.0864
   40CHL1   C24 4128   4.547   6.222   5.345 -0.6339 -0.0692  0.0695
   40CHL1  H24A 4129   4.646   6.171   5.347  0.3068  1.5220 -1.7045
   40CHL1  H24B 4130   4.482   6.160   5.280 -1.1531 -1.1418  1.5592
   40CHL1   C25 4131   4.559   6.365   5.290 -0.4178  0.1730  0.4071
   40CHL1   H25 4132   4.459   6.410   5.309 -1.2672 -0.3934 -2.2678
   40CHL1   C26 4133   4.675   6.439   5.366 -0.2449  0.1664 -0.1848
   40CHL1  H26A 4134   4.668   6.425   5.476  0.8129 -1.6647 -0.3019
   40CHL1  H26B 4135   4.781   6.407   5.356 -0.2997  0.0610 -0.4408
   40CHL1  H26C 4136   4.659   6.548   5.350  1.3226  0.6669  1.2969
   40CHL1   C27 4137   4.596   6.356   5.148  0.2647 -1.3888  0.0868
   40CHL1  H27A 4138   4.498   6.344   5.097 -1.0770  3.1733  1.0646
   40CHL1  H27B 4139   4.613   6.458   5.106 -0.3085 -1.4001 -0.1949
   40CHL1  H27C 4140   4.670   6.275   5.132  3.2785  1.0221  0.7962
   41CHL1    C3 4141   1.590   6.409   6.949 -0.3733 -0.0886  0.5485
   41CHL1    H3 4142   1.615   6.517   6.942  0.3575 -0.3417 -1.5789
   41CHL1    O3 4143   1.586   6.373   7.087 -0.3898 -0.0216 -0.4918
   41CHL1   H3' 4144   1.543   6.287   7.080  0.5007 -0.3731 -1.8180
   41CHL1    C4 4145   1.451   6.368   6.898 -0.4093 -0.4091 -0.4425
   41CHL1   H4A 4146   1.429   6.268   6.941  1.3458 -0.2569  0.9064
   41CHL1   H4B 4147   1.372   6.440   6.931  0.2358 -0.2166  0.7448
   41CHL1    C5 4148   1.452   6.361   6.748 -0.3669  0.3309 -0.3306
   41CHL1    C6 4149   1.361   6.423   6.682  0.2643  0.2326 -0.2964
   41CHL1    H6 4150   1.273   6.461   6.737  0.8013  0.2204  0.5887
   41CHL1    C7 4151   1.336   6.416   6.531 -0.6820 -0.4407 -0.2133
   41CHL1   H7A 4152   1.233   6.386   6.503 -0.7323  0.6231 -1.2138
   41CHL1   H7B 4153   1.351   6.518   6.491 -0.6427 -0.4960 -0.3403
   41CHL1    C8 4154   1.432   6.320   6.461 -1.0553 -0.4545  0.0896
   41CHL1    H8 4155   1.396   6.216   6.478 -2.6094  0.3056  1.8867
   41CHL1   C14 4156   1.439   6.357   6.309 -0.0318 -0.7638 -0.0614
   41CHL1   H14 4157   1.461   6.466   6.312  0.8910 -0.8273 -2.5130
   41CHL1   C15 4158   1.300   6.366   6.228 -0.1219  0.9072  0.0749
   41CHL1  H15A 4159   1.253   6.266   6.239  0.0017  0.4265 -2.8942
   41CHL1  H15B 4160   1.222   6.442   6.251 -0.6526  0.1071  0.9613
   41CHL1   C16 4161   1.349   6.387   6.080  0.5772 -0.1806  0.4271
   41CHL1  H16A 4162   1.283   6.331   6.010 -1.6246 -0.0703  2.2821
   41CHL1  H16B 4163   1.328   6.492   6.048  1.7228 -0.4526 -1.3476
   41CHL1   C17 4164   1.504   6.353   6.082 -0.1993 -0.5997 -0.1028
   41CHL1   H17 4165   1.548   6.455   6.087 -1.3829 -0.0909  0.1540
   41CHL1   C13 4166   1.535   6.287   6.220 -0.2070 -0.0985  0.3443
   41CHL1   C18 4167   1.500   6.134   6.194 -0.0425  0.2810 -0.2091
   41CHL1  H18A 4168   1.488   6.084   6.292  0.6938 -0.5371 -0.5186
   41CHL1  H18B 4169   1.404   6.119   6.140 -1.7745  1.3218  2.4406
   41CHL1  H18C 4170   1.582   6.081   6.141 -1.2303 -1.6070 -0.2464
   41CHL1   C12 4171   1.677   6.298   6.286  0.7344  0.1421 -0.1729
   41CHL1  H12A 4172   1.750   6.242   6.224  0.3434 -0.7997  0.1917
   41CHL1  H12B 4173   1.701   6.407   6.283  2.0165 -0.0980  0.5181
   41CHL1   C11 4174   1.676   6.247   6.426 -0.1282 -0.5611 -1.1483
   41CHL1  H11A 4175   1.660   6.137   6.427  1.7774 -0.8684 -0.5473
   41CHL1  H11B 4176   1.780   6.263   6.463 -0.4851  2.8222 -1.2521
   41CHL1    C9 4177   1.573   6.320   6.521  0.3323 -0.6218 -0.0280
   41CHL1    H9 4178   1.603   6.427   6.526  0.1834 -0.6452  2.7562
   41CHL1   C10 4179   1.574   6.285   6.675 -0.6905  0.0906 -0.0012
   41CHL1   C19 4180   1.558   6.134   6.695 -0.2354 -1.0002 -0.0436
   41CHL1  H19A 4181   1.568   6.099   6.801 -1.1807  0.4981  0.5755
   41CHL1  H19B 4182   1.462   6.104   6.648 -0.8832  1.4669 -0.4268
   41CHL1  H19C 4183   1.640   6.083   6.642  1.6650  1.8329 -0.0299
   41CHL1    C1 4184   1.701   6.345   6.739 -0.0970 -0.4718  0.6151
   41CHL1   H1A 4185   1.796   6.310   6.694  0.2703  0.3876  0.7126
   41CHL1   H1B 4186   1.702   6.452   6.707 -4.5051 -0.2485  0.5630
   41CHL1    C2 4187   1.702   6.332   6.887 -0.2801  0.2162 -0.6614
   41CHL1   H2A 4188   1.797   6.362   6.938  0.0469 -0.1919 -1.0287
   41CHL1   H2B 4189   1.699   6.224   6.912 -0.4892  0.2012 -0.7484
   41CHL1   C20 4190   1.558   6.294   5.952 -0.0049 -0.5844 -0.4138
   41CHL1   H20 4191   1.507   6.196   5.941 -0.6715 -0.9715  4.2041
   41CHL1   C21 4192   1.711   6.285   5.952 -0.5316 -0.1721 -0.1619
   41CHL1  H21A 4193   1.745   6.206   6.022  0.5758 -1.1488 -1.7128
   41CHL1  H21B 4194   1.764   6.378   5.981 -1.7966  0.2164  0.9939
   41CHL1  H21C 4195   1.747   6.251   5.852  1.1383 -0.8408  0.6140
   41CHL1   C22 4196   1.523   6.384   5.826 -0.1226 -0.5090  0.9234
   41CHL1  H22A 4197   1.412   6.379   5.814 -0.0494 -1.7214  0.5987
   41CHL1  H22B 4198   1.559   6.486   5.849 -2.5105 -0.0441  3.1138
   41CHL1   C23 4199   1.571   6.321   5.696 -0.2510  0.5344 -0.1445
   41CHL1  H23A 4200   1.680   6.333   5.674  0.2899 -2.2335  0.6076
   41CHL1  H23B 4201   1.562   6.210   5.701 -4.0692  0.6577 -1.2421
   41CHL1   C24 4202   1.496   6.370   5.569 -0.0904 -0.5846 -0.2175
   41CHL1  H24A 4203   1.392   6.331   5.565  0.4329 -2.1224  0.4759
   41CHL1  H24B 4204   1.503   6.480   5.585 -1.6589 -0.5976  0.8586
   41CHL1   C25 4205   1.553   6.334   5.426 -0.3155 -0.4566 -0.3922
   41CHL1   H25 4206   1.652   6.385   5.418 -0.2017 -0.7177 -0.6910
   41CHL1   C26 4207   1.571   6.186   5.408 -0.4422 -0.5891 -0.3923
   41CHL1  H26A 4208   1.597   6.169   5.301  0.0888 -0.1256 -0.3393
   41CHL1  H26B 4209   1.655   6.151   5.471 -1.2788 -0.0617  1.0675
   41CHL1  H26C 4210   1.478   6.133   5.436 -1.4485  2.1085  1.9225
   41CHL1   C27 4211   1.467   6.403   5.320  0.4150 -0.3686  0.4734
   41CHL1  H27A 4212   1.367   6.357   5.328 -1.0729  1.6650 -3.5144
   41CHL1  H27B 4213   1.454   6.511   5.343 -2.5035 -0.9831  2.1350
   41CHL1  H27C 4214   1.507   6.387   5.217 -1.8772  0.6284 -0.6355
   42CHL1    C3 4215   0.434   6.754   6.722  0.2760  0.3602  0.4347
   42CHL1    H3 4216   0.332   6.712   6.717  0.2084  0.4580  0.9705
   42CHL1    O3 4217   0.464   6.763   6.860  0.1805  0.2216 -0.3230
   42CHL1   H3' 4218   0.419   6.690   6.903 -1.4396  1.7597  0.7164
   42CHL1    C4 4219   0.535   6.663   6.655 -0.2768  0.2733  0.1001
   42CHL1   H4A 4220   0.636   6.705   6.676 -0.5960  0.4163  1.4726
   42CHL1   H4B 4221   0.527   6.563   6.705 -0.7935 -0.3922 -1.2773
   42CHL1    C5 4222   0.515   6.653   6.507  0.2392 -0.6339 -0.2214
   42CHL1    C6 4223   0.480   6.539   6.448 -0.3019 -0.5667  0.4989
   42CHL1    H6 4224   0.447   6.456   6.512 -0.3227 -1.5336 -0.7401
   42CHL1    C7 4225   0.472   6.507   6.300 -0.1311 -0.0052  0.1817
   42CHL1   H7A 4226   0.529   6.417   6.269 -0.0831  0.5820 -1.5296
   42CHL1   H7B 4227   0.364   6.487   6.288 -0.2312 -0.0762  1.1197
   42CHL1    C8 4228   0.525   6.632   6.230 -1.0175 -0.4435 -0.0128
   42CHL1    H8 4229   0.636   6.628   6.231 -1.0321 -0.8618 -0.0735
   42CHL1   C14 4230   0.480   6.619   6.082 -0.2364  0.0272 -0.2232
   42CHL1   H14 4231   0.371   6.641   6.087 -0.5666 -1.7439  1.7055
   42CHL1   C15 4232   0.484   6.483   6.007  0.1400 -1.1517 -0.4456
   42CHL1  H15A 4233   0.577   6.427   6.030  0.8339  0.1910  0.1443
   42CHL1  H15B 4234   0.399   6.417   6.034 -0.1368 -0.7479 -0.3130
   42CHL1   C16 4235   0.506   6.516   5.862 -0.0633 -0.1200  0.3836
   42CHL1  H16A 4236   0.612   6.502   5.834  0.4815  0.5515  2.0014
   42CHL1  H16B 4237   0.431   6.475   5.791  0.3240  1.9699 -1.3612
   42CHL1   C17 4238   0.494   6.682   5.858 -0.6169  0.6166 -0.0341
   42CHL1   H17 4239   0.385   6.700   5.867 -0.8200 -1.2863  2.2557
   42CHL1   C13 4240   0.554   6.723   5.998  1.1065 -0.1641 -0.2713
   42CHL1   C18 4241   0.704   6.704   5.991  0.2557 -0.3526  0.6604
   42CHL1  H18A 4242   0.731   6.799   5.940  1.2900 -0.5987  0.7379
   42CHL1  H18B 4243   0.742   6.711   6.095  0.7494  0.0702  0.4587
   42CHL1  H18C 4244   0.742   6.609   5.948 -1.5810 -0.1295 -1.6781
   42CHL1   C12 4245   0.510   6.864   6.039 -0.0567  0.7152 -0.2596
   42CHL1  H12A 4246   0.555   6.948   5.984  1.3355 -0.8603 -1.6360
   42CHL1  H12B 4247   0.399   6.867   6.042 -0.0777  0.4719  2.4801
   42CHL1   C11 4248   0.540   6.885   6.189  0.1325 -0.0484  0.3401
   42CHL1  H11A 4249   0.650   6.894   6.202  0.5046 -2.3025 -0.7024
   42CHL1  H11B 4250   0.490   6.983   6.203  1.4379  0.9013 -1.3445
   42CHL1    C9 4251   0.491   6.769   6.287  0.8415 -0.1944 -0.7767
   42CHL1    H9 4252   0.380   6.777   6.291  0.9098  0.4536  0.1457
   42CHL1   C10 4253   0.544   6.782   6.435 -0.2981  0.3672 -0.0055
   42CHL1   C19 4254   0.694   6.811   6.438  0.1747  0.3011 -0.0532
   42CHL1  H19A 4255   0.740   6.721   6.391  0.7854  0.0413  1.0222
   42CHL1  H19B 4256   0.718   6.906   6.386 -3.0722  1.2088 -0.0936
   42CHL1  H19C 4257   0.730   6.820   6.542 -0.5903  0.0348  0.2407
   42CHL1    C1 4258   0.452   6.883   6.506  0.6000 -0.1060 -0.5212
   42CHL1   H1A 4259   0.472   6.988   6.474 -0.4378  1.5263  3.5948
   42CHL1   H1B 4260   0.347   6.868   6.474  0.3945 -0.2283  0.1924
   42CHL1    C2 4261   0.455   6.894   6.664  0.0505  1.4054  0.3164
   42CHL1   H2A 4262   0.371   6.960   6.694 -0.0087  1.7294 -0.5564
   42CHL1   H2B 4263   0.549   6.943   6.694  0.6973  0.8497 -0.7274
   42CHL1   C20 4264   0.547   6.744   5.730  0.1369  0.4744  0.0256
   42CHL1   H20 4265   0.652   6.780   5.744  0.0746  0.1167  1.5776
   42CHL1   C21 4266   0.465   6.875   5.702 -0.3154  0.7928  0.7657
   42CHL1  H21A 4267   0.483   6.955   5.778  0.3641  0.1015  1.3471
   42CHL1  H21B 4268   0.359   6.841   5.692  0.7757 -2.4404 -0.9592
   42CHL1  H21C 4269   0.511   6.914   5.609 -0.5800 -0.4001  0.1154
   42CHL1   C22 4270   0.546   6.652   5.608  0.1896 -0.4322  0.2875
   42CHL1  H22A 4271   0.586   6.551   5.630  0.8497 -0.8288 -2.3783
   42CHL1  H22B 4272   0.441   6.631   5.576  0.4682  0.4612 -1.3478
   42CHL1   C23 4273   0.639   6.701   5.501  0.0900  0.1124  0.0487
   42CHL1  H23A 4274   0.601   6.795   5.456  0.2962  0.5214  0.7246
   42CHL1  H23B 4275   0.746   6.710   5.531  0.1924 -1.1148  0.1207
   42CHL1   C24 4276   0.635   6.614   5.374  0.9664 -0.8260 -0.5014
   42CHL1  H24A 4277   0.530   6.584   5.354  1.7233 -3.1057 -1.4347
   42CHL1  H24B 4278   0.684   6.678   5.298  1.4322 -0.1794  0.3233
   42CHL1   C25 4279   0.703   6.470   5.378  0.0207  0.3476  0.1464
   42CHL1   H25 4280   0.663   6.425   5.471  0.5963  0.1567  0.3045
   42CHL1   C26 4281   0.661   6.387   5.252 -0.1726 -0.2723 -0.1232
   42CHL1  H26A 4282   0.552   6.394   5.234 -0.0225 -1.1340 -1.4894
   42CHL1  H26B 4283   0.714   6.409   5.157 -1.6535  0.6528 -0.7722
   42CHL1  H26C 4284   0.678   6.279   5.271  1.5244 -0.4732 -2.2836
   42CHL1   C27 4285   0.859   6.471   5.396  0.9302  0.0618 -0.4232
   42CHL1  H27A 4286   0.885   6.368   5.431 -0.6505  0.2702  1.5359
   42CHL1  H27B 4287   0.903   6.503   5.299  0.7370  1.0885 -0.1819
   42CHL1  H27C 4288   0.889   6.531   5.484 -1.7608 -0.5839  1.0363
   43CHL1    C3 4289   6.500   2.669   6.537 -0.6903  0.2881 -1.0652
   43CHL1    H3 4290   6.519   2.779   6.542 -1.9348  0.4846  2.4357
   43CHL1    O3 4291   6.494   2.634   6.674 -0.2864 -0.3418  0.0882
   43CHL1   H3' 4292   6.436   2.692   6.723  1.2216  1.2850  0.0707
   43CHL1    C4 4293   6.374   2.650   6.461 -0.1383  0.5599  0.4049
   43CHL1   H4A 4294   6.332   2.548   6.478 -2.1646  0.6445 -3.1182
   43CHL1   H4B 4295   6.288   2.707   6.501 -0.4170  2.7792 -2.9849
   43CHL1    C5 4296   6.392   2.677   6.314  0.8568 -0.1105 -0.0027
   43CHL1    C6 4297   6.309   2.762   6.250  0.0175  0.9069  0.5088
   43CHL1    H6 4298   6.226   2.801   6.311  0.2016 -0.7672  1.9255
   43CHL1    C7 4299   6.300   2.795   6.102 -0.4896 -0.2987  0.0590
   43CHL1   H7A 4300   6.201   2.766   6.061 -0.0913  1.0333 -1.9958
   43CHL1   H7B 4301   6.318   2.901   6.074 -1.4781 -0.1925 -0.2009
   43CHL1    C8 4302   6.402   2.708   6.022 -0.0524  0.0521  0.2611
   43CHL1    H8 4303   6.357   2.607   6.016  1.1247 -0.4777  0.0101
   43CHL1   C14 4304   6.434   2.753   5.878 -0.5303  0.0174 -0.6073
   43CHL1   H14 4305   6.491   2.847   5.892  2.0866 -1.2001 -2.2768
   43CHL1   C15 4306   6.318   2.792   5.784  0.0706  0.4749  0.3338
   43CHL1  H15A 4307   6.257   2.699   5.790  2.2067 -0.9501  1.1558
   43CHL1  H15B 4308   6.265   2.881   5.822 -1.1452  0.7352 -1.7710
   43CHL1   C16 4309   6.389   2.812   5.649  1.0015  0.4712  0.0641
   43CHL1  H16A 4310   6.334   2.748   5.577  1.1071 -1.9099  1.9650
   43CHL1  H16B 4311   6.392   2.919   5.620  3.4054  0.3116 -0.5692
   43CHL1   C17 4312   6.533   2.754   5.667  0.7934  0.0134  0.0409
   43CHL1   H17 4313   6.589   2.844   5.700  0.6460  0.6867 -1.4830
   43CHL1   C13 4314   6.529   2.665   5.794 -0.4298 -0.2267  0.5449
   43CHL1   C18 4315   6.473   2.526   5.761 -0.2857  0.1358 -0.0399
   43CHL1  H18A 4316   6.388   2.535   5.689  0.1978  0.7175 -0.5499
   43CHL1  H18B 4317   6.550   2.463   5.711  1.1204  0.3196  1.8209
   43CHL1  H18C 4318   6.438   2.473   5.851  1.8603 -0.5902  0.4076
   43CHL1   C12 4319   6.662   2.659   5.869 -0.0910  0.1672  0.3073
   43CHL1  H12A 4320   6.746   2.599   5.826  0.6213 -1.0118  3.1412
   43CHL1  H12B 4321   6.699   2.763   5.875  0.1651  0.2115 -1.4284
   43CHL1   C11 4322   6.642   2.606   6.011  0.1206  0.3782 -0.5909
   43CHL1  H11A 4323   6.616   2.498   6.000 -1.2375  0.7850 -1.5271
   43CHL1  H11B 4324   6.737   2.606   6.069  0.1805  0.4003 -0.6902
   43CHL1    C9 4325   6.537   2.686   6.100  0.8621  0.4633 -0.4279
   43CHL1    H9 4326   6.581   2.787   6.118 -1.4809  1.6775 -0.9858
   43CHL1   C10 4327   6.509   2.620   6.243 -1.2599  0.1005  1.5032
   43CHL1   C19 4328   6.469   2.468   6.221  0.0327  0.0032 -0.1742
   43CHL1  H19A 4329   6.458   2.408   6.314 -0.0383 -0.6092 -0.5774
   43CHL1  H19B 4330   6.374   2.455   6.164  0.7610  0.9324 -1.6596
   43CHL1  H19C 4331   6.547   2.415   6.163  1.5950  2.3699 -0.3709
   43CHL1    C1 4332   6.641   2.637   6.321  0.2491 -0.3056  0.2894
   43CHL1   H1A 4333   6.716   2.566   6.280  0.1165  0.4205 -1.3222
   43CHL1   H1B 4334   6.679   2.742   6.322 -1.6019  0.4054 -0.1716
   43CHL1    C2 4335   6.619   2.601   6.468  0.0952 -0.7222  0.4698
   43CHL1   H2A 4336   6.701   2.639   6.534 -0.1113 -1.1332  0.9755
   43CHL1   H2B 4337   6.610   2.491   6.478 -0.0991 -0.6047  1.8127
   43CHL1   C20 4338   6.609   2.717   5.536 -0.5072 -0.3764 -0.4820
   43CHL1   H20 4339   6.708   2.682   5.571 -0.9635  0.2504  1.5559
   43CHL1   C21 4340   6.634   2.856   5.469 -0.0399  0.0131 -0.0331
   43CHL1  H21A 4341   6.693   2.840   5.375  1.7757 -0.9055  1.1955
   43CHL1  H21B 4342   6.693   2.910   5.546 -0.9211 -0.7508  1.2010
   43CHL1  H21C 4343   6.540   2.909   5.444 -0.3413 -1.1185 -1.4577
   43CHL1   C22 4344   6.544   2.613   5.435 -0.4018  0.1276  0.0100
   43CHL1  H22A 4345   6.500   2.532   5.497 -0.9483 -0.9818 -1.7462
   43CHL1  H22B 4346   6.454   2.658   5.386 -1.6772  0.1096  2.1937
   43CHL1   C23 4347   6.640   2.566   5.324  0.2434  0.4983  0.1668
   43CHL1  H23A 4348   6.690   2.653   5.277  0.1049  0.8435  0.6481
   43CHL1  H23B 4349   6.719   2.505   5.373 -0.0582  2.2732  3.0953
   43CHL1   C24 4350   6.562   2.489   5.222 -0.3289  0.2425  0.2772
   43CHL1  H24A 4351   6.491   2.419   5.271  0.3169 -2.4227 -2.2987
   43CHL1  H24B 4352   6.501   2.552   5.154 -0.0255 -0.2287 -0.4423
   43CHL1   C25 4353   6.645   2.405   5.125  0.3291 -0.1975 -0.4013
   43CHL1   H25 4354   6.731   2.464   5.089  0.3462  0.5887  0.8794
   43CHL1   C26 4355   6.698   2.289   5.205 -0.6019  0.3920  0.1408
   43CHL1  H26A 4356   6.761   2.318   5.291 -1.3865  0.4429  0.7137
   43CHL1  H26B 4357   6.621   2.217   5.241  1.4539 -0.8807  2.2649
   43CHL1  H26C 4358   6.763   2.229   5.138  2.1326  1.6746  1.5150
   43CHL1   C27 4359   6.554   2.358   5.012  0.5745  0.0570  0.5545
   43CHL1  H27A 4360   6.477   2.436   4.992  1.1961  0.1189 -1.9922
   43CHL1  H27B 4361   6.608   2.331   4.918  1.2655 -0.2055  1.0225
   43CHL1  H27C 4362   6.511   2.261   5.046 -1.0945  0.8019  0.6924
   44CHL1    C3 4363   2.042   4.267   6.542  0.0194 -0.3293  0.0268
   44CHL1    H3 4364   2.126   4.332   6.511 -0.5124 -0.2128 -1.2219
   44CHL1    O3 4365   2.018   4.256   6.679 -0.0849  0.1500 -0.2052
   44CHL1   H3' 4366   1.935   4.208   6.685  0.2594 -0.6490 -1.3555
   44CHL1    C4 4367   1.927   4.337   6.478 -0.3053  0.3488  0.4905
   44CHL1   H4A 4368   1.832   4.286   6.506 -0.3869  0.4828  0.4570
   44CHL1   H4B 4369   1.923   4.438   6.525  1.5819  0.7737 -0.1772
   44CHL1    C5 4370   1.939   4.327   6.327  0.0288  0.0789  0.1883
   44CHL1    C6 4371   1.952   4.439   6.257  0.1328  0.1974  0.2386
   44CHL1    H6 4372   1.940   4.536   6.306 -0.1462  1.1682 -1.6652
   44CHL1    C7 4373   1.964   4.425   6.113  0.3358 -0.3264 -0.1196
   44CHL1   H7A 4374   1.916   4.508   6.058  0.2745  0.5270  1.1738
   44CHL1   H7B 4375   2.072   4.426   6.085  0.1698  0.0542 -0.7768
   44CHL1    C8 4376   1.917   4.292   6.054 -0.1908  0.5866  0.4904
   44CHL1    H8 4377   1.806   4.284   6.044 -0.2309  0.9432  0.6442
   44CHL1   C14 4378   1.968   4.290   5.904 -0.1299  0.3469  0.6807
   44CHL1   H14 4379   2.079   4.284   5.907 -0.1233 -2.2047 -1.1189
   44CHL1   C15 4380   1.932   4.408   5.816  0.1192 -0.3373 -0.0155
   44CHL1  H15A 4381   1.831   4.448   5.837  1.5735  2.5761  2.1844
   44CHL1  H15B 4382   1.990   4.501   5.838 -0.4491  0.2122 -0.7789
   44CHL1   C16 4383   1.944   4.357   5.673  0.5274 -0.0874  0.0187
   44CHL1  H16A 4384   1.849   4.375   5.619  0.4496  1.0110  0.4822
   44CHL1  H16B 4385   2.021   4.406   5.610 -1.7053 -0.4505 -3.2084
   44CHL1   C17 4386   1.984   4.206   5.685  0.6827  0.6123 -0.1927
   44CHL1   H17 4387   2.092   4.183   5.694  0.2825 -2.2262 -1.3433
   44CHL1   C13 4388   1.927   4.165   5.830 -0.5515 -0.0811 -0.2545
   44CHL1   C18 4389   1.775   4.149   5.812  0.2509  0.7880  0.6715
   44CHL1  H18A 4390   1.718   4.223   5.753 -1.0927  0.0828  1.0199
   44CHL1  H18B 4391   1.764   4.043   5.778  0.1048  0.9877  0.0890
   44CHL1  H18C 4392   1.730   4.144   5.914  0.4145 -3.5812  0.7326
   44CHL1   C12 4393   1.989   4.043   5.901 -0.4879 -0.0630 -0.0179
   44CHL1  H12A 4394   1.944   3.951   5.856 -0.6596  0.5251 -1.0858
   44CHL1  H12B 4395   2.099   4.045   5.881 -0.8560 -0.6349 -2.5769
   44CHL1   C11 4396   1.951   4.038   6.050 -0.2890 -0.5061  0.1666
   44CHL1  H11A 4397   1.841   4.023   6.057 -0.9851  3.9400  2.3787
   44CHL1  H11B 4398   1.996   3.953   6.105 -0.5667  0.3270  1.7762
   44CHL1    C9 4399   1.980   4.172   6.124  0.3726  0.9741  0.5395
   44CHL1    H9 4400   2.090   4.182   6.110  0.0830  2.4964 -1.0292
   44CHL1   C10 4401   1.957   4.175   6.276  1.0338 -0.6838 -0.1311
   44CHL1   C19 4402   1.824   4.112   6.303  0.8326  0.3181 -0.0347
   44CHL1  H19A 4403   1.792   4.121   6.409  1.0499 -2.1085  0.2833
   44CHL1  H19B 4404   1.752   4.165   6.237 -0.0395 -0.5294  0.2048
   44CHL1  H19C 4405   1.811   4.007   6.270  0.2116  1.2041 -2.8929
   44CHL1    C1 4406   2.074   4.111   6.344 -0.0261  0.7036  0.0088
   44CHL1   H1A 4407   2.069   4.004   6.312 -1.2303  1.2640 -1.8163
   44CHL1   H1B 4408   2.168   4.151   6.300 -0.6372 -0.6042 -2.6589
   44CHL1    C2 4409   2.076   4.124   6.496  0.2379  0.2039 -0.1687
   44CHL1   H2A 4410   2.175   4.095   6.536 -1.4250 -2.3211  2.5128
   44CHL1   H2B 4411   1.994   4.056   6.529 -0.4356 -0.1647 -2.4607
   44CHL1   C20 4412   1.935   4.116   5.565 -0.3027 -0.3703  0.1218
   44CHL1   H20 4413   1.825   4.101   5.570 -0.1328 -1.5710  0.6717
   44CHL1   C21 4414   2.005   3.982   5.574 -0.6269 -0.2340 -0.2129
   44CHL1  H21A 4415   2.116   3.996   5.571 -0.4819 -1.1681  0.2340
   44CHL1  H21B 4416   1.972   3.919   5.489 -2.2266 -2.0508  1.6562
   44CHL1  H21C 4417   1.979   3.924   5.665 -0.8888  0.2689  0.0343
   44CHL1   C22 4418   1.948   4.176   5.423 -0.6043  0.5056 -0.4141
   44CHL1  H22A 4419   1.887   4.105   5.363 -1.7907 -0.1300  1.4293
   44CHL1  H22B 4420   1.888   4.269   5.418 -0.2420  0.8926  1.4849
   44CHL1   C23 4421   2.093   4.211   5.390  0.5655  0.0876 -0.3737
   44CHL1  H23A 4422   2.137   4.273   5.471 -3.0351 -0.4351  2.2573
   44CHL1  H23B 4423   2.159   4.122   5.380  1.5255  0.3810  2.4257
   44CHL1   C24 4424   2.096   4.302   5.269 -0.6243 -0.5352 -0.0941
   44CHL1  H24A 4425   2.027   4.387   5.289  1.2901  0.5011  2.7436
   44CHL1  H24B 4426   2.196   4.349   5.260 -1.6098  1.8099  0.3730
   44CHL1   C25 4427   2.054   4.236   5.136  0.2722 -0.4768  0.9040
   44CHL1   H25 4428   1.966   4.169   5.151 -1.1454  1.2780  0.6772
   44CHL1   C26 4429   2.018   4.347   5.032  0.2126  0.1280 -0.5680
   44CHL1  H26A 4430   1.969   4.306   4.941 -2.8136  2.2431 -0.0766
   44CHL1  H26B 4431   1.937   4.413   5.072 -0.3875 -0.3096 -1.0367
   44CHL1  H26C 4432   2.112   4.400   5.007  2.3062 -2.2508  1.6291
   44CHL1   C27 4433   2.165   4.156   5.067 -0.2169  0.4360  1.0387
   44CHL1  H27A 4434   2.260   4.206   5.039  0.2230 -0.4213  0.9592
   44CHL1  H27B 4435   2.199   4.073   5.132  2.1043  0.7555  0.3267
   44CHL1  H27C 4436   2.128   4.092   4.984  1.2185 -0.9693  1.4269
   45CHL1    C3 4437   1.401   5.296   6.757  0.2197 -0.0427  0.1841
   45CHL1    H3 4438   1.298   5.337   6.758  0.3201  0.1932  0.9778
   45CHL1    O3 4439   1.452   5.299   6.888 -0.7808  0.3110  0.0530
   45CHL1   H3' 4440   1.476   5.207   6.902  1.3931  0.7122 -0.6489
   45CHL1    C4 4441   1.401   5.153   6.704 -0.0280 -0.1881 -0.2429
   45CHL1   H4A 4442   1.495   5.097   6.727 -0.1263  0.2600  1.4286
   45CHL1   H4B 4443   1.317   5.109   6.762 -2.1955  1.1423 -2.2068
   45CHL1    C5 4444   1.374   5.131   6.558  0.5666 -1.3894  0.1985
   45CHL1    C6 4445   1.264   5.066   6.516 -0.1782  0.9483  0.3495
   45CHL1    H6 4446   1.191   5.017   6.582 -1.2633  0.8791 -0.8724
   45CHL1    C7 4447   1.238   5.054   6.365  0.1136  0.2047  0.5373
   45CHL1   H7A 4448   1.221   4.948   6.337 -0.8709  1.1844 -3.1621
   45CHL1   H7B 4449   1.146   5.110   6.337 -1.0419 -1.1829  1.4336
   45CHL1    C8 4450   1.356   5.086   6.272 -0.2444 -1.2946 -1.1418
   45CHL1    H8 4451   1.431   5.005   6.287  1.7879  0.6826 -0.0079
   45CHL1   C14 4452   1.309   5.095   6.133 -0.7467  0.1725  0.6270
   45CHL1   H14 4453   1.229   5.172   6.138  0.2561  1.2231  1.2730
   45CHL1   C15 4454   1.238   4.975   6.062 -0.4338 -0.3882 -0.2766
   45CHL1  H15A 4455   1.303   4.889   6.089  0.2382 -0.0971 -0.9286
   45CHL1  H15B 4456   1.136   4.962   6.103 -1.7159  0.6114 -2.9477
   45CHL1   C16 4457   1.238   5.015   5.915  0.0822 -0.3670  0.7409
   45CHL1  H16A 4458   1.288   4.930   5.862  0.9838  2.2671 -3.0253
   45CHL1  H16B 4459   1.135   5.038   5.881  1.0413  0.5102 -1.7772
   45CHL1   C17 4460   1.333   5.145   5.904 -0.4539  0.3069  1.2371
   45CHL1   H17 4461   1.264   5.233   5.908  1.8310  2.1622  1.9267
   45CHL1   C13 4462   1.409   5.156   6.032 -0.4782 -0.6594  0.1157
   45CHL1   C18 4463   1.529   5.059   6.023  1.1838 -0.0095 -0.4021
   45CHL1  H18A 4464   1.567   5.035   6.125  1.6026 -3.1035 -1.1820
   45CHL1  H18B 4465   1.497   4.963   5.977  2.9715 -0.8284 -0.0500
   45CHL1  H18C 4466   1.612   5.111   5.971  0.1149  1.3519 -0.8150
   45CHL1   C12 4467   1.456   5.290   6.085  0.3033  0.2717  0.4478
   45CHL1  H12A 4468   1.532   5.353   6.035 -0.7740  2.3519  1.2947
   45CHL1  H12B 4469   1.363   5.351   6.083  0.6426  0.7679 -1.3952
   45CHL1   C11 4470   1.504   5.289   6.225 -0.2633 -0.4434 -0.0376
   45CHL1  H11A 4471   1.603   5.238   6.226  0.2122  0.4491 -0.3162
   45CHL1  H11B 4472   1.518   5.397   6.246 -1.5195 -0.3477  0.3766
   45CHL1    C9 4473   1.408   5.222   6.326  0.4473  0.0152 -0.3041
   45CHL1    H9 4474   1.321   5.291   6.325 -0.7237 -1.4139 -1.1972
   45CHL1   C10 4475   1.466   5.222   6.470  0.0796 -0.4737  0.6995
   45CHL1   C19 4476   1.606   5.168   6.471 -0.7438  0.3649 -0.1072
   45CHL1  H19A 4477   1.635   5.126   6.570 -2.4634 -1.9088 -0.4822
   45CHL1  H19B 4478   1.601   5.092   6.390 -1.5026  2.8286 -2.4862
   45CHL1  H19C 4479   1.685   5.240   6.439 -2.1517  1.4521 -1.2408
   45CHL1    C1 4480   1.453   5.371   6.522 -0.1009  0.2945 -0.6961
   45CHL1   H1A 4481   1.524   5.431   6.461  0.2423  1.9507  1.2200
   45CHL1   H1B 4482   1.354   5.413   6.498 -0.2207 -0.8291 -2.2934
   45CHL1    C2 4483   1.493   5.379   6.671  0.2522 -0.5134  0.2199
   45CHL1   H2A 4484   1.491   5.484   6.708 -0.5037  0.0982 -1.4749
   45CHL1   H2B 4485   1.601   5.351   6.671  0.3837 -0.1588 -2.2336
   45CHL1   C20 4486   1.408   5.160   5.772 -0.0531  0.2342 -0.1759
   45CHL1   H20 4487   1.477   5.074   5.757 -1.8674 -1.0097 -1.6923
   45CHL1   C21 4488   1.482   5.295   5.770  0.1180  0.3623 -0.4429
   45CHL1  H21A 4489   1.415   5.383   5.779 -1.9544 -1.2559  0.7234
   45CHL1  H21B 4490   1.535   5.295   5.672 -2.1258 -0.3805 -1.7490
   45CHL1  H21C 4491   1.562   5.298   5.847 -0.6930  0.1489  0.4261
   45CHL1   C22 4492   1.319   5.152   5.647  0.0778  0.3554 -0.0322
   45CHL1  H22A 4493   1.241   5.074   5.651 -0.3453  0.7950  2.5710
   45CHL1  H22B 4494   1.274   5.254   5.639  0.8546  0.6804 -0.3842
   45CHL1   C23 4495   1.392   5.129   5.514  0.1294  0.0449  0.4215
   45CHL1  H23A 4496   1.489   5.182   5.506 -0.7616  1.7546  0.3139
   45CHL1  H23B 4497   1.408   5.019   5.507  0.5488  0.0367  1.3553
   45CHL1   C24 4498   1.321   5.169   5.384 -0.6887 -0.2771 -0.9176
   45CHL1  H24A 4499   1.224   5.118   5.370 -2.1035  2.2838 -1.1080
   45CHL1  H24B 4500   1.298   5.278   5.391 -1.4527 -0.5269  1.0274
   45CHL1   C25 4501   1.414   5.151   5.258  0.2095 -0.1401 -0.3513
   45CHL1   H25 4502   1.494   5.227   5.254  0.2229 -0.2141 -2.0465
   45CHL1   C26 4503   1.478   5.015   5.241  0.7239 -0.0060  0.0337
   45CHL1  H26A 4504   1.574   5.014   5.298 -0.6223  0.9004  2.4702
   45CHL1  H26B 4505   1.427   4.920   5.267 -0.6879 -0.3747 -3.5505
   45CHL1  H26C 4506   1.507   5.005   5.134  2.0714 -1.5239  0.5015
   45CHL1   C27 4507   1.329   5.180   5.143  0.0753  0.3162 -0.8818
   45CHL1  H27A 4508   1.250   5.102   5.134  0.9659 -1.1226  2.2477
   45CHL1  H27B 4509   1.279   5.278   5.145 -0.1424  0.1939  0.6384
   45CHL1  H27C 4510   1.390   5.176   5.049  3.1802 -0.9697  1.0347
   46CHL1    C3 4511   3.396   6.556   6.801 -0.9981 -0.2620  0.4227
   46CHL1    H3 4512   3.340   6.649   6.823 -1.7070 -0.5871  0.0252
   46CHL1    O3 4513   3.462   6.507   6.917  0.5497 -0.1558  0.0694
   46CHL1   H3' 4514   3.479   6.414   6.904 -0.6675 -0.2075 -1.4606
   46CHL1    C4 4515   3.302   6.456   6.740 -0.1342  0.1277  0.2538
   46CHL1   H4A 4516   3.354   6.358   6.736 -0.8469 -0.2362 -0.2279
   46CHL1   H4B 4517   3.220   6.432   6.811  0.0057 -2.5243 -0.3803
   46CHL1    C5 4518   3.250   6.495   6.599 -0.3797  0.9593  0.0092
   46CHL1    C6 4519   3.120   6.496   6.565  0.1550  0.7376 -0.2537
   46CHL1    H6 4520   3.048   6.461   6.641  0.2770 -4.1141 -1.9840
   46CHL1    C7 4521   3.070   6.526   6.421 -0.2643  0.4369 -0.0989
   46CHL1   H7A 4522   2.991   6.454   6.394 -0.8771  0.2994  1.8636
   46CHL1   H7B 4523   3.031   6.630   6.422 -2.0542 -0.2153 -0.1027
   46CHL1    C8 4524   3.187   6.527   6.319  0.1727 -0.0854  0.1186
   46CHL1    H8 4525   3.216   6.421   6.301  2.9698  0.6789 -0.4698
   46CHL1   C14 4526   3.140   6.599   6.191  0.3944  0.0573 -0.5893
   46CHL1   H14 4527   3.135   6.703   6.229 -1.4553  1.2213 -3.6337
   46CHL1   C15 4528   3.008   6.564   6.127  0.2750 -0.2700 -0.0986
   46CHL1  H15A 4529   3.004   6.453   6.129  0.4161 -0.2759 -0.1946
   46CHL1  H15B 4530   2.927   6.610   6.189 -0.3683 -1.6127  0.0823
   46CHL1   C16 4531   3.003   6.619   5.987  0.1519 -0.1848 -0.2842
   46CHL1  H16A 4532   2.995   6.531   5.920 -1.5035 -1.8089  1.9243
   46CHL1  H16B 4533   2.917   6.689   5.983 -0.6378 -0.6847  3.9257
   46CHL1   C17 4534   3.146   6.687   5.976 -0.8804 -0.3339  0.5548
   46CHL1   H17 4535   3.139   6.788   6.022  1.8499 -0.6418  1.8718
   46CHL1   C13 4536   3.240   6.611   6.076  0.4819 -0.0466 -0.7280
   46CHL1   C18 4537   3.264   6.473   6.028 -0.0716 -0.1124  0.6150
   46CHL1  H18A 4538   3.303   6.421   6.117  0.0681 -1.7593 -0.3664
   46CHL1  H18B 4539   3.181   6.409   5.991  0.4986 -1.0138  0.8645
   46CHL1  H18C 4540   3.345   6.471   5.952  0.4276 -2.4254  1.1264
   46CHL1   C12 4541   3.365   6.691   6.117 -0.1017 -0.4520  0.4401
   46CHL1  H12A 4542   3.437   6.694   6.032 -0.5649  2.8264  0.0098
   46CHL1  H12B 4543   3.341   6.798   6.132 -0.1800 -0.6451  1.8025
   46CHL1   C11 4544   3.422   6.629   6.254 -0.5385 -0.1054  0.4753
   46CHL1  H11A 4545   3.481   6.536   6.236  0.3357  0.2126  1.6066
   46CHL1  H11B 4546   3.490   6.704   6.300  0.7029 -0.0484 -1.3389
   46CHL1    C9 4547   3.312   6.601   6.368  0.3886  0.1009  0.5037
   46CHL1    H9 4548   3.270   6.700   6.397  0.0294 -0.2266  1.1129
   46CHL1   C10 4549   3.359   6.531   6.499 -0.1548  0.8127 -0.0825
   46CHL1   C19 4550   3.452   6.413   6.461 -1.0275 -0.2327  0.1828
   46CHL1  H19A 4551   3.468   6.349   6.550 -0.6017  0.6072  0.7186
   46CHL1  H19B 4552   3.416   6.356   6.372  1.3325 -2.5419  0.5961
   46CHL1  H19C 4553   3.551   6.456   6.436 -1.5017  0.0954 -1.2479
   46CHL1    C1 4554   3.446   6.641   6.572  0.5252  0.5824 -0.0921
   46CHL1   H1A 4555   3.529   6.667   6.502  0.3583  2.9268  0.4980
   46CHL1   H1B 4556   3.391   6.736   6.592  1.2471  1.4117 -1.7844
   46CHL1    C2 4557   3.508   6.602   6.705 -0.7639  0.0099 -0.2853
   46CHL1   H2A 4558   3.551   6.696   6.745  0.5891 -0.8224  0.2936
   46CHL1   H2B 4559   3.579   6.517   6.691 -0.6978 -0.2962  1.5693
   46CHL1   C20 4560   3.203   6.724   5.833 -0.2910  0.0577 -0.0252
   46CHL1   H20 4561   3.311   6.742   5.850  0.0251 -2.7253  1.5733
   46CHL1   C21 4562   3.115   6.847   5.779 -0.2257 -0.2837  0.3646
   46CHL1  H21A 4563   3.139   6.877   5.675 -0.3650 -0.0735  0.3927
   46CHL1  H21B 4564   3.131   6.938   5.840  2.0273  0.2335 -0.8965
   46CHL1  H21C 4565   3.011   6.809   5.786 -0.3867  0.3867  2.2197
   46CHL1   C22 4566   3.195   6.603   5.731 -0.1500  0.2846 -0.0838
   46CHL1  H22A 4567   3.243   6.518   5.783  1.0721  1.0398  0.0730
   46CHL1  H22B 4568   3.088   6.576   5.722 -0.0288  0.3225 -2.2319
   46CHL1   C23 4569   3.242   6.620   5.585  0.5872 -0.0853  0.0637
   46CHL1  H23A 4570   3.177   6.699   5.541 -0.0059  0.5391  1.9269
   46CHL1  H23B 4571   3.340   6.672   5.579 -0.3406  1.5643 -1.9490
   46CHL1   C24 4572   3.250   6.485   5.515  0.1260 -0.5920  0.5867
   46CHL1  H24A 4573   3.331   6.420   5.554 -0.0528 -1.5270 -0.5277
   46CHL1  H24B 4574   3.153   6.431   5.516  0.8718 -1.9814  1.0669
   46CHL1   C25 4575   3.288   6.502   5.367  0.3004 -0.1303  0.0234
   46CHL1   H25 4576   3.371   6.576   5.360 -0.9276  1.3599  0.4863
   46CHL1   C26 4577   3.322   6.364   5.297  0.2977 -0.0016 -0.3027
   46CHL1  H26A 4578   3.339   6.378   5.188 -0.9801 -1.1693 -0.6804
   46CHL1  H26B 4579   3.414   6.335   5.353  0.5533  0.6889 -0.3551
   46CHL1  H26C 4580   3.237   6.295   5.312  0.3182  0.5712  3.2097
   46CHL1   C27 4581   3.174   6.556   5.285 -0.9217 -0.9839  0.2148
   46CHL1  H27A 4582   3.192   6.587   5.180 -1.1647 -0.3123  0.3677
   46CHL1  H27B 4583   3.089   6.485   5.297 -0.8053 -1.1024  0.3436
   46CHL1  H27C 4584   3.150   6.655   5.330  0.2535 -0.7886  0.4497
   47CHL1    C3 4585   5.751   4.869   6.555 -1.0870  0.5549  0.1282
   47CHL1    H3 4586   5.691   4.776   6.551 -0.3625 -0.0158  1.5891
   47CHL1    O3 4587   5.798   4.876   6.688 -0.9207  0.0461 -0.0234
   47CHL1   H3' 4588   5.724   4.907   6.740  0.9740  0.9228  2.3797
   47CHL1    C4 4589   5.866   4.867   6.457  0.3702 -0.1738 -0.1545
   47CHL1   H4A 4590   5.915   4.964   6.479 -1.0236  1.0211 -1.9614
   47CHL1   H4B 4591   5.935   4.786   6.490 -1.9116 -1.1162  2.7089
   47CHL1    C5 4592   5.828   4.865   6.311 -0.8618  0.1803 -0.5707
   47CHL1    C6 4593   5.883   4.770   6.235 -0.3167 -0.3297 -0.0690
   47CHL1    H6 4594   5.946   4.692   6.279 -1.0147 -0.6421  0.4013
   47CHL1    C7 4595   5.843   4.770   6.090 -0.1110 -0.3349 -0.1332
   47CHL1   H7A 4596   5.932   4.744   6.028  1.6083  1.2707  1.5079
   47CHL1   H7B 4597   5.767   4.690   6.095 -0.6580  0.1710 -0.2341
   47CHL1    C8 4598   5.772   4.895   6.025  0.1350 -0.4972 -0.1146
   47CHL1    H8 4599   5.838   4.981   6.006 -2.2005  1.6090  0.7345
   47CHL1   C14 4600   5.713   4.858   5.889 -0.0728 -0.3832 -0.2714
   47CHL1   H14 4601   5.647   4.777   5.925  1.7475 -1.2479  1.2725
   47CHL1   C15 4602   5.807   4.796   5.783  0.1266 -0.5986 -0.0683
   47CHL1  H15A 4603   5.892   4.867   5.774  1.2991 -1.6462  1.9900
   47CHL1  H15B 4604   5.844   4.694   5.808  0.2684 -0.3278  0.8731
   47CHL1   C16 4605   5.717   4.803   5.665  0.5215  0.4978  0.5018
   47CHL1  H16A 4606   5.765   4.840   5.572  0.0776 -0.3525 -0.0804
   47CHL1  H16B 4607   5.689   4.696   5.658  1.0895  0.2928  1.1977
   47CHL1   C17 4608   5.594   4.889   5.688  0.0396 -0.4323 -0.2069
   47CHL1   H17 4609   5.515   4.811   5.701  0.8550 -2.0738 -3.8059
   47CHL1   C13 4610   5.625   4.966   5.821  0.1258  1.0390  0.6702
   47CHL1   C18 4611   5.710   5.091   5.777  0.5034 -0.2545 -0.6325
   47CHL1  H18A 4612   5.749   5.136   5.871 -0.1162 -0.5933 -0.1989
   47CHL1  H18B 4613   5.793   5.064   5.709 -0.1674 -1.3636 -1.0358
   47CHL1  H18C 4614   5.654   5.170   5.722 -0.1035 -1.0895 -1.2358
   47CHL1   C12 4615   5.505   4.996   5.921 -0.6305  0.1387  0.8267
   47CHL1  H12A 4616   5.448   5.082   5.882 -1.1240  0.2457  1.7701
   47CHL1  H12B 4617   5.438   4.907   5.929  0.3959 -0.7338  0.0005
   47CHL1   C11 4618   5.557   5.029   6.063  0.3015 -0.7522  0.3847
   47CHL1  H11A 4619   5.606   5.129   6.059  3.1695 -1.9999  1.5998
   47CHL1  H11B 4620   5.462   5.027   6.120 -0.7178  1.8652 -1.0351
   47CHL1    C9 4621   5.659   4.937   6.125 -0.3105 -0.1626  0.3504
   47CHL1    H9 4622   5.595   4.847   6.141 -0.0916 -0.3274  0.3147
   47CHL1   C10 4623   5.718   4.971   6.264 -0.6900  0.0093  0.3727
   47CHL1   C19 4624   5.777   5.114   6.263  1.0862 -0.1897 -0.0215
   47CHL1  H19A 4625   5.870   5.134   6.206  0.5267 -1.6643 -1.5736
   47CHL1  H19B 4626   5.709   5.198   6.237  0.7692 -0.9194 -1.7478
   47CHL1  H19C 4627   5.810   5.136   6.367 -0.2454 -2.3582  0.9450
   47CHL1    C1 4628   5.606   4.965   6.372 -0.3649 -0.3196  0.5283
   47CHL1   H1A 4629   5.541   5.051   6.347  0.0741 -0.0879  0.1731
   47CHL1   H1B 4630   5.554   4.867   6.359 -0.8900 -0.1369  1.2077
   47CHL1    C2 4631   5.650   4.980   6.519  0.0696  0.1171  0.1651
   47CHL1   H2A 4632   5.557   4.973   6.579  1.2319 -1.7641  1.8783
   47CHL1   H2B 4633   5.698   5.080   6.531 -0.4208  0.5263 -1.0913
   47CHL1   C20 4634   5.550   4.963   5.568 -0.5417  0.0220 -0.6093
   47CHL1   H20 4635   5.619   5.044   5.538 -1.8061  0.9230 -1.1759
   47CHL1   C21 4636   5.410   5.019   5.593  0.5331 -0.3400  0.1087
   47CHL1  H21A 4637   5.411   5.094   5.674  1.8001 -0.6056  0.3564
   47CHL1  H21B 4638   5.341   4.937   5.625 -0.4405  0.2634 -0.4105
   47CHL1  H21C 4639   5.367   5.057   5.498 -0.3219 -1.0067  0.2090
   47CHL1   C22 4640   5.535   4.871   5.442 -0.3327 -0.5249 -0.7948
   47CHL1  H22A 4641   5.609   4.789   5.442  0.6814  0.3738 -0.3856
   47CHL1  H22B 4642   5.437   4.818   5.452 -0.8665  0.0923 -2.4338
   47CHL1   C23 4643   5.552   4.952   5.317 -0.6213  0.6842  0.0850
   47CHL1  H23A 4644   5.477   5.032   5.334 -2.8759 -1.1421 -0.7179
   47CHL1  H23B 4645   5.655   4.994   5.305 -0.6463  1.2681  1.6781
   47CHL1   C24 4646   5.513   4.867   5.197  0.1199 -0.2015  0.0671
   47CHL1  H24A 4647   5.578   4.778   5.186  0.3737  0.1725 -1.9926
   47CHL1  H24B 4648   5.405   4.848   5.214  0.3402 -0.5081  1.1917
   47CHL1   C25 4649   5.508   4.941   5.059 -0.1441 -0.2391  0.0862
   47CHL1   H25 4650   5.493   4.855   4.991 -1.4841 -0.1229  0.2073
   47CHL1   C26 4651   5.404   5.048   5.051 -0.3880 -0.6600  0.3717
   47CHL1  H26A 4652   5.389   5.071   4.944  0.2364  0.2269  0.4624
   47CHL1  H26B 4653   5.312   5.007   5.098 -0.8456 -0.8491 -0.6794
   47CHL1  H26C 4654   5.425   5.137   5.114 -0.8503 -1.9348  2.4484
   47CHL1   C27 4655   5.651   4.991   5.018  0.4655  0.2018 -0.5448
   47CHL1  H27A 4656   5.730   4.913   5.019  2.4474  2.1119  1.4705
   47CHL1  H27B 4657   5.650   5.051   4.925  0.6094  0.8501 -0.1344
   47CHL1  H27C 4658   5.687   5.064   5.094  0.7058  2.1093 -2.4042
   48CHL1    C3 4659   2.713   0.488   6.983  0.9867  0.1128  0.1400
   48CHL1    H3 4660   2.611   0.445   6.971  2.1627 -2.8366 -0.1334
   48CHL1    O3 4661   2.737   0.527   7.115  0.0547 -0.5867  0.6242
   48CHL1   H3' 4662   2.828   0.499   7.128 -0.1274 -1.7290 -0.4399
   48CHL1    C4 4663   2.820   0.381   6.946  0.0901 -0.4980 -0.3467
   48CHL1   H4A 4664   2.916   0.433   6.963 -0.3465 -0.0279  0.7962
   48CHL1   H4B 4665   2.807   0.303   7.024 -1.0996 -0.4042 -0.4286
   48CHL1    C5 4666   2.821   0.337   6.802  0.7316  0.6327 -0.3446
   48CHL1    C6 4667   2.806   0.206   6.775  0.5090 -0.7916 -0.0212
   48CHL1    H6 4668   2.831   0.131   6.853  4.0458  1.2151  0.9923
   48CHL1    C7 4669   2.790   0.154   6.632 -0.1732  0.0800  0.1108
   48CHL1   H7A 4670   2.866   0.078   6.603 -3.0707 -2.7902 -0.4750
   48CHL1   H7B 4671   2.693   0.105   6.613 -0.4016  1.0263 -1.3519
   48CHL1    C8 4672   2.813   0.265   6.523 -0.4063  0.5653 -0.2685
   48CHL1    H8 4673   2.924   0.276   6.523 -0.2952 -0.0453  1.9564
   48CHL1   C14 4674   2.763   0.219   6.386  1.1422 -0.6149 -0.2444
   48CHL1   H14 4675   2.652   0.221   6.387  1.1249 -1.3011 -0.3312
   48CHL1   C15 4676   2.795   0.080   6.342  0.1334 -0.0965  0.4689
   48CHL1  H15A 4677   2.896   0.047   6.374  0.1538 -1.2895 -0.7539
   48CHL1  H15B 4678   2.723  -0.001   6.369 -3.1805  2.0397 -1.2735
   48CHL1   C16 4679   2.805   0.082   6.194 -0.4210  0.4818 -0.5175
   48CHL1  H16A 4680   2.912   0.082   6.166 -0.3420 -2.0464 -0.4783
   48CHL1  H16B 4681   2.748   0.005   6.138 -1.4371 -0.7444  2.0200
   48CHL1   C17 4682   2.757   0.226   6.151 -0.2801  0.3957  1.1492
   48CHL1   H17 4683   2.646   0.218   6.150 -0.1508 -3.0019 -0.3417
   48CHL1   C13 4684   2.795   0.318   6.267 -0.3754 -0.0010  0.0614
   48CHL1   C18 4685   2.948   0.337   6.261  0.1614 -0.9955  0.1442
   48CHL1  H18A 4686   3.012   0.248   6.244  1.1269 -0.4373  0.7348
   48CHL1  H18B 4687   2.966   0.408   6.177 -1.6879 -0.5747  0.0570
   48CHL1  H18C 4688   2.982   0.385   6.356 -0.4742 -0.5428  0.1489
   48CHL1   C12 4689   2.724   0.455   6.307 -0.3653  0.2122 -0.1319
   48CHL1  H12A 4690   2.734   0.530   6.226  1.0615  0.4973  0.2773
   48CHL1  H12B 4691   2.617   0.422   6.302 -0.0824 -1.1513  1.7165
   48CHL1   C11 4692   2.767   0.504   6.442  0.3752 -0.1699 -0.3119
   48CHL1  H11A 4693   2.872   0.538   6.425 -0.2475  1.2432 -1.5671
   48CHL1  H11B 4694   2.691   0.582   6.463  1.5765  0.4649  2.0594
   48CHL1    C9 4695   2.748   0.399   6.564 -0.3016  0.1834  0.4021
   48CHL1    H9 4696   2.640   0.375   6.569 -0.1501 -0.7129 -0.3280
   48CHL1   C10 4697   2.808   0.454   6.701  0.0658 -0.2080  0.5170
   48CHL1   C19 4698   2.948   0.511   6.673 -0.3622 -0.4941  0.1959
   48CHL1  H19A 4699   2.992   0.551   6.767  1.1649  0.7256 -0.9763
   48CHL1  H19B 4700   3.015   0.435   6.628 -1.6173 -1.7347  0.3726
   48CHL1  H19C 4701   2.962   0.598   6.604  1.0773 -0.8908 -0.0529
   48CHL1    C1 4702   2.713   0.569   6.751  0.0154 -0.6608  0.3117
   48CHL1   H1A 4703   2.743   0.647   6.679  1.5881 -0.5314  1.0775
   48CHL1   H1B 4704   2.611   0.528   6.734  0.2770 -2.8625  3.1201
   48CHL1    C2 4705   2.725   0.610   6.898 -0.2867 -0.7067 -0.0028
   48CHL1   H2A 4706   2.643   0.684   6.910  0.3585  0.4727 -2.3291
   48CHL1   H2B 4707   2.826   0.655   6.904 -0.1592 -1.1827  2.4333
   48CHL1   C20 4708   2.803   0.254   6.005 -0.5167 -0.1397 -0.0277
   48CHL1   H20 4709   2.914   0.261   6.008 -0.5054 -0.5749  1.2855
   48CHL1   C21 4710   2.756   0.394   5.960 -1.0414 -0.1776 -0.5346
   48CHL1  H21A 4711   2.811   0.467   6.023  1.0777 -0.1981 -2.2581
   48CHL1  H21B 4712   2.782   0.422   5.856 -0.3413  2.9455  0.3623
   48CHL1  H21C 4713   2.647   0.410   5.977 -1.4472 -3.6586  0.9742
   48CHL1   C22 4714   2.742   0.155   5.907 -0.4222 -0.2432 -0.4618
   48CHL1  H22A 4715   2.794   0.059   5.927  0.5375  0.0114 -1.6295
   48CHL1  H22B 4716   2.631   0.159   5.915 -0.5258  2.8654 -1.9832
   48CHL1   C23 4717   2.753   0.197   5.760  0.2957  0.2847  0.8153
   48CHL1  H23A 4718   2.685   0.280   5.732 -0.5754 -0.3092  1.1301
   48CHL1  H23B 4719   2.855   0.230   5.729 -0.4127  0.7445 -1.2274
   48CHL1   C24 4720   2.750   0.063   5.678  0.0648 -0.9169 -0.3224
   48CHL1  H24A 4721   2.826  -0.005   5.723  0.6214 -0.8270 -1.1107
   48CHL1  H24B 4722   2.650   0.018   5.696  0.6274 -2.3555 -0.6055
   48CHL1   C25 4723   2.793   0.084   5.528  0.5137 -0.0630 -0.0911
   48CHL1   H25 4724   2.864   0.169   5.532 -0.6984  1.0244 -0.7912
   48CHL1   C26 4725   2.845  -0.042   5.457 -0.2890 -0.0996  0.5750
   48CHL1  H26A 4726   2.890  -0.017   5.358 -2.7215 -0.2658 -0.6694
   48CHL1  H26B 4727   2.934  -0.082   5.509 -0.7782 -1.5880  0.3106
   48CHL1  H26C 4728   2.769  -0.124   5.456 -0.6376 -0.0895  5.2332
   48CHL1   C27 4729   2.681   0.150   5.436  0.0038  1.1942  0.2795
   48CHL1  H27A 4730   2.623   0.225   5.493 -0.6592  1.5081 -0.7673
   48CHL1  H27B 4731   2.724   0.195   5.344 -0.9629  1.0105 -0.2799
   48CHL1  H27C 4732   2.613   0.074   5.391  0.7558 -0.2205  1.4538
   49CHL1    C3 4733   6.684   4.191   3.196  0.7352 -0.3259 -0.4759
   49CHL1    H3 4734   6.700   4.086   3.232 -1.7498 -0.7099 -0.3287
   49CHL1    O3 4735   6.724   4.200   3.059  0.0396 -0.1501 -0.4064
   49CHL1   H3' 4736   6.714   4.290   3.029 -1.0143  0.3511  1.2922
   49CHL1    C4 4737   6.537   4.232   3.217 -1.0537  0.4122  0.2741
   49CHL1   H4A 4738   6.514   4.337   3.189 -1.0232  0.1023 -0.9815
   49CHL1   H4B 4739   6.477   4.167   3.149 -1.0795  1.9444 -1.2449
   49CHL1    C5 4740   6.503   4.219   3.366 -0.4656 -0.1650 -0.3844
   49CHL1    C6 4741   6.409   4.130   3.404  0.4552 -0.0096  0.9308
   49CHL1    H6 4742   6.349   4.072   3.332 -0.4514  1.2156  0.6594
   49CHL1    C7 4743   6.373   4.113   3.549 -1.0063 -0.1829 -0.0054
   49CHL1   H7A 4744   6.263   4.102   3.548 -0.8998 -1.6424 -2.2331
   49CHL1   H7B 4745   6.429   4.026   3.590  1.0987  0.6913 -0.8505
   49CHL1    C8 4746   6.415   4.229   3.646 -0.2171  0.1073  0.3416
   49CHL1    H8 4747   6.353   4.319   3.625 -0.9395 -0.5396 -0.3601
   49CHL1   C14 4748   6.409   4.195   3.796 -0.1778  0.1437 -0.7633
   49CHL1   H14 4749   6.474   4.108   3.816  2.4034  2.1839  0.1645
   49CHL1   C15 4750   6.270   4.144   3.861 -0.6053 -0.2970 -0.2572
   49CHL1  H15A 4751   6.195   4.222   3.837 -0.9269 -0.1371  1.1949
   49CHL1  H15B 4752   6.229   4.046   3.828  2.1462 -0.9986 -1.9359
   49CHL1   C16 4753   6.301   4.148   4.011  0.7090 -0.3466 -0.1321
   49CHL1  H16A 4754   6.208   4.181   4.062  1.2457  0.9629  0.0394
   49CHL1  H16B 4755   6.310   4.043   4.046 -0.9764 -0.1704  0.9376
   49CHL1   C17 4756   6.430   4.237   4.030 -0.2842  0.1508 -0.3268
   49CHL1   H17 4757   6.508   4.160   4.049  0.2967  1.2505  2.1418
   49CHL1   C13 4758   6.461   4.301   3.896 -0.2317  0.8716  0.0574
   49CHL1   C18 4759   6.369   4.427   3.890  0.4572  0.1119  0.0794
   49CHL1  H18A 4760   6.269   4.393   3.924  1.3440 -1.3963  1.3334
   49CHL1  H18B 4761   6.414   4.502   3.959 -2.1536  1.6139  0.2794
   49CHL1  H18C 4762   6.367   4.453   3.782 -2.7721 -0.4061 -0.0917
   49CHL1   C12 4763   6.607   4.333   3.869 -0.0733  0.2475 -0.9866
   49CHL1  H12A 4764   6.640   4.421   3.930 -0.4232  1.6421 -2.7146
   49CHL1  H12B 4765   6.669   4.246   3.898 -1.3238 -0.0317  1.0507
   49CHL1   C11 4766   6.620   4.370   3.717 -0.0499 -0.6629 -0.0462
   49CHL1  H11A 4767   6.563   4.464   3.703 -0.2628 -0.9753 -1.4322
   49CHL1  H11B 4768   6.727   4.392   3.696 -0.4685  0.0814 -1.4791
   49CHL1    C9 4769   6.570   4.265   3.616  0.5170  0.0863 -0.1950
   49CHL1    H9 4770   6.625   4.170   3.633 -1.6401 -1.1744  0.1950
   49CHL1   C10 4771   6.586   4.305   3.468  0.1519 -0.2260  0.2964
   49CHL1   C19 4772   6.545   4.458   3.444  0.0589 -0.6182  0.3491
   49CHL1  H19A 4773   6.574   4.492   3.342  1.8362 -1.7054  0.4407
   49CHL1  H19B 4774   6.439   4.479   3.469  0.1339 -0.9932  0.9999
   49CHL1  H19C 4775   6.610   4.517   3.512 -1.6422  2.1033 -0.2610
   49CHL1    C1 4776   6.738   4.283   3.430 -0.2589 -0.0923 -0.7428
   49CHL1   H1A 4777   6.793   4.360   3.489 -0.8603 -0.2886  0.0944
   49CHL1   H1B 4778   6.780   4.185   3.461  0.2816  0.7853  1.5282
   49CHL1    C2 4779   6.771   4.286   3.275  0.4244  0.0264  0.2510
   49CHL1   H2A 4780   6.878   4.265   3.253  0.4817  1.9642 -1.6378
   49CHL1   H2B 4781   6.736   4.387   3.245  1.4014  0.0032 -1.0356
   49CHL1   C20 4782   6.427   4.326   4.156 -0.2935  0.5794 -1.5492
   49CHL1   H20 4783   6.352   4.407   4.144 -1.5777 -0.0680  1.3069
   49CHL1   C21 4784   6.568   4.381   4.182  0.6764 -0.2670  0.5025
   49CHL1  H21A 4785   6.594   4.477   4.130  0.1045 -0.1757  0.3782
   49CHL1  H21B 4786   6.641   4.307   4.144 -0.1391 -1.2153  0.7525
   49CHL1  H21C 4787   6.589   4.402   4.289  2.2770 -0.5550  0.2785
   49CHL1   C22 4788   6.367   4.254   4.287 -0.8051  0.2959 -0.8438
   49CHL1  H22A 4789   6.365   4.321   4.375  1.6024 -1.0918  0.3554
   49CHL1  H22B 4790   6.265   4.215   4.269 -0.9398 -0.9920  2.2268
   49CHL1   C23 4791   6.454   4.136   4.342 -0.1412 -0.4416  0.4276
   49CHL1  H23A 4792   6.473   4.059   4.264 -1.1750 -1.6709  1.3437
   49CHL1  H23B 4793   6.556   4.178   4.359 -0.4621  1.5945 -2.1075
   49CHL1   C24 4794   6.391   4.086   4.472 -0.6448  0.2375  0.1006
   49CHL1  H24A 4795   6.371   4.173   4.539 -2.2493  1.1074 -1.4159
   49CHL1  H24B 4796   6.292   4.044   4.443 -1.3164  1.0807  1.1083
   49CHL1   C25 4797   6.477   3.986   4.556  0.2616  0.4276 -0.1197
   49CHL1   H25 4798   6.573   4.031   4.590  0.3922  1.8539 -2.2060
   49CHL1   C26 4799   6.400   3.927   4.675 -0.0268  0.4817  0.5090
   49CHL1  H26A 4800   6.378   4.010   4.745 -0.9383  1.2301 -0.6233
   49CHL1  H26B 4801   6.301   3.891   4.639 -0.5905  2.1833  0.3048
   49CHL1  H26C 4802   6.460   3.841   4.714 -1.0954 -1.3023 -1.5331
   49CHL1   C27 4803   6.518   3.872   4.461  0.2826 -0.4131 -0.5154
   49CHL1  H27A 4804   6.607   3.893   4.398 -1.5456 -0.4353 -3.2540
   49CHL1  H27B 4805   6.552   3.781   4.515  0.5754 -1.6122 -2.6228
   49CHL1  H27C 4806   6.439   3.839   4.390 -1.2627  0.8366  0.5485
   50CHL1    C3 4807   0.511   1.564   3.580 -0.4629  0.0769 -0.1431
   50CHL1    H3 4808   0.514   1.459   3.618  1.0739  0.3998  0.7063
   50CHL1    O3 4809   0.576   1.557   3.457  0.2879  0.2241 -0.0841
   50CHL1   H3' 4810   0.514   1.582   3.389 -0.9330  2.7187  1.7839
   50CHL1    C4 4811   0.385   1.635   3.540  0.3493 -0.1803 -0.2050
   50CHL1   H4A 4812   0.410   1.741   3.517 -0.6836  0.4053  1.2438
   50CHL1   H4B 4813   0.336   1.596   3.448  0.5411 -2.3702  0.5485
   50CHL1    C5 4814   0.292   1.638   3.659  0.2367  0.1408  0.2483
   50CHL1    C6 4815   0.168   1.589   3.659 -1.0029 -0.6457 -0.2173
   50CHL1    H6 4816   0.129   1.537   3.570 -2.6020 -0.4221  0.3325
   50CHL1    C7 4817   0.077   1.598   3.770 -0.4649  0.0431 -0.0693
   50CHL1   H7A 4818  -0.030   1.620   3.749 -1.0961  0.0162  2.6893
   50CHL1   H7B 4819   0.070   1.493   3.808  2.0792 -0.6769 -1.3947
   50CHL1    C8 4820   0.117   1.689   3.889  0.2252 -0.2675  0.2560
   50CHL1    H8 4821   0.108   1.798   3.868 -0.7027 -0.0990  1.4112
   50CHL1   C14 4822   0.025   1.667   4.017 -0.0862  0.1482 -0.2097
   50CHL1   H14 4823   0.045   1.559   4.029 -1.0745 -0.0591 -0.3852
   50CHL1   C15 4824  -0.125   1.668   4.006  0.0723 -0.6700  0.9084
   50CHL1  H15A 4825  -0.149   1.758   3.945  1.4613 -0.1649  1.0589
   50CHL1  H15B 4826  -0.167   1.578   3.956 -0.2435  0.0468 -0.1649
   50CHL1   C16 4827  -0.164   1.677   4.155 -0.3148 -0.2795  0.5231
   50CHL1  H16A 4828  -0.238   1.759   4.165 -1.0304 -0.8980  0.3987
   50CHL1  H16B 4829  -0.204   1.578   4.186 -0.8808 -0.3534 -0.3760
   50CHL1   C17 4830  -0.031   1.705   4.237  0.2565 -1.0452  0.7855
   50CHL1   H17 4831   0.018   1.612   4.273  0.9501 -0.7933  0.5005
   50CHL1   C13 4832   0.072   1.754   4.135  0.4213  0.1877 -1.0087
   50CHL1   C18 4833   0.034   1.897   4.099 -0.1162  0.6900  0.8480
   50CHL1  H18A 4834  -0.061   1.924   4.048  0.3214  0.7389  0.0412
   50CHL1  H18B 4835   0.034   1.966   4.186  1.0434  0.6493  0.8923
   50CHL1  H18C 4836   0.104   1.950   4.030  1.0056 -0.3637  1.1514
   50CHL1   C12 4837   0.225   1.744   4.159 -0.1334 -0.2514 -0.2206
   50CHL1  H12A 4838   0.262   1.817   4.233  1.1874 -0.3870 -0.7268
   50CHL1  H12B 4839   0.251   1.637   4.176 -0.1625 -0.4526 -1.3503
   50CHL1   C11 4840   0.307   1.778   4.029 -0.0310 -0.2663 -1.0936
   50CHL1  H11A 4841   0.311   1.887   4.013  0.7762  0.1992  1.6833
   50CHL1  H11B 4842   0.410   1.749   4.062  0.4313  1.9995 -0.3762
   50CHL1    C9 4843   0.273   1.686   3.911  0.3230 -0.0883  0.4277
   50CHL1    H9 4844   0.297   1.587   3.954 -0.9765  0.3165  2.2112
   50CHL1   C10 4845   0.360   1.697   3.781  0.7670  0.3043 -0.1169
   50CHL1   C19 4846   0.368   1.844   3.762  0.3452 -0.8673  0.1793
   50CHL1  H19A 4847   0.277   1.905   3.744  2.0511  1.7689 -0.0183
   50CHL1  H19B 4848   0.430   1.891   3.842  0.0785  0.7175 -0.5250
   50CHL1  H19C 4849   0.420   1.858   3.665  0.6466 -3.2290 -0.0574
   50CHL1    C1 4850   0.506   1.662   3.812 -0.1113  0.5622 -0.0562
   50CHL1   H1A 4851   0.561   1.731   3.880 -0.1805 -0.8538  1.5092
   50CHL1   H1B 4852   0.507   1.566   3.868 -3.8448  0.6094  0.3405
   50CHL1    C2 4853   0.592   1.646   3.687 -0.0523  0.5129 -0.6112
   50CHL1   H2A 4854   0.678   1.585   3.721 -0.6390  0.3838  0.6820
   50CHL1   H2B 4855   0.619   1.744   3.643  0.2892  0.9585  0.5690
   50CHL1   C20 4856  -0.057   1.797   4.366 -0.0010  0.5479  0.3401
   50CHL1   H20 4857  -0.112   1.889   4.337  1.2353  1.3060  0.2976
   50CHL1   C21 4858   0.078   1.829   4.444 -0.8553  0.0019 -0.6430
   50CHL1  H21A 4859   0.139   1.742   4.474  1.3701  2.6874  3.6690
   50CHL1  H21B 4860   0.054   1.874   4.543  0.3561 -1.1419  0.2014
   50CHL1  H21C 4861   0.144   1.899   4.387 -2.4005  2.3042  0.2337
   50CHL1   C22 4862  -0.150   1.719   4.462  0.1802  0.8694 -0.2662
   50CHL1  H22A 4863  -0.230   1.671   4.402  0.0343 -1.2337  1.4893
   50CHL1  H22B 4864  -0.100   1.629   4.505  0.0038  1.2741  0.8299
   50CHL1   C23 4865  -0.233   1.803   4.566 -0.5837  0.2725  0.0769
   50CHL1  H23A 4866  -0.159   1.865   4.620  0.0824 -0.7056  0.3227
   50CHL1  H23B 4867  -0.307   1.870   4.518  0.8667  0.6225 -1.8225
   50CHL1   C24 4868  -0.311   1.717   4.670 -0.3822 -0.0982 -0.1176
   50CHL1  H24A 4869  -0.338   1.618   4.627  1.6022 -1.0500  0.7124
   50CHL1  H24B 4870  -0.244   1.707   4.758  2.6173 -3.6965 -2.5344
   50CHL1   C25 4871  -0.449   1.768   4.718  0.1484 -0.1242  0.0871
   50CHL1   H25 4872  -0.453   1.873   4.752 -2.0706  0.3431 -1.3649
   50CHL1   C26 4873  -0.548   1.757   4.603 -0.0760  0.4874  0.1541
   50CHL1  H26A 4874  -0.631   1.832   4.605  1.5096  2.3305 -0.3459
   50CHL1  H26B 4875  -0.518   1.759   4.496  1.4214 -1.4899  0.5021
   50CHL1  H26C 4876  -0.608   1.664   4.604  1.2586 -0.3984  1.1585
   50CHL1   C27 4877  -0.506   1.696   4.839  0.0920 -0.8796 -0.2397
   50CHL1  H27A 4878  -0.583   1.753   4.895  0.8626 -0.7009  0.6610
   50CHL1  H27B 4879  -0.548   1.599   4.804 -0.7948 -1.0141  1.1222
   50CHL1  H27C 4880  -0.429   1.674   4.916 -0.8509 -2.5938  0.2837
   51CHL1    C3 4881   4.113   3.604   3.105 -0.4179  0.9661  0.1740
   51CHL1    H3 4882   4.037   3.681   3.129 -0.2637  1.5228 -1.0741
   51CHL1    O3 4883   4.160   3.631   2.976 -1.2226 -0.4362  0.1209
   51CHL1   H3' 4884   4.231   3.569   2.961 -0.9158  0.4480 -2.5830
   51CHL1    C4 4885   4.230   3.623   3.201  0.2451 -0.2796 -0.2650
   51CHL1   H4A 4886   4.295   3.537   3.171 -0.4701 -1.5009  1.5455
   51CHL1   H4B 4887   4.282   3.720   3.185 -2.3339  1.7123  2.4073
   51CHL1    C5 4888   4.184   3.612   3.345  0.3304 -0.1162  0.9030
   51CHL1    C6 4889   4.198   3.710   3.432 -0.2507  0.0738  0.1197
   51CHL1    H6 4890   4.253   3.799   3.399 -0.2888 -0.8500 -2.6359
   51CHL1    C7 4891   4.157   3.704   3.576  0.1498 -0.1341  0.5011
   51CHL1   H7A 4892   4.232   3.749   3.644 -0.3807  1.8838 -0.1916
   51CHL1   H7B 4893   4.068   3.768   3.591  0.4534  0.3295  0.3631
   51CHL1    C8 4894   4.115   3.560   3.622 -0.4190 -0.1194  0.1218
   51CHL1    H8 4895   4.208   3.501   3.636  1.5370  2.9641  1.3048
   51CHL1   C14 4896   4.029   3.571   3.747  0.3195 -0.3254  0.4776
   51CHL1   H14 4897   3.933   3.609   3.706  0.7561 -1.7942 -2.0904
   51CHL1   C15 4898   4.071   3.661   3.862  0.5438 -0.2236 -0.0771
   51CHL1  H15A 4899   4.181   3.650   3.873  0.4294 -0.3214  0.9930
   51CHL1  H15B 4900   4.057   3.769   3.837  2.2261 -0.5812 -3.0976
   51CHL1   C16 4901   3.995   3.605   3.984 -0.6084  0.1222  0.7585
   51CHL1  H16A 4902   4.072   3.586   4.063  0.4402 -1.1332 -0.5221
   51CHL1  H16B 4903   3.915   3.673   4.021 -0.5662  0.1178  0.8583
   51CHL1   C17 4904   3.930   3.472   3.945  0.1020 -0.3316  0.6592
   51CHL1   H17 4905   3.827   3.501   3.918  0.0644 -0.6883  0.4211
   51CHL1   C13 4906   3.997   3.435   3.806  0.0241  0.5682 -0.3082
   51CHL1   C18 4907   4.124   3.353   3.838  0.4547 -0.2352  0.4913
   51CHL1  H18A 4908   4.181   3.398   3.922 -0.8278 -0.3577  1.4551
   51CHL1  H18B 4909   4.093   3.248   3.857 -2.1992  0.4397  0.2558
   51CHL1  H18C 4910   4.194   3.341   3.751  2.3539 -0.2842  1.9510
   51CHL1   C12 4911   3.905   3.360   3.702  0.2442  0.0604  0.2600
   51CHL1  H12A 4912   3.885   3.254   3.730  0.2758 -0.5796 -1.9594
   51CHL1  H12B 4913   3.806   3.408   3.691  0.6392  0.6019 -1.0438
   51CHL1   C11 4914   3.965   3.357   3.558 -0.3951 -0.2759  0.0730
   51CHL1  H11A 4915   4.034   3.270   3.565 -2.1853 -1.7365  0.2866
   51CHL1  H11B 4916   3.882   3.328   3.491 -1.6620  1.2909  0.9087
   51CHL1    C9 4917   4.026   3.489   3.513  0.4703 -0.5654  0.4767
   51CHL1    H9 4918   3.940   3.558   3.497  0.9255 -0.3684 -1.3531
   51CHL1   C10 4919   4.102   3.482   3.378 -0.6934  0.2554 -0.6654
   51CHL1   C19 4920   4.205   3.370   3.393 -0.1746  0.2791  0.6791
   51CHL1  H19A 4921   4.259   3.353   3.297 -1.4378 -1.4563  0.2362
   51CHL1  H19B 4922   4.280   3.384   3.474 -0.1070  1.2894  0.4583
   51CHL1  H19C 4923   4.164   3.271   3.420  1.6131 -0.6171  0.3098
   51CHL1    C1 4924   4.007   3.443   3.263 -0.1295 -0.5575 -0.1079
   51CHL1   H1A 4925   3.970   3.338   3.273 -1.6634 -0.0935 -0.6636
   51CHL1   H1B 4926   3.916   3.506   3.266  0.7603  0.7875 -0.7945
   51CHL1    C2 4927   4.054   3.464   3.114  0.1453  0.3511 -0.6057
   51CHL1   H2A 4928   3.961   3.457   3.053  0.4473  0.7129 -1.1176
   51CHL1   H2B 4929   4.135   3.396   3.083  2.2410  2.3064  0.2909
   51CHL1   C20 4930   3.922   3.370   4.060 -0.1918  0.1636 -0.3959
   51CHL1   H20 4931   4.029   3.343   4.079 -0.3591  0.0612  0.4216
   51CHL1   C21 4932   3.855   3.239   4.020  0.4970 -0.5005 -0.7198
   51CHL1  H21A 4933   3.851   3.172   4.109  0.1743  0.7314  0.2232
   51CHL1  H21B 4934   3.903   3.186   3.935  1.6177 -0.7964  0.0753
   51CHL1  H21C 4935   3.746   3.257   4.006  0.2589 -0.1496  1.3110
   51CHL1   C22 4936   3.874   3.420   4.198  0.1878 -0.1662 -0.1020
   51CHL1  H22A 4937   3.923   3.515   4.227  0.7961 -0.2145 -0.9592
   51CHL1  H22B 4938   3.764   3.438   4.206  0.1582  0.1262 -1.0788
   51CHL1   C23 4939   3.891   3.311   4.312 -0.0277  0.0832  0.2211
   51CHL1  H23A 4940   3.833   3.218   4.290 -0.6268  0.8041 -1.3335
   51CHL1  H23B 4941   3.999   3.287   4.323  0.0861  0.5711  0.1755
   51CHL1   C24 4942   3.846   3.367   4.452 -0.5845  0.0261 -0.3427
   51CHL1  H24A 4943   3.885   3.470   4.467 -2.9551  0.8385  0.8479
   51CHL1  H24B 4944   3.739   3.395   4.436 -0.3957  0.4556 -0.8961
   51CHL1   C25 4945   3.867   3.270   4.572 -0.0169  0.3268  1.0813
   51CHL1   H25 4946   3.828   3.175   4.528  0.7123  0.8082 -0.6974
   51CHL1   C26 4947   4.016   3.252   4.607 -0.1202  0.0074 -0.3934
   51CHL1  H26A 4948   4.023   3.194   4.702 -1.3702 -0.2784 -0.4577
   51CHL1  H26B 4949   4.070   3.192   4.530 -0.3679 -1.0507  0.2251
   51CHL1  H26C 4950   4.057   3.351   4.634  1.0906 -1.0173  1.8725
   51CHL1   C27 4951   3.779   3.309   4.695 -0.0123  0.7017  0.0307
   51CHL1  H27A 4952   3.774   3.220   4.762 -2.0812  0.4037 -0.4475
   51CHL1  H27B 4953   3.834   3.388   4.750  2.0745 -2.1266  2.3683
   51CHL1  H27C 4954   3.677   3.348   4.675  1.1989  3.7942 -0.7423
   52CHL1    C3 4955   5.616   4.210   3.279  0.3419 -0.2587  0.2516
   52CHL1    H3 4956   5.681   4.141   3.337 -0.6162 -0.4864  1.0754
   52CHL1    O3 4957   5.625   4.171   3.139 -0.0282 -0.1664 -0.4515
   52CHL1   H3' 4958   5.718   4.188   3.122  0.7388 -1.0266  2.3227
   52CHL1    C4 4959   5.474   4.194   3.323  0.2212 -0.2645  0.2409
   52CHL1   H4A 4960   5.408   4.248   3.252 -0.7932  2.5908  3.1215
   52CHL1   H4B 4961   5.457   4.084   3.322 -0.6931 -0.1320 -0.8937
   52CHL1    C5 4962   5.428   4.255   3.456 -0.1630  0.4798  0.5472
   52CHL1    C6 4963   5.357   4.188   3.546 -0.7544 -0.3469  0.3944
   52CHL1    H6 4964   5.335   4.081   3.528  1.5954 -1.2185  2.2124
   52CHL1    C7 4965   5.310   4.241   3.671 -0.4406  0.1975  0.3395
   52CHL1   H7A 4966   5.201   4.226   3.683 -0.6152 -0.5888 -1.8133
   52CHL1   H7B 4967   5.366   4.178   3.743  0.2874 -0.2659 -0.6202
   52CHL1    C8 4968   5.326   4.392   3.687 -0.0784  1.4291  0.2186
   52CHL1    H8 4969   5.234   4.424   3.633 -0.2008  2.9470  1.2640
   52CHL1   C14 4970   5.312   4.429   3.838  0.3997  0.6436 -0.4629
   52CHL1   H14 4971   5.402   4.392   3.891  0.1430 -1.0067 -1.1398
   52CHL1   C15 4972   5.186   4.375   3.909  0.0925 -0.0555 -0.4868
   52CHL1  H15A 4973   5.096   4.393   3.846  0.3631 -1.1606 -1.2125
   52CHL1  H15B 4974   5.187   4.267   3.931 -2.4734 -1.1226 -4.4953
   52CHL1   C16 4975   5.193   4.466   4.036  0.3449 -0.2051 -0.0093
   52CHL1  H16A 4976   5.092   4.512   4.033  0.9593  1.3139  0.9805
   52CHL1  H16B 4977   5.214   4.409   4.129 -2.5769 -0.9181  0.3028
   52CHL1   C17 4978   5.288   4.591   4.010  0.5812  0.4584 -0.1890
   52CHL1   H17 4979   5.371   4.557   4.075  1.6620  0.0163 -1.7499
   52CHL1   C13 4980   5.311   4.580   3.858 -0.5679  0.1265  0.6174
   52CHL1   C18 4981   5.193   4.648   3.782  0.4452 -0.1795  0.3983
   52CHL1  H18A 4982   5.194   4.759   3.780 -3.2331 -0.0134 -0.7891
   52CHL1  H18B 4983   5.187   4.612   3.677  1.5891  1.5250 -0.3081
   52CHL1  H18C 4984   5.088   4.634   3.814  0.1052 -0.8677 -0.9195
   52CHL1   C12 4985   5.454   4.632   3.805  0.8583 -0.0908 -0.7673
   52CHL1  H12A 4986   5.458   4.743   3.807  2.8560 -0.1382  0.9619
   52CHL1  H12B 4987   5.537   4.597   3.869 -0.6204  2.0529  2.5990
   52CHL1   C11 4988   5.479   4.596   3.655  0.1455 -0.6254 -0.3841
   52CHL1  H11A 4989   5.397   4.650   3.602  0.9434 -0.6426 -1.6816
   52CHL1  H11B 4990   5.574   4.639   3.616 -0.1544  0.5823  0.1791
   52CHL1    C9 4991   5.459   4.444   3.629  0.5605 -0.2192  0.4428
   52CHL1    H9 4992   5.548   4.392   3.671  1.7033  1.0763 -0.3126
   52CHL1   C10 4993   5.477   4.401   3.479  0.6133 -0.0657 -0.1303
   52CHL1   C19 4994   5.398   4.497   3.385  0.4610  0.2837 -0.3661
   52CHL1  H19A 4995   5.383   4.453   3.284 -0.7752 -0.6279  0.1866
   52CHL1  H19B 4996   5.297   4.527   3.418  0.3946  1.5536 -1.6147
   52CHL1  H19C 4997   5.443   4.598   3.371  1.4719 -0.4353 -2.7415
   52CHL1    C1 4998   5.630   4.411   3.445  0.2808 -0.1378  0.8951
   52CHL1   H1A 4999   5.659   4.518   3.447  1.0494 -0.3188  0.1937
   52CHL1   H1B 5000   5.696   4.355   3.515 -0.0854 -0.9758  0.5876
   52CHL1    C2 5001   5.661   4.358   3.301 -0.0403  0.7126 -0.1220
   52CHL1   H2A 5002   5.769   4.373   3.281  0.7752  0.3781  3.2809
   52CHL1   H2B 5003   5.599   4.404   3.222  1.0048  2.3442 -0.0297
   52CHL1   C20 5004   5.233   4.722   4.070 -0.3544  0.2385  0.0191
   52CHL1   H20 5005   5.148   4.760   4.008 -1.9907 -2.0264  0.7205
   52CHL1   C21 5006   5.350   4.826   4.070 -0.1474  0.0973  0.2965
   52CHL1  H21A 5007   5.439   4.794   4.128  0.8405  2.8003  0.3985
   52CHL1  H21B 5008   5.310   4.918   4.118 -0.4133  0.0378  0.1939
   52CHL1  H21C 5009   5.383   4.850   3.967 -1.2435  0.9765  0.1232
   52CHL1   C22 5010   5.164   4.714   4.205  0.0573  0.0266  0.5862
   52CHL1  H22A 5011   5.129   4.817   4.229 -0.7556  0.1790 -1.0800
   52CHL1  H22B 5012   5.079   4.643   4.199 -1.6015  1.7278  2.4685
   52CHL1   C23 5013   5.258   4.676   4.324  0.1384 -0.6812  0.0990
   52CHL1  H23A 5014   5.259   4.564   4.328 -0.1299 -0.7307 -1.0535
   52CHL1  H23B 5015   5.362   4.713   4.317  0.3565 -1.5643 -4.2631
   52CHL1   C24 5016   5.196   4.731   4.458 -0.5052  0.5309  0.2546
   52CHL1  H24A 5017   5.207   4.842   4.452 -3.0008  0.9114  1.3774
   52CHL1  H24B 5018   5.089   4.701   4.461 -0.4686  0.3731  0.0230
   52CHL1   C25 5019   5.257   4.664   4.582 -0.5075 -0.4769 -0.1491
   52CHL1   H25 5020   5.224   4.559   4.597  0.1810 -0.4176  2.1104
   52CHL1   C26 5021   5.410   4.674   4.589  0.6025  0.1038  0.8676
   52CHL1  H26A 5022   5.461   4.605   4.518 -0.3936  1.3296 -1.1277
   52CHL1  H26B 5023   5.462   4.771   4.573 -2.0025  1.5715  0.8780
   52CHL1  H26C 5024   5.448   4.637   4.686 -1.2685 -0.0184  1.5918
   52CHL1   C27 5025   5.192   4.736   4.699  0.4024 -0.2225  0.2687
   52CHL1  H27A 5026   5.210   4.845   4.692  1.1454 -0.2644  1.2517
   52CHL1  H27B 5027   5.083   4.731   4.680  0.3461 -0.6654  0.6914
   52CHL1  H27C 5028   5.216   4.693   4.799  2.6240  2.5888  1.0791
   53CHL1    C3 5029   4.087   4.184   2.979  0.3119 -0.2023 -0.8766
   53CHL1    H3 5030   4.050   4.286   2.953  0.7013 -0.2126 -1.5153
   53CHL1    O3 5031   4.098   4.119   2.857  0.8673  0.7300  0.1969
   53CHL1   H3' 5032   4.135   4.033   2.876 -1.9728 -1.5875 -3.3492
   53CHL1    C4 5033   4.224   4.180   3.048  0.1855 -0.2854  0.1707
   53CHL1   H4A 5034   4.266   4.078   3.045  0.3690 -0.3108  2.0316
   53CHL1   H4B 5035   4.291   4.243   2.985 -0.8226 -0.7379 -1.3937
   53CHL1    C5 5036   4.217   4.227   3.196 -0.0109 -0.3354 -0.3922
   53CHL1    C6 5037   4.296   4.335   3.227 -0.4351 -0.6542  0.1146
   53CHL1    H6 5038   4.342   4.388   3.143 -1.4701 -2.8551 -1.9623
   53CHL1    C7 5039   4.297   4.407   3.364  0.5481  0.2487  0.0478
   53CHL1   H7A 5040   4.399   4.435   3.398 -0.2836  3.0268  0.5685
   53CHL1   H7B 5041   4.235   4.500   3.357  0.3680  0.0182 -2.3206
   53CHL1    C8 5042   4.226   4.320   3.474 -0.1585  0.2326 -0.2961
   53CHL1    H8 5043   4.290   4.234   3.503 -1.9670 -1.4353 -0.9799
   53CHL1   C14 5044   4.192   4.411   3.594 -0.4372 -0.2081  0.2373
   53CHL1   H14 5045   4.122   4.486   3.552  1.5944  0.9324 -1.2872
   53CHL1   C15 5046   4.312   4.495   3.652 -0.8139 -0.2750  0.2252
   53CHL1  H15A 5047   4.395   4.422   3.661 -1.9381 -1.3407  2.9587
   53CHL1  H15B 5048   4.327   4.584   3.587  0.9042  0.6504  1.7986
   53CHL1   C16 5049   4.261   4.535   3.798  0.0933  0.0338 -0.5092
   53CHL1  H16A 5050   4.340   4.509   3.871 -0.2031 -0.4293 -0.3546
   53CHL1  H16B 5051   4.258   4.646   3.810  3.0861  0.5157 -2.8141
   53CHL1   C17 5052   4.125   4.464   3.823 -0.2742 -0.1608  0.5856
   53CHL1   H17 5053   4.047   4.532   3.784  0.8705  1.0545  0.3348
   53CHL1   C13 5054   4.125   4.347   3.711 -0.2460 -0.1431 -0.3739
   53CHL1   C18 5055   4.211   4.230   3.767 -0.3250 -0.4886  0.4236
   53CHL1  H18A 5056   4.309   4.272   3.801  0.7957 -3.4723  1.1682
   53CHL1  H18B 5057   4.156   4.185   3.852 -2.1393  1.6848  0.4891
   53CHL1  H18C 5058   4.234   4.147   3.697  0.6024 -0.1937  0.3587
   53CHL1   C12 5059   3.988   4.292   3.660  0.6074 -0.0357 -0.3832
   53CHL1  H12A 5060   3.937   4.230   3.737  3.2305 -3.3991 -1.1321
   53CHL1  H12B 5061   3.923   4.381   3.645 -0.3925 -0.6066  0.4382
   53CHL1   C11 5062   4.003   4.205   3.540  0.0265 -0.1004 -0.3031
   53CHL1  H11A 5063   4.046   4.108   3.570 -1.6447 -1.1366 -1.0695
   53CHL1  H11B 5064   3.902   4.173   3.505 -0.6791 -0.9224  2.2428
   53CHL1    C9 5065   4.096   4.263   3.425  0.4510  0.2382  0.0738
   53CHL1    H9 5066   4.037   4.351   3.391 -0.5847 -0.2777  0.5069
   53CHL1   C10 5067   4.103   4.176   3.289 -0.0490  0.5086  0.4185
   53CHL1   C19 5068   4.144   4.033   3.320 -0.1670 -0.2680 -0.0415
   53CHL1  H19A 5069   4.188   3.980   3.233 -1.2830  1.8007 -1.9832
   53CHL1  H19B 5070   4.220   4.034   3.402  0.7598  1.1123 -0.8634
   53CHL1  H19C 5071   4.059   3.965   3.339  1.2041 -2.4047 -1.2128
   53CHL1    C1 5072   3.973   4.192   3.210  0.0302  0.3063  0.2334
   53CHL1   H1A 5073   3.889   4.141   3.261 -0.0457  0.7228  0.5358
   53CHL1   H1B 5074   3.953   4.300   3.192  4.0821  1.4892  1.5277
   53CHL1    C2 5075   3.982   4.127   3.067  0.1197 -0.2862 -0.1160
   53CHL1   H2A 5076   3.887   4.141   3.012  0.3897  0.4611 -0.4009
   53CHL1   H2B 5077   4.003   4.018   3.079  2.2095  0.2567  2.0538
   53CHL1   C20 5078   4.090   4.442   3.969  0.1062  0.3051 -0.5962
   53CHL1   H20 5079   4.170   4.378   4.013 -0.6754  0.8302  1.7089
   53CHL1   C21 5080   3.972   4.350   3.993 -0.3788 -0.3274  0.1558
   53CHL1  H21A 5081   3.892   4.411   3.946 -0.0233  0.4069  0.4891
   53CHL1  H21B 5082   3.933   4.331   4.095  3.7380 -2.5257  1.5499
   53CHL1  H21C 5083   3.969   4.253   3.938 -0.5673 -0.3890  0.2724
   53CHL1   C22 5084   4.093   4.577   4.053  0.3070 -0.1265 -0.0925
   53CHL1  H22A 5085   4.170   4.648   4.018  0.0831  0.7124  1.0743
   53CHL1  H22B 5086   3.995   4.629   4.055 -0.1426 -0.8781 -1.2502
   53CHL1   C23 5087   4.127   4.553   4.201 -0.3895 -0.2825  0.3661
   53CHL1  H23A 5088   4.125   4.653   4.249 -2.4934  0.4025 -0.9801
   53CHL1  H23B 5089   4.049   4.488   4.245 -0.2469 -0.3925  0.4577
   53CHL1   C24 5090   4.270   4.506   4.233  0.2904  0.0043 -0.0620
   53CHL1  H24A 5091   4.275   4.404   4.189  0.0013 -0.1640  0.2916
   53CHL1  H24B 5092   4.333   4.574   4.173 -1.4686  0.4469 -1.5087
   53CHL1   C25 5093   4.309   4.504   4.383 -0.3368  0.2002 -0.2638
   53CHL1   H25 5094   4.218   4.493   4.446 -1.4371  0.2073 -1.7985
   53CHL1   C26 5095   4.409   4.395   4.417 -0.3828  0.1707  0.5391
   53CHL1  H26A 5096   4.505   4.414   4.365  0.0974  1.3522  1.7909
   53CHL1  H26B 5097   4.427   4.390   4.526  0.8334 -3.1874  0.2820
   53CHL1  H26C 5098   4.370   4.295   4.388 -0.5619 -0.4066  2.5846
   53CHL1   C27 5099   4.370   4.635   4.434  0.4572 -0.5314  0.0584
   53CHL1  H27A 5100   4.293   4.715   4.439  0.7915 -0.2433  0.8470
   53CHL1  H27B 5101   4.423   4.607   4.527  0.7643  0.5446  0.2295
   53CHL1  H27C 5102   4.451   4.675   4.369 -0.6508 -0.5673 -1.4017
   54CHL1    C3 5103   3.044   4.997   3.199  0.6104 -0.4723  0.1455
   54CHL1    H3 5104   2.956   4.936   3.168 -0.0886  1.1920 -1.3357
   54CHL1    O3 5105   3.130   5.003   3.092 -0.3515 -0.0098  0.1176
   54CHL1   H3' 5106   3.154   5.095   3.077  0.0589 -0.0472  0.5254
   54CHL1    C4 5107   2.993   5.135   3.235  0.2621  0.5309  0.0810
   54CHL1   H4A 5108   3.081   5.202   3.247  0.1450  0.8941 -1.0171
   54CHL1   H4B 5109   2.928   5.170   3.152  2.2737  1.1673 -1.3021
   54CHL1    C5 5110   2.912   5.113   3.367 -0.4194 -0.2820  0.1047
   54CHL1    C6 5111   2.788   5.151   3.369 -0.7683 -0.2269 -0.4468
   54CHL1    H6 5112   2.736   5.194   3.283 -1.1749 -1.4565 -0.8352
   54CHL1    C7 5113   2.700   5.146   3.495  0.1086  0.6718  0.4925
   54CHL1   H7A 5114   2.637   5.236   3.511  1.2559  1.2605  1.9657
   54CHL1   H7B 5115   2.636   5.059   3.467  1.6567 -0.4102  0.1355
   54CHL1    C8 5116   2.768   5.111   3.634 -0.0680  0.1159 -1.2649
   54CHL1    H8 5117   2.815   5.202   3.676 -0.7684 -0.1161  0.0851
   54CHL1   C14 5118   2.672   5.062   3.742 -0.3961  0.3890  0.4948
   54CHL1   H14 5119   2.632   4.970   3.695  0.2486  1.6278 -2.7289
   54CHL1   C15 5120   2.553   5.153   3.780  0.2833 -0.1847 -0.4557
   54CHL1  H15A 5121   2.584   5.258   3.795 -1.7399  0.1730  1.9090
   54CHL1  H15B 5122   2.466   5.154   3.710  1.0990  1.9733 -1.5161
   54CHL1   C16 5123   2.518   5.100   3.925  1.0366  0.6551  1.4789
   54CHL1  H16A 5124   2.531   5.184   3.996 -0.4571  2.3841 -0.2015
   54CHL1  H16B 5125   2.416   5.059   3.940  1.3808 -1.1917 -0.6145
   54CHL1   C17 5126   2.612   4.988   3.961 -0.4758 -0.5195  0.2648
   54CHL1   H17 5127   2.573   4.892   3.920 -0.6425 -0.0247 -0.7543
   54CHL1   C13 5128   2.738   5.021   3.878  0.5810  0.9484 -0.0811
   54CHL1   C18 5129   2.822   5.139   3.937  0.4678 -0.8006  0.5773
   54CHL1  H18A 5130   2.873   5.114   4.033 -0.5552  0.1780  1.4133
   54CHL1  H18B 5131   2.900   5.173   3.866 -1.2507 -1.2413 -1.6354
   54CHL1  H18C 5132   2.753   5.217   3.975  0.1927 -0.4802 -0.5445
   54CHL1   C12 5133   2.839   4.898   3.849  0.2847  0.1504 -0.0981
   54CHL1  H12A 5134   2.903   4.868   3.935  0.3289 -1.7918 -0.7491
   54CHL1  H12B 5135   2.779   4.809   3.821  2.1120 -0.9741 -0.6119
   54CHL1   C11 5136   2.933   4.943   3.731 -0.4772  0.8253 -0.4057
   54CHL1  H11A 5137   3.001   5.020   3.775  0.0482  1.0594 -1.5917
   54CHL1  H11B 5138   2.995   4.857   3.697 -0.8792  0.9171 -1.4127
   54CHL1    C9 5139   2.871   5.002   3.599 -0.1738 -0.5928 -0.4915
   54CHL1    H9 5140   2.822   4.918   3.545  1.3576 -0.5343 -2.0514
   54CHL1   C10 5141   2.979   5.043   3.495 -0.0277 -0.6875 -0.0174
   54CHL1   C19 5142   3.067   5.150   3.563 -1.0393  0.4218  0.1625
   54CHL1  H19A 5143   3.136   5.100   3.634 -0.1278  0.6191 -0.5627
   54CHL1  H19B 5144   3.145   5.195   3.499 -1.3288 -0.5614 -0.9282
   54CHL1  H19C 5145   3.007   5.226   3.616 -0.2596 -0.3409  2.2253
   54CHL1    C1 5146   3.050   4.913   3.446  0.1158  1.0137  0.2716
   54CHL1   H1A 5147   3.118   4.870   3.522  0.4122  0.6661 -0.1827
   54CHL1   H1B 5148   2.971   4.836   3.431  3.2286 -2.3776 -0.3009
   54CHL1    C2 5149   3.126   4.936   3.313 -0.0020  0.2312 -1.2496
   54CHL1   H2A 5150   3.175   4.844   3.276 -1.4761 -1.1607  0.1064
   54CHL1   H2B 5151   3.212   5.005   3.332 -1.1291  0.8530  2.5434
   54CHL1   C20 5152   2.636   4.977   4.115 -0.3034 -0.6002  0.1280
   54CHL1   H20 5153   2.710   5.055   4.142  0.8203 -0.6750 -2.4749
   54CHL1   C21 5154   2.718   4.848   4.163  0.4317 -0.2063 -0.1926
   54CHL1  H21A 5155   2.663   4.757   4.134 -1.8707  1.0506 -0.0234
   54CHL1  H21B 5156   2.728   4.843   4.274 -2.0667  1.9094  0.2265
   54CHL1  H21C 5157   2.819   4.859   4.118  0.0801 -0.3816 -1.0409
   54CHL1   C22 5158   2.520   5.004   4.209  0.2080 -0.4988 -0.1014
   54CHL1  H22A 5159   2.556   4.999   4.314  0.9926  0.2230 -0.3275
   54CHL1  H22B 5160   2.477   5.106   4.198  2.4023  0.4789 -0.1315
   54CHL1   C23 5161   2.399   4.906   4.192 -0.5024 -0.2723  0.0207
   54CHL1  H23A 5162   2.367   4.893   4.087  0.3803 -0.0922 -0.2812
   54CHL1  H23B 5163   2.427   4.803   4.222  0.9106 -0.7034 -2.4971
   54CHL1   C24 5164   2.271   4.949   4.277 -0.6386 -1.1430 -0.7968
   54CHL1  H24A 5165   2.231   5.043   4.233  0.5303 -1.5255 -2.8146
   54CHL1  H24B 5166   2.199   4.865   4.270  0.3289 -1.9915 -0.8096
   54CHL1   C25 5167   2.305   4.981   4.425  0.0812 -0.6038 -0.2389
   54CHL1   H25 5168   2.398   5.041   4.434 -1.4073  1.8405 -0.0285
   54CHL1   C26 5169   2.210   5.072   4.494 -0.2301 -0.9985  0.1899
   54CHL1  H26A 5170   2.109   5.025   4.504 -1.5678  1.5184 -0.7392
   54CHL1  H26B 5171   2.245   5.091   4.598 -0.7772 -0.8518  0.3513
   54CHL1  H26C 5172   2.196   5.163   4.432  2.0609 -1.2779 -0.8475
   54CHL1   C27 5173   2.310   4.858   4.511 -0.1803 -0.2572  0.1760
   54CHL1  H27A 5174   2.329   4.878   4.618 -2.0101  0.0700  0.4692
   54CHL1  H27B 5175   2.214   4.801   4.511 -0.4137  0.0281 -2.2189
   54CHL1  H27C 5176   2.399   4.799   4.482 -0.2415 -0.4017  0.2814
   55CHL1    C3 5177   6.678   0.491   2.928 -0.3304  0.4339  0.0788
   55CHL1    H3 5178   6.599   0.414   2.941  0.6493 -1.1292 -2.5687
   55CHL1    O3 5179   6.703   0.493   2.788 -0.2585 -0.1157 -0.2311
   55CHL1   H3' 5180   6.720   0.402   2.760  0.4829  0.6642 -2.6320
   55CHL1    C4 5181   6.635   0.632   2.971 -0.3919 -0.6563  0.2769
   55CHL1   H4A 5182   6.701   0.708   2.923 -0.6227  0.4763  1.6677
   55CHL1   H4B 5183   6.535   0.656   2.930 -0.6027  0.0608  1.1786
   55CHL1    C5 5184   6.636   0.655   3.116  0.6306  0.2552  0.3250
   55CHL1    C6 5185   6.523   0.701   3.178 -0.4682  0.0037  0.9333
   55CHL1    H6 5186   6.434   0.725   3.117  1.4824  2.2038 -1.2797
   55CHL1    C7 5187   6.521   0.733   3.323 -0.2885 -1.0916  0.2398
   55CHL1   H7A 5188   6.465   0.828   3.338  0.2168 -0.7947  0.2385
   55CHL1   H7B 5189   6.466   0.650   3.373  1.2923 -1.0784  2.1046
   55CHL1    C8 5190   6.663   0.742   3.382 -0.1442 -0.4600 -0.6379
   55CHL1    H8 5191   6.720   0.831   3.346 -0.5415 -0.2170 -0.6625
   55CHL1   C14 5192   6.657   0.737   3.535 -0.2737  0.4816 -0.1811
   55CHL1   H14 5193   6.618   0.639   3.568  0.3036  0.4551  0.4390
   55CHL1   C15 5194   6.569   0.843   3.600  0.5353 -0.5102 -0.3487
   55CHL1  H15A 5195   6.583   0.939   3.545 -1.4699 -0.7173 -1.3139
   55CHL1  H15B 5196   6.463   0.811   3.591  0.3664  0.3493 -1.6689
   55CHL1   C16 5197   6.614   0.859   3.747 -0.1269 -0.6378 -0.1479
   55CHL1  H16A 5198   6.624   0.967   3.773  2.0101 -0.3746 -1.7797
   55CHL1  H16B 5199   6.547   0.803   3.816  0.1673 -2.5470 -1.3324
   55CHL1   C17 5200   6.746   0.776   3.753  0.2777  0.2466 -0.1796
   55CHL1   H17 5201   6.726   0.675   3.794 -1.6415  1.5993  2.6139
   55CHL1   C13 5202   6.796   0.762   3.603  0.3268  0.5997  0.0663
   55CHL1   C18 5203   6.855   0.897   3.558 -0.1460 -0.5022  0.0218
   55CHL1  H18A 5204   6.961   0.913   3.586 -0.9421  1.1231  2.5155
   55CHL1  H18B 5205   6.866   0.912   3.449  2.0685  0.3390  0.3000
   55CHL1  H18C 5206   6.792   0.979   3.599 -2.1964 -2.3233  0.7348
   55CHL1   C12 5207   6.873   0.637   3.565  0.4083  0.2939 -0.4784
   55CHL1  H12A 5208   6.968   0.636   3.623  0.6562 -0.1423 -0.8871
   55CHL1  H12B 5209   6.827   0.542   3.602  0.1954  0.2087 -0.9622
   55CHL1   C11 5210   6.890   0.629   3.414 -0.3850 -0.3914  0.8070
   55CHL1  H11A 5211   6.957   0.713   3.383  1.1820 -2.2354 -1.1377
   55CHL1  H11B 5212   6.951   0.540   3.386  1.3527  0.5212  1.5285
   55CHL1    C9 5213   6.755   0.630   3.343  0.7574 -0.2776  0.9346
   55CHL1    H9 5214   6.717   0.531   3.375  1.8550 -0.2728  2.3658
   55CHL1   C10 5215   6.767   0.616   3.184 -0.5584  0.0176 -0.3483
   55CHL1   C19 5216   6.882   0.700   3.137  0.5277  0.3279 -0.0800
   55CHL1  H19A 5217   6.884   0.691   3.026 -1.6834  0.4252 -0.1747
   55CHL1  H19B 5218   6.869   0.809   3.156 -3.6139  0.1178 -0.8250
   55CHL1  H19C 5219   6.981   0.661   3.171  0.6566  1.4782  0.9379
   55CHL1    C1 5220   6.803   0.471   3.148  0.6196 -0.0667  0.2176
   55CHL1   H1A 5221   6.909   0.452   3.176  1.6132 -1.0072 -3.6988
   55CHL1   H1B 5222   6.733   0.403   3.201  1.1423 -0.0228  0.9852
   55CHL1    C2 5223   6.805   0.444   2.998  0.5287  0.2854  0.6229
   55CHL1   H2A 5224   6.827   0.337   2.980  0.8956  0.3563  0.6354
   55CHL1   H2B 5225   6.893   0.495   2.952 -1.4129  2.6280 -0.7365
   55CHL1   C20 5226   6.842   0.836   3.863  0.9200  0.0214  0.6612
   55CHL1   H20 5227   6.836   0.944   3.841 -2.3061 -0.1860 -0.0666
   55CHL1   C21 5228   6.985   0.780   3.844  0.5798  0.2577  0.0682
   55CHL1  H21A 5229   7.033   0.797   3.745 -0.8786  2.3058 -0.3460
   55CHL1  H21B 5230   7.002   0.676   3.879 -0.5810  0.6583  1.9556
   55CHL1  H21C 5231   7.053   0.831   3.915 -0.8652  2.6182 -0.1582
   55CHL1   C22 5232   6.796   0.822   4.010 -0.6027 -0.1976 -0.4787
   55CHL1  H22A 5233   6.703   0.880   4.029 -0.8347 -1.0741  1.2868
   55CHL1  H22B 5234   6.770   0.714   4.016  1.5250 -0.6698  1.6270
   55CHL1   C23 5235   6.899   0.849   4.119 -0.5562  0.7435 -0.0543
   55CHL1  H23A 5236   6.984   0.777   4.121 -2.8905 -2.1862  0.6756
   55CHL1  H23B 5237   6.947   0.947   4.101 -0.2104  0.4384 -0.8401
   55CHL1   C24 5238   6.850   0.853   4.267  0.1076  0.0904  0.0284
   55CHL1  H24A 5239   6.776   0.936   4.268  1.0875  0.9851 -0.0024
   55CHL1  H24B 5240   6.794   0.761   4.295 -1.7223  1.1660  0.0584
   55CHL1   C25 5241   6.959   0.890   4.372 -0.3741 -0.4764 -0.1778
   55CHL1   H25 5242   7.006   0.798   4.413  2.1983  1.5968  1.8593
   55CHL1   C26 5243   7.056   0.998   4.322 -0.1931 -0.3035  1.0385
   55CHL1  H26A 5244   7.116   1.036   4.408  2.0174  0.9223 -0.9345
   55CHL1  H26B 5245   7.135   0.969   4.250 -1.0678 -0.0190 -0.0507
   55CHL1  H26C 5246   7.003   1.090   4.290 -1.0426 -1.3447 -0.6360
   55CHL1   C27 5247   6.890   0.949   4.496 -1.2739  0.1000 -0.5082
   55CHL1  H27A 5248   6.836   1.045   4.478 -0.5958  0.6239  0.1379
   55CHL1  H27B 5249   6.831   0.868   4.544  0.5301 -0.7241  0.4040
   55CHL1  H27C 5250   6.969   0.966   4.572 -0.2980 -0.1098 -1.4649
   56CHL1    C3 5251   2.246   1.739   3.516  0.3529  0.3766 -0.7755
   56CHL1    H3 5252   2.176   1.825   3.509 -1.1057 -0.8080 -1.2388
   56CHL1    O3 5253   2.273   1.701   3.382 -1.1203 -0.0025  0.1219
   56CHL1   H3' 5254   2.193   1.653   3.358 -1.0609 -2.0903  3.4927
   56CHL1    C4 5255   2.369   1.781   3.590 -0.2862 -0.0882 -0.6611
   56CHL1   H4A 5256   2.437   1.693   3.588  0.1018  0.2127 -0.8208
   56CHL1   H4B 5257   2.422   1.864   3.539 -1.7963  0.5126 -1.3374
   56CHL1    C5 5258   2.336   1.802   3.740 -0.1352  0.5581 -0.0141
   56CHL1    C6 5259   2.391   1.898   3.810 -0.6458  0.8056  0.2701
   56CHL1    H6 5260   2.446   1.976   3.754 -0.4194  1.3177  1.1858
   56CHL1    C7 5261   2.391   1.909   3.960 -0.1148  0.3888 -0.1410
   56CHL1   H7A 5262   2.493   1.932   3.997  0.1420 -0.5386 -0.2591
   56CHL1   H7B 5263   2.325   1.995   3.983 -0.4748  0.1709 -0.3530
   56CHL1    C8 5264   2.340   1.786   4.032 -0.3528  0.1098 -0.5253
   56CHL1    H8 5265   2.418   1.707   4.033  0.9822  1.3692  1.1797
   56CHL1   C14 5266   2.299   1.828   4.175  0.4671  0.8924 -0.7030
   56CHL1   H14 5267   2.217   1.900   4.155 -0.5673 -0.4771 -1.5101
   56CHL1   C15 5268   2.400   1.895   4.268  0.0075 -0.3062 -0.7105
   56CHL1  H15A 5269   2.495   1.839   4.277  0.9310  1.1924 -0.7951
   56CHL1  H15B 5270   2.428   1.997   4.234  0.0463 -0.6647 -1.7843
   56CHL1   C16 5271   2.333   1.877   4.403  1.1247  0.4321  0.4812
   56CHL1  H16A 5272   2.402   1.835   4.480 -0.7207 -0.4509  1.7363
   56CHL1  H16B 5273   2.298   1.980   4.426 -0.1338  0.2015 -0.2708
   56CHL1   C17 5274   2.211   1.777   4.388 -0.2447 -0.6524  0.0418
   56CHL1   H17 5275   2.121   1.842   4.378 -1.4548 -2.0830  1.1072
   56CHL1   C13 5276   2.233   1.710   4.255 -0.2506  0.0352 -0.1803
   56CHL1   C18 5277   2.339   1.609   4.277  0.4432  0.7264 -0.4827
   56CHL1  H18A 5278   2.409   1.637   4.358 -0.5514 -1.6099  1.2912
   56CHL1  H18B 5279   2.292   1.511   4.301 -1.9087  1.3790 -2.0347
   56CHL1  H18C 5280   2.397   1.594   4.183 -0.6532 -2.1487 -0.8117
   56CHL1   C12 5281   2.102   1.675   4.179 -0.3217  0.5422 -1.5123
   56CHL1  H12A 5282   2.056   1.585   4.225 -0.4401  0.5233 -1.6675
   56CHL1  H12B 5283   2.023   1.753   4.179 -0.9094  0.3201  4.0540
   56CHL1   C11 5284   2.133   1.630   4.034  0.1472 -0.3594 -0.0511
   56CHL1  H11A 5285   2.198   1.540   4.035  1.9530  0.8962 -0.0078
   56CHL1  H11B 5286   2.035   1.604   3.988  0.9211 -1.4417 -1.1527
   56CHL1    C9 5287   2.216   1.734   3.955  0.0399 -0.2951  0.3994
   56CHL1    H9 5288   2.148   1.820   3.941 -0.0553 -0.0918  1.8944
   56CHL1   C10 5289   2.253   1.691   3.808 -0.4974  0.4565  0.2579
   56CHL1   C19 5290   2.349   1.564   3.814 -0.7228  0.0058 -0.1744
   56CHL1  H19A 5291   2.444   1.590   3.865  0.0143  0.5808 -1.7820
   56CHL1  H19B 5292   2.309   1.478   3.871  1.4660 -0.7367  0.3316
   56CHL1  H19C 5293   2.370   1.531   3.710 -0.2951  1.4170 -0.5632
   56CHL1    C1 5294   2.129   1.654   3.723  0.1810 -0.2142 -0.1278
   56CHL1   H1A 5295   2.069   1.570   3.765 -3.1764  1.4418 -1.2386
   56CHL1   H1B 5296   2.056   1.737   3.735 -1.4027 -1.4267 -0.8485
   56CHL1    C2 5297   2.167   1.624   3.576  0.6752 -0.3555  0.2531
   56CHL1   H2A 5298   2.077   1.599   3.515  0.4826 -0.1461  0.4505
   56CHL1   H2B 5299   2.235   1.536   3.570  1.2952  0.1344 -0.0649
   56CHL1   C20 5300   2.192   1.685   4.509  0.2746  0.9624 -0.3975
   56CHL1   H20 5301   2.275   1.612   4.515 -1.6831 -1.4064 -0.6871
   56CHL1   C21 5302   2.077   1.589   4.498  0.5747 -0.3451 -0.2537
   56CHL1  H21A 5303   2.095   1.507   4.425 -0.0379 -0.6577 -0.0627
   56CHL1  H21B 5304   1.982   1.643   4.477  0.4200  1.2456  3.7716
   56CHL1  H21C 5305   2.059   1.536   4.594 -1.7884  1.0999  0.1805
   56CHL1   C22 5306   2.182   1.764   4.644 -0.6198  0.2048  0.4997
   56CHL1  H22A 5307   2.155   1.702   4.731 -2.2970 -0.0267 -0.1601
   56CHL1  H22B 5308   2.289   1.794   4.653 -0.3102 -0.5335 -0.4806
   56CHL1   C23 5309   2.084   1.881   4.661  0.1523 -0.7358  0.1358
   56CHL1  H23A 5310   2.088   1.942   4.569  0.4333 -2.0822 -0.7721
   56CHL1  H23B 5311   1.984   1.835   4.672 -0.3087  0.3375  0.4878
   56CHL1   C24 5312   2.116   1.972   4.787 -0.0257  0.2420  0.0384
   56CHL1  H24A 5313   2.120   1.898   4.869  0.8216 -0.3630 -0.5230
   56CHL1  H24B 5314   2.219   2.010   4.767 -0.1885  0.4561 -0.4064
   56CHL1   C25 5315   2.013   2.085   4.807  0.2945  0.3405  0.0247
   56CHL1   H25 5316   1.996   2.131   4.707 -0.1931 -1.0352 -0.5350
   56CHL1   C26 5317   1.879   2.033   4.864 -0.4769  0.1000 -0.2146
   56CHL1  H26A 5318   1.837   1.966   4.786 -2.5854  1.7289 -0.5874
   56CHL1  H26B 5319   1.919   1.975   4.949 -0.4925  0.7383  0.2342
   56CHL1  H26C 5320   1.805   2.112   4.890 -0.3088  0.2877 -0.3008
   56CHL1   C27 5321   2.057   2.183   4.914 -0.0595 -0.7284  0.3107
   56CHL1  H27A 5322   1.992   2.273   4.923 -1.3436 -1.7106  1.2475
   56CHL1  H27B 5323   2.059   2.131   5.012  0.7042 -1.7717 -0.2518
   56CHL1  H27C 5324   2.159   2.228   4.909 -0.8313  1.1921  0.6996
   57CHL1    C3 5325   6.525   6.516   3.161 -0.8521 -0.1857  0.2128
   57CHL1    H3 5326   6.425   6.540   3.202 -0.3727  2.4914 -0.0191
   57CHL1    O3 5327   6.513   6.533   3.027  0.2469 -0.2091  0.1992
   57CHL1   H3' 5328   6.596   6.507   2.985  0.3233  0.7696 -0.2828
   57CHL1    C4 5329   6.623   6.623   3.215 -0.3440  0.2818 -0.5948
   57CHL1   H4A 5330   6.722   6.612   3.165 -0.1290 -1.3885  0.1252
   57CHL1   H4B 5331   6.585   6.726   3.202  2.3081  1.8623  2.7107
   57CHL1    C5 5332   6.643   6.606   3.367  0.5677  0.1755 -0.1907
   57CHL1    C6 5333   6.610   6.707   3.450 -0.4046 -0.5391  1.0069
   57CHL1    H6 5334   6.587   6.808   3.413  1.3985 -0.0026  1.2427
   57CHL1    C7 5335   6.615   6.693   3.599 -0.5860  0.1363 -0.5659
   57CHL1   H7A 5336   6.656   6.792   3.626  0.4417 -0.5750  0.5512
   57CHL1   H7B 5337   6.519   6.675   3.652  0.9258 -2.4962  1.5279
   57CHL1    C8 5338   6.694   6.577   3.642  0.1376 -0.0154 -0.2372
   57CHL1    H8 5339   6.801   6.584   3.614 -0.2634  2.0588 -1.5393
   57CHL1   C14 5340   6.683   6.554   3.793 -1.1074 -0.1060 -0.3889
   57CHL1   H14 5341   6.578   6.522   3.809 -0.3591 -2.3903  0.3548
   57CHL1   C15 5342   6.695   6.676   3.885  0.7545 -0.1302  0.0456
   57CHL1  H15A 5343   6.787   6.736   3.870  0.8765 -0.1357  0.7418
   57CHL1  H15B 5344   6.618   6.757   3.887 -1.9942 -2.5767  1.7495
   57CHL1   C16 5345   6.715   6.611   4.021 -0.4129 -0.9893 -0.0009
   57CHL1  H16A 5346   6.819   6.626   4.057 -0.8657 -0.1969  1.0218
   57CHL1  H16B 5347   6.647   6.653   4.098 -1.0137 -0.2299 -0.9304
   57CHL1   C17 5348   6.713   6.456   3.998  0.9065  0.1796 -0.2549
   57CHL1   H17 5349   6.607   6.422   3.990  1.5148 -1.3656 -2.4427
   57CHL1   C13 5350   6.759   6.440   3.852  0.3567 -0.4650 -0.2354
   57CHL1   C18 5351   6.912   6.461   3.847  0.2272 -0.2908 -0.1482
   57CHL1  H18A 5352   6.934   6.564   3.882 -1.4618  1.5516 -3.8756
   57CHL1  H18B 5353   6.979   6.394   3.905  0.8828 -0.2807 -0.8758
   57CHL1  H18C 5354   6.950   6.461   3.743  1.2880 -0.5659  0.2238
   57CHL1   C12 5355   6.715   6.308   3.783  0.0984 -0.6394 -0.2694
   57CHL1  H12A 5356   6.794   6.238   3.817  0.6268 -0.1014 -0.3660
   57CHL1  H12B 5357   6.615   6.276   3.818 -1.0369  1.9491 -0.8801
   57CHL1   C11 5358   6.722   6.327   3.630  0.6777  0.4344  0.1371
   57CHL1  H11A 5359   6.829   6.325   3.601  0.5339 -2.5248 -0.4887
   57CHL1  H11B 5360   6.682   6.235   3.584  0.2991  0.1667  0.9897
   57CHL1    C9 5361   6.650   6.452   3.568  0.0787 -0.0401  0.0103
   57CHL1    H9 5362   6.541   6.439   3.579 -0.2251  0.9060 -1.6035
   57CHL1   C10 5363   6.672   6.472   3.418  0.2572  0.0022 -0.1451
   57CHL1   C19 5364   6.823   6.446   3.374  0.2820  0.5204  0.0425
   57CHL1  H19A 5365   6.832   6.449   3.263  2.2318  1.4234  0.1673
   57CHL1  H19B 5366   6.892   6.518   3.424 -1.9192  1.3349  2.1298
   57CHL1  H19C 5367   6.851   6.343   3.404  0.4006  0.9238  1.3898
   57CHL1    C1 5368   6.591   6.360   3.347  0.3660  0.0512 -0.5860
   57CHL1   H1A 5369   6.628   6.257   3.363 -2.0602 -0.7286  0.5059
   57CHL1   H1B 5370   6.486   6.365   3.384  0.8319 -1.8535  1.1661
   57CHL1    C2 5371   6.565   6.372   3.201  0.3083 -0.2861  0.4359
   57CHL1   H2A 5372   6.489   6.304   3.156  1.3212 -1.4994  0.4952
   57CHL1   H2B 5373   6.660   6.349   3.147 -0.1823 -3.5159  0.7055
   57CHL1   C20 5374   6.772   6.380   4.116 -0.3153  0.0101 -0.9101
   57CHL1   H20 5375   6.878   6.407   4.139 -0.2090 -0.6460 -0.6015
   57CHL1   C21 5376   6.782   6.230   4.083 -0.3010 -0.2134 -0.2932
   57CHL1  H21A 5377   6.683   6.190   4.054 -1.3419 -0.9586  3.7026
   57CHL1  H21B 5378   6.807   6.183   4.180 -1.7118  0.3106  0.3483
   57CHL1  H21C 5379   6.856   6.206   4.003  0.4410  0.8907  0.0381
   57CHL1   C22 5380   6.704   6.406   4.260 -0.3805 -0.2088 -0.1451
   57CHL1  H22A 5381   6.678   6.514   4.266  1.3042  0.1425  2.5204
   57CHL1  H22B 5382   6.610   6.347   4.264  0.1012 -0.9297  2.0180
   57CHL1   C23 5383   6.791   6.379   4.388  1.0730 -0.3280 -0.3314
   57CHL1  H23A 5384   6.815   6.270   4.391 -2.3016 -1.1637  1.3140
   57CHL1  H23B 5385   6.878   6.446   4.370  0.7233  0.2802  0.1963
   57CHL1   C24 5386   6.720   6.426   4.514 -0.3219  0.3867  0.2473
   57CHL1  H24A 5387   6.688   6.528   4.487 -1.6292 -0.0487  0.1142
   57CHL1  H24B 5388   6.629   6.369   4.542  0.5553 -0.8277  0.7447
   57CHL1   C25 5389   6.814   6.431   4.641 -0.5681 -0.2938 -0.1010
   57CHL1   H25 5390   6.846   6.328   4.669 -0.6653 -0.7279 -1.4977
   57CHL1   C26 5391   6.939   6.521   4.622 -0.0394  0.4441  0.5251
   57CHL1  H26A 5392   6.976   6.551   4.722 -0.7776 -1.7102  1.5180
   57CHL1  H26B 5393   7.018   6.456   4.578 -0.7297  0.3560 -0.6320
   57CHL1  H26C 5394   6.918   6.605   4.552 -0.5284  0.3068  0.4994
   57CHL1   C27 5395   6.739   6.475   4.762  0.2842  0.0937  1.0436
   57CHL1  H27A 5396   6.719   6.584   4.754  0.5664  0.0333 -1.3076
   57CHL1  H27B 5397   6.646   6.415   4.775 -0.0475  0.6471  1.2926
   57CHL1  H27C 5398   6.803   6.458   4.851 -1.0161 -2.3360  1.5920
   58CHL1    C3 5399   6.177   1.743   3.342 -0.1456  0.7514 -0.2225
   58CHL1    H3 5400   6.067   1.744   3.356 -0.0442  0.1765  0.7339
   58CHL1    O3 5401   6.212   1.771   3.209  0.3681  0.2360 -0.5654
   58CHL1   H3' 5402   6.185   1.696   3.156  1.2125 -0.4031 -0.1146
   58CHL1    C4 5403   6.240   1.841   3.442 -0.0672  0.5871 -0.6417
   58CHL1   H4A 5404   6.351   1.832   3.433 -0.2203  0.2687 -2.3996
   58CHL1   H4B 5405   6.209   1.945   3.418  1.5290  1.7438  1.7903
   58CHL1    C5 5406   6.196   1.807   3.575 -0.1345  0.3063 -0.3899
   58CHL1    C6 5407   6.127   1.895   3.657 -0.4450  0.1283  0.7437
   58CHL1    H6 5408   6.113   2.002   3.632  0.8504  0.4842  1.4479
   58CHL1    C7 5409   6.097   1.868   3.803  0.0762 -0.2095  0.9043
   58CHL1   H7A 5410   6.142   1.950   3.864  0.8323  1.4817 -1.7680
   58CHL1   H7B 5411   5.989   1.860   3.826 -0.3343  0.6705 -0.6030
   58CHL1    C8 5412   6.167   1.739   3.853  0.8722 -0.2226 -0.1159
   58CHL1    H8 5413   6.272   1.766   3.874  0.2943  1.7043  0.5064
   58CHL1   C14 5414   6.112   1.696   3.991 -0.2963 -0.4491 -0.2646
   58CHL1   H14 5415   6.002   1.683   3.982 -0.9951  1.8235  3.3213
   58CHL1   C15 5416   6.125   1.797   4.109 -0.5144  0.7067 -0.2153
   58CHL1  H15A 5417   6.232   1.828   4.117 -0.6807  0.9565  1.4335
   58CHL1  H15B 5418   6.064   1.886   4.083  0.5383  1.3540 -0.5436
   58CHL1   C16 5419   6.081   1.711   4.228  0.0501  0.6190  0.0392
   58CHL1  H16A 5420   6.149   1.730   4.314  0.4400 -0.7994  0.0709
   58CHL1  H16B 5421   5.974   1.719   4.255  0.1541 -2.6010  1.9422
   58CHL1   C17 5422   6.073   1.559   4.184 -0.5242  0.1162  0.0976
   58CHL1   H17 5423   5.969   1.535   4.155 -0.8517 -0.7694  1.8897
   58CHL1   C13 5424   6.157   1.558   4.049 -0.2210 -0.3784  0.0109
   58CHL1   C18 5425   6.303   1.565   4.098 -0.8898  0.3572 -0.2943
   58CHL1  H18A 5426   6.317   1.640   4.179  2.2417  0.0794 -0.4700
   58CHL1  H18B 5427   6.342   1.464   4.123  2.3127  1.2933 -1.0548
   58CHL1  H18C 5428   6.378   1.594   4.021  1.2515 -1.0843  1.1381
   58CHL1   C12 5429   6.132   1.458   3.939  0.4315 -0.3917  0.3254
   58CHL1  H12A 5430   6.151   1.355   3.975 -2.4364 -0.9737  0.3492
   58CHL1  H12B 5431   6.027   1.469   3.907  1.4911 -0.8849 -3.8284
   58CHL1   C11 5432   6.213   1.492   3.810  0.9639 -0.2153 -0.3625
   58CHL1  H11A 5433   6.322   1.493   3.830  1.2733  0.3715 -1.9663
   58CHL1  H11B 5434   6.197   1.414   3.733 -1.3102 -1.4930  1.2677
   58CHL1    C9 5435   6.166   1.623   3.752  0.9879 -0.0360  0.0025
   58CHL1    H9 5436   6.058   1.602   3.737  0.8775 -0.5800  1.3409
   58CHL1   C10 5437   6.228   1.664   3.619 -0.3989  0.3076  0.2657
   58CHL1   C19 5438   6.385   1.666   3.639 -0.0804  0.3239  0.7148
   58CHL1  H19A 5439   6.434   1.574   3.679  2.1003 -0.1013 -2.5836
   58CHL1  H19B 5440   6.435   1.690   3.544 -1.5252 -0.8630 -0.4057
   58CHL1  H19C 5441   6.408   1.736   3.722 -2.1624  1.4566  0.4031
   58CHL1    C1 5442   6.188   1.566   3.511 -0.4854  0.5155  0.1314
   58CHL1   H1A 5443   6.216   1.463   3.542 -1.2507  0.6616  1.3603
   58CHL1   H1B 5444   6.077   1.563   3.503 -0.3840 -0.8809 -1.4197
   58CHL1    C2 5445   6.231   1.602   3.365  0.0917 -0.4327  0.0603
   58CHL1   H2A 5446   6.188   1.530   3.292  1.7298 -1.2501 -0.1315
   58CHL1   H2B 5447   6.341   1.602   3.349 -0.0633 -2.0736 -1.2478
   58CHL1   C20 5448   6.112   1.471   4.304 -0.6961 -0.6822 -0.2373
   58CHL1   H20 5449   6.209   1.507   4.344 -1.0539  0.2464 -0.1931
   58CHL1   C21 5450   6.133   1.322   4.272 -0.2231  0.4658 -0.5149
   58CHL1  H21A 5451   6.030   1.287   4.248 -0.7417  0.3637  1.6955
   58CHL1  H21B 5452   6.171   1.273   4.364 -1.2090 -0.2617 -0.4711
   58CHL1  H21C 5453   6.203   1.308   4.187 -1.0606 -0.3584 -1.0942
   58CHL1   C22 5454   6.016   1.481   4.431 -0.3017  0.1995  0.4527
   58CHL1  H22A 5455   5.996   1.586   4.460  0.0201  0.0277  1.3261
   58CHL1  H22B 5456   5.919   1.437   4.397 -1.2184  1.9407  0.6938
   58CHL1   C23 5457   6.076   1.399   4.553  0.0964  0.0506 -0.2199
   58CHL1  H23A 5458   6.072   1.288   4.543  0.6791 -0.1575  1.4595
   58CHL1  H23B 5459   6.185   1.421   4.551  0.2320 -0.6075 -2.6400
   58CHL1   C24 5460   5.993   1.443   4.676  0.2400 -0.1275  0.5952
   58CHL1  H24A 5461   5.974   1.552   4.672  1.2031  0.0344 -2.4476
   58CHL1  H24B 5462   5.889   1.405   4.671  0.3714 -0.3515 -1.5432
   58CHL1   C25 5463   6.041   1.397   4.813 -0.8301 -0.2416 -0.4728
   58CHL1   H25 5464   6.152   1.393   4.814 -0.7015  0.9904  3.1933
   58CHL1   C26 5465   6.000   1.512   4.908 -0.4136  0.5550 -0.5239
   58CHL1  H26A 5466   6.064   1.494   4.997 -0.5133 -0.9006 -0.7294
   58CHL1  H26B 5467   6.024   1.608   4.856  0.8489 -1.1618 -3.3915
   58CHL1  H26C 5468   5.892   1.516   4.934 -0.3342 -1.3026  0.1947
   58CHL1   C27 5469   5.995   1.263   4.862  0.3742 -0.2842 -0.0991
   58CHL1  H27A 5470   5.884   1.268   4.860  0.3971  0.3123 -1.5593
   58CHL1  H27B 5471   6.024   1.182   4.792  1.4222  0.4666 -0.5462
   58CHL1  H27C 5472   6.035   1.242   4.963 -3.1536 -0.1496  1.4641
   59CHL1    C3 5473   4.900   6.623   3.166  0.4707  0.7791  0.3768
   59CHL1    H3 5474   5.009   6.616   3.187  0.3218 -0.5288  0.7862
   59CHL1    O3 5475   4.895   6.642   3.028 -0.1310 -0.4008  0.0085
   59CHL1   H3' 5476   4.804   6.620   3.005 -0.5388 -1.4080  2.2970
   59CHL1    C4 5477   4.817   6.494   3.182  0.4113  0.0519  0.2106
   59CHL1   H4A 5478   4.709   6.515   3.165  0.3923  1.8206  2.0541
   59CHL1   H4B 5479   4.850   6.418   3.109 -2.2745 -0.6990 -0.3377
   59CHL1    C5 5480   4.820   6.453   3.332 -0.6653 -0.3759  0.0828
   59CHL1    C6 5481   4.877   6.344   3.369 -0.9119  0.4028  0.0195
   59CHL1    H6 5482   4.923   6.280   3.292 -0.1569  0.5313  0.3619
   59CHL1    C7 5483   4.886   6.285   3.508  0.2623  0.5963  0.4994
   59CHL1   H7A 5484   4.865   6.177   3.500  0.5018  0.6216 -0.6546
   59CHL1   H7B 5485   4.990   6.292   3.547  1.4078  2.7307 -2.5648
   59CHL1    C8 5486   4.791   6.358   3.594 -0.2985 -0.3030  0.1054
   59CHL1    H8 5487   4.684   6.332   3.580 -0.8972  1.0086  1.8461
   59CHL1   C14 5488   4.819   6.325   3.744  0.3381  0.7761 -0.0197
   59CHL1   H14 5489   4.924   6.355   3.767  0.0773  1.3067  0.5135
   59CHL1   C15 5490   4.823   6.169   3.776 -0.6972  0.0072 -0.0320
   59CHL1  H15A 5491   4.731   6.118   3.740  1.1953 -2.6333 -1.5172
   59CHL1  H15B 5492   4.917   6.118   3.744  0.1882  0.9400  0.9915
   59CHL1   C16 5493   4.816   6.184   3.938 -0.0059  0.3677  0.5996
   59CHL1  H16A 5494   4.728   6.122   3.968 -0.2461  0.9437  1.1070
   59CHL1  H16B 5495   4.910   6.148   3.985  0.2462  1.3140  0.8415
   59CHL1   C17 5496   4.785   6.338   3.972  0.3227  0.8912 -0.0801
   59CHL1   H17 5497   4.885   6.384   3.988  0.1534  0.9351  0.9513
   59CHL1   C13 5498   4.724   6.399   3.841 -0.4513 -1.3859 -0.5976
   59CHL1   C18 5499   4.579   6.347   3.825  0.7065  0.2958 -0.3129
   59CHL1  H18A 5500   4.533   6.353   3.724  0.7358 -0.2922 -0.3661
   59CHL1  H18B 5501   4.564   6.252   3.882 -1.4291  1.4583  1.1877
   59CHL1  H18C 5502   4.511   6.413   3.883  0.0933  0.4089 -1.1337
   59CHL1   C12 5503   4.753   6.549   3.821 -0.1072  0.0269 -0.2452
   59CHL1  H12A 5504   4.689   6.605   3.893 -0.0159 -1.1841  0.8097
   59CHL1  H12B 5505   4.862   6.564   3.828 -0.1063 -0.1198  0.0864
   59CHL1   C11 5506   4.723   6.601   3.678 -0.0392 -0.7543 -0.9136
   59CHL1  H11A 5507   4.615   6.608   3.651 -0.3588 -0.2024  0.4242
   59CHL1  H11B 5508   4.772   6.700   3.669 -2.7481  0.5564 -2.3824
   59CHL1    C9 5509   4.802   6.516   3.569 -0.4129  0.1268  0.4056
   59CHL1    H9 5510   4.910   6.537   3.586  0.1561 -1.7104 -0.6889
   59CHL1   C10 5511   4.758   6.561   3.426  0.4470  0.3516 -0.0268
   59CHL1   C19 5512   4.603   6.578   3.409  0.5394  0.2366  0.2457
   59CHL1  H19A 5513   4.544   6.635   3.483 -1.1585 -2.5067  1.1384
   59CHL1  H19B 5514   4.590   6.646   3.323 -2.0275  2.0459  1.9422
   59CHL1  H19C 5515   4.552   6.481   3.388 -0.7340  1.0787 -0.6389
   59CHL1    C1 5516   4.813   6.698   3.395  0.3396  0.3013 -0.0490
   59CHL1   H1A 5517   4.755   6.777   3.448  0.1481 -0.6062  1.1437
   59CHL1   H1B 5518   4.907   6.708   3.454  0.3355 -0.4871  0.0927
   59CHL1    C2 5519   4.836   6.733   3.246 -0.5405  0.1896  0.1757
   59CHL1   H2A 5520   4.911   6.815   3.247  1.0391 -1.1725 -0.9917
   59CHL1   H2B 5521   4.739   6.761   3.198  1.2938  2.9627 -2.3225
   59CHL1   C20 5522   4.706   6.362   4.104 -0.6198 -0.5593 -0.1588
   59CHL1   H20 5523   4.600   6.328   4.094 -1.1748  0.7145  1.0151
   59CHL1   C21 5524   4.686   6.517   4.128 -1.0851  0.8109  0.3692
   59CHL1  H21A 5525   4.608   6.560   4.062  2.0897  1.0210 -3.6704
   59CHL1  H21B 5526   4.773   6.575   4.090 -2.4374  3.7517  1.4247
   59CHL1  H21C 5527   4.697   6.544   4.235 -0.8978 -0.2845  0.6378
   59CHL1   C22 5528   4.775   6.282   4.224  0.6485  0.8231 -0.7689
   59CHL1  H22A 5529   4.802   6.179   4.194  0.3708  0.5316 -0.0453
   59CHL1  H22B 5530   4.869   6.337   4.246  0.3797  0.4060  1.6595
   59CHL1   C23 5531   4.676   6.290   4.344  0.1790 -1.0310  0.4974
   59CHL1  H23A 5532   4.646   6.395   4.364 -2.8226 -1.6809 -0.1947
   59CHL1  H23B 5533   4.575   6.254   4.315  0.9035 -1.8654 -1.1310
   59CHL1   C24 5534   4.733   6.218   4.462  0.1349  0.5573  0.1823
   59CHL1  H24A 5535   4.734   6.108   4.445 -2.4804  0.5283 -0.2017
   59CHL1  H24B 5536   4.838   6.250   4.483  1.0493 -0.7223 -2.0568
   59CHL1   C25 5537   4.657   6.247   4.593 -0.2109  0.0546 -0.3358
   59CHL1   H25 5538   4.643   6.356   4.609 -3.0156 -0.4329  1.1302
   59CHL1   C26 5539   4.524   6.173   4.599 -0.1266  0.6560 -0.5075
   59CHL1  H26A 5540   4.478   6.172   4.498 -0.6117 -1.1653 -0.2891
   59CHL1  H26B 5541   4.533   6.069   4.635 -0.5857  1.1321  1.0617
   59CHL1  H26C 5542   4.458   6.223   4.673  0.4843 -1.0545  1.2640
   59CHL1   C27 5543   4.751   6.198   4.711  0.1228 -0.4554  0.0689
   59CHL1  H27A 5544   4.854   6.240   4.715 -0.4158  0.9015  0.4121
   59CHL1  H27B 5545   4.712   6.246   4.803  2.0717  0.7673  0.3146
   59CHL1  H27C 5546   4.754   6.088   4.723 -0.7783 -0.3794  1.1266
   60CHL1    C3 5547   1.078   5.313   3.549  0.1272 -0.0198 -0.1413
   60CHL1    H3 5548   0.974   5.323   3.585 -0.0234 -1.1338 -0.2301
   60CHL1    O3 5549   1.074   5.321   3.409  0.1820  0.6910 -0.2952
   60CHL1   H3' 5550   1.056   5.409   3.376  2.4417  1.0809 -0.6303
   60CHL1    C4 5551   1.154   5.432   3.622  0.2118  0.0632 -0.3800
   60CHL1   H4A 5552   1.246   5.449   3.563 -0.7201  0.6039 -1.7147
   60CHL1   H4B 5553   1.096   5.525   3.606  0.2432  0.3633  1.0851
   60CHL1    C5 5554   1.186   5.416   3.769 -0.5534  0.3769  0.0685
   60CHL1    C6 5555   1.171   5.523   3.853  0.3284 -0.1143  0.5545
   60CHL1    H6 5556   1.131   5.616   3.810  1.0560  0.0182  0.1625
   60CHL1    C7 5557   1.189   5.513   4.002  0.3667  0.2963 -0.4205
   60CHL1   H7A 5558   1.244   5.602   4.039 -0.1840  1.4971 -2.3269
   60CHL1   H7B 5559   1.087   5.504   4.045  0.2394 -0.0685 -0.7921
   60CHL1    C8 5560   1.267   5.378   4.044  0.2456  0.3712  0.0009
   60CHL1    H8 5561   1.375   5.391   4.025  0.5022 -3.4195 -1.9296
   60CHL1   C14 5562   1.242   5.356   4.192  0.2304 -0.2159  0.4774
   60CHL1   H14 5563   1.132   5.346   4.204  0.0734  1.0782  0.2479
   60CHL1   C15 5564   1.286   5.465   4.285 -0.1580 -0.3021 -0.0571
   60CHL1  H15A 5565   1.383   5.509   4.250 -0.4967  1.0749  0.6660
   60CHL1  H15B 5566   1.219   5.551   4.262 -0.7268 -1.0322 -1.2132
   60CHL1   C16 5567   1.294   5.406   4.427  0.9698 -0.6168 -0.0409
   60CHL1  H16A 5568   1.388   5.433   4.480 -0.2767  0.8482  1.5384
   60CHL1  H16B 5569   1.217   5.450   4.493  2.6958  0.0851  1.6164
   60CHL1   C17 5570   1.266   5.256   4.401 -0.5781  0.4162 -0.0246
   60CHL1   H17 5571   1.159   5.226   4.411 -0.6057  0.9572  1.4934
   60CHL1   C13 5572   1.303   5.235   4.257 -0.9377  0.7385  0.6031
   60CHL1   C18 5573   1.456   5.231   4.254 -0.1465  0.5246  0.3069
   60CHL1  H18A 5574   1.501   5.316   4.310 -1.1047  2.8452 -2.2471
   60CHL1  H18B 5575   1.505   5.134   4.276 -0.4917 -0.0261 -1.2543
   60CHL1  H18C 5576   1.483   5.263   4.151 -1.1016  2.4327  0.6067
   60CHL1   C12 5577   1.258   5.109   4.186  0.1050  0.3234  0.2026
   60CHL1  H12A 5578   1.317   5.019   4.213  1.9505  0.6492 -2.3324
   60CHL1  H12B 5579   1.151   5.089   4.208 -0.1954 -0.6690 -1.8944
   60CHL1   C11 5580   1.275   5.117   4.029 -0.1963 -0.3527 -0.8252
   60CHL1  H11A 5581   1.386   5.120   4.022 -0.2029 -0.3838 -0.9510
   60CHL1  H11B 5582   1.237   5.026   3.978  0.8683 -0.4344 -1.4898
   60CHL1    C9 5583   1.223   5.252   3.968 -0.0278 -0.6845  0.3220
   60CHL1    H9 5584   1.113   5.243   3.984 -0.0803 -1.9678 -0.6767
   60CHL1   C10 5585   1.232   5.274   3.813  0.5315  0.0511 -0.3238
   60CHL1   C19 5586   1.377   5.243   3.772 -0.8771  0.5336  0.1969
   60CHL1  H19A 5587   1.442   5.313   3.830 -0.3960 -2.0349  2.9832
   60CHL1  H19B 5588   1.419   5.144   3.799  0.0467  1.5977  3.0492
   60CHL1  H19C 5589   1.392   5.262   3.664 -0.9773 -1.5416 -0.2086
   60CHL1    C1 5590   1.141   5.174   3.745  0.0302 -0.3246 -0.3416
   60CHL1   H1A 5591   1.179   5.073   3.772 -3.9480 -1.5062  1.6287
   60CHL1   H1B 5592   1.037   5.171   3.786 -0.4266 -1.7530 -1.5230
   60CHL1    C2 5593   1.137   5.179   3.594  0.4283  0.1238  0.4160
   60CHL1   H2A 5594   1.086   5.087   3.558  0.8399 -0.2369  0.7596
   60CHL1   H2B 5595   1.242   5.172   3.558  0.9849 -0.6260  2.0951
   60CHL1   C20 5596   1.332   5.165   4.512 -0.1066  0.7938  0.5293
   60CHL1   H20 5597   1.439   5.193   4.530  0.3047  0.2150 -0.8815
   60CHL1   C21 5598   1.336   5.009   4.473  0.1771 -0.2171  0.9522
   60CHL1  H21A 5599   1.355   4.941   4.559  1.0986 -0.2240  0.7485
   60CHL1  H21B 5600   1.425   4.997   4.407 -1.1349  1.3218 -1.2392
   60CHL1  H21C 5601   1.240   4.975   4.427  0.6541  0.1917 -0.3981
   60CHL1   C22 5602   1.254   5.183   4.639  0.1134  0.3320 -0.1748
   60CHL1  H22A 5603   1.311   5.139   4.723  2.3208 -0.8747 -2.1873
   60CHL1  H22B 5604   1.243   5.293   4.645 -0.1270  0.5837 -3.4936
   60CHL1   C23 5605   1.116   5.112   4.659  0.3991  1.2288  0.1446
   60CHL1  H23A 5606   1.043   5.140   4.580 -0.6732  0.1240  0.7182
   60CHL1  H23B 5607   1.142   5.005   4.646 -0.6299  0.8000  1.4539
   60CHL1   C24 5608   1.044   5.140   4.789  0.1611  0.1541 -0.9330
   60CHL1  H24A 5609   1.110   5.124   4.877 -0.2115  0.0140 -0.6736
   60CHL1  H24B 5610   1.016   5.247   4.783  1.3749  0.5874  0.5419
   60CHL1   C25 5611   0.922   5.043   4.810 -0.3710  0.5240  0.1108
   60CHL1   H25 5612   0.843   5.091   4.748  1.1567  0.9708 -1.5732
   60CHL1   C26 5613   0.936   4.891   4.770 -0.2746  0.2434 -0.0767
   60CHL1  H26A 5614   0.845   4.831   4.787  0.8801 -1.0148  2.1805
   60CHL1  H26B 5615   0.970   4.873   4.666 -0.7430  1.1338 -0.3977
   60CHL1  H26C 5616   1.016   4.853   4.837 -0.3052 -0.2503 -0.3200
   60CHL1   C27 5617   0.892   5.056   4.960 -0.1785 -0.1632  0.3038
   60CHL1  H27A 5618   0.877   5.166   4.973  1.2564  0.2549 -1.2268
   60CHL1  H27B 5619   0.801   5.000   4.990 -1.2417 -0.4544 -3.1014
   60CHL1  H27C 5620   0.981   5.041   5.025  1.1195  3.7772 -0.2978
   61CHL1    C3 5621   1.602   0.748   3.448  0.3928 -0.0816 -0.3090
   61CHL1    H3 5622   1.647   0.850   3.447 -0.1354  0.1737  0.6645
   61CHL1    O3 5623   1.564   0.694   3.321 -0.2243  0.1196  0.3493
   61CHL1   H3' 5624   1.641   0.712   3.266 -1.0163 -0.3514 -0.9501
   61CHL1    C4 5625   1.704   0.637   3.501 -0.5811 -0.2246  1.1841
   61CHL1   H4A 5626   1.659   0.539   3.474 -0.1787  0.0975 -0.8021
   61CHL1   H4B 5627   1.794   0.650   3.438 -0.5243 -1.5112  0.9837
   61CHL1    C5 5628   1.746   0.646   3.652 -0.0405 -0.2945  0.8472
   61CHL1    C6 5629   1.868   0.655   3.708 -0.1611 -0.7146  0.4497
   61CHL1    H6 5630   1.952   0.649   3.638 -0.6659  0.6823 -0.3183
   61CHL1    C7 5631   1.899   0.663   3.858 -0.3192 -0.8114  1.0203
   61CHL1   H7A 5632   1.980   0.592   3.885 -1.4134 -2.4974  0.0324
   61CHL1   H7B 5633   1.933   0.767   3.877 -2.0169  0.2584 -1.3090
   61CHL1    C8 5634   1.777   0.648   3.947  0.4979 -0.7739 -0.3935
   61CHL1    H8 5635   1.743   0.542   3.954 -2.7099  0.1838  0.3594
   61CHL1   C14 5636   1.805   0.706   4.084  0.2780 -0.4253  0.0308
   61CHL1   H14 5637   1.830   0.814   4.073 -2.8490  0.5904  1.8088
   61CHL1   C15 5638   1.922   0.639   4.157  0.4326  0.2990  0.2095
   61CHL1  H15A 5639   1.902   0.531   4.141 -1.6142  0.3755  1.7382
   61CHL1  H15B 5640   2.023   0.669   4.123  0.2930  0.6316  0.0860
   61CHL1   C16 5641   1.900   0.682   4.302 -0.3613  0.2246 -0.4838
   61CHL1  H16A 5642   1.920   0.591   4.363 -0.2484  0.4525 -0.1748
   61CHL1  H16B 5643   1.977   0.756   4.332  0.2933 -0.3540 -0.7096
   61CHL1   C17 5644   1.760   0.757   4.311  0.3265  0.3110  0.4804
   61CHL1   H17 5645   1.792   0.862   4.291  2.8360 -0.2416  1.1875
   61CHL1   C13 5646   1.683   0.710   4.188 -0.3427  0.0849  0.6758
   61CHL1   C18 5647   1.639   0.564   4.214  0.1785  0.5338 -0.3011
   61CHL1  H18A 5648   1.578   0.558   4.306  2.0129  0.5358  0.9855
   61CHL1  H18B 5649   1.577   0.524   4.131 -2.7997  0.8787  1.6156
   61CHL1  H18C 5650   1.716   0.484   4.225 -0.9051 -0.5819 -0.6201
   61CHL1   C12 5651   1.569   0.792   4.125  0.3247 -1.2765 -0.6564
   61CHL1  H12A 5652   1.478   0.776   4.186  0.1384  1.0455 -0.2506
   61CHL1  H12B 5653   1.593   0.901   4.127 -0.3455 -1.1045 -1.6424
   61CHL1   C11 5654   1.545   0.751   3.978  0.3096  0.2988  0.2497
   61CHL1  H11A 5655   1.484   0.659   3.984 -2.6570  1.9857 -1.6333
   61CHL1  H11B 5656   1.473   0.819   3.928  0.1880 -1.6999 -2.5429
   61CHL1    C9 5657   1.664   0.723   3.888  1.0121  0.0386  0.5912
   61CHL1    H9 5658   1.704   0.823   3.860  0.3647 -0.3626 -2.0819
   61CHL1   C10 5659   1.621   0.667   3.743  0.4756  0.5667  0.3537
   61CHL1   C19 5660   1.540   0.535   3.755  0.5592  0.4485  0.1871
   61CHL1  H19A 5661   1.511   0.507   3.651  0.0280  1.1026  0.1524
   61CHL1  H19B 5662   1.608   0.458   3.796  0.3269 -0.2160 -0.6610
   61CHL1  H19C 5663   1.454   0.549   3.824 -0.1830 -1.1356 -0.3812
   61CHL1    C1 5664   1.517   0.760   3.685  0.5798 -0.2280 -0.2038
   61CHL1   H1A 5665   1.419   0.750   3.736  0.5483  0.5639 -0.0905
   61CHL1   H1B 5666   1.549   0.866   3.691 -1.0497  0.2027  1.8025
   61CHL1    C2 5667   1.475   0.745   3.534 -0.1402  0.2249 -0.6742
   61CHL1   H2A 5668   1.399   0.823   3.511 -2.2905 -1.6513 -0.3289
   61CHL1   H2B 5669   1.424   0.649   3.514 -1.2158  0.2816  1.5224
   61CHL1   C20 5670   1.692   0.754   4.449 -0.3855 -0.5836 -0.6754
   61CHL1   H20 5671   1.687   0.647   4.479 -1.7584 -0.8357 -1.7073
   61CHL1   C21 5672   1.553   0.824   4.460 -0.0061 -0.3622  0.3220
   61CHL1  H21A 5673   1.556   0.927   4.420 -0.5455 -0.7684 -0.8255
   61CHL1  H21B 5674   1.523   0.811   4.566  2.6660  0.0999  1.1876
   61CHL1  H21C 5675   1.493   0.755   4.396  1.9368 -2.5479  0.7369
   61CHL1   C22 5676   1.783   0.818   4.563  0.3492  0.8226 -0.1022
   61CHL1  H22A 5677   1.892   0.811   4.544  0.4847  0.0987  0.8970
   61CHL1  H22B 5678   1.759   0.926   4.573 -3.7248  0.2472 -1.7309
   61CHL1   C23 5679   1.772   0.744   4.698  0.7142 -0.9074 -0.1043
   61CHL1  H23A 5680   1.677   0.777   4.745  0.9462 -0.3569 -0.0198
   61CHL1  H23B 5681   1.763   0.633   4.690  1.2608 -0.8614 -2.0877
   61CHL1   C24 5682   1.886   0.777   4.798  0.1234  0.2430  0.0814
   61CHL1  H24A 5683   1.983   0.745   4.753  0.7158  1.2884  0.5691
   61CHL1  H24B 5684   1.896   0.888   4.803 -0.0605  0.2494  0.2972
   61CHL1   C25 5685   1.872   0.708   4.938  0.0911 -0.9090  0.3842
   61CHL1   H25 5686   1.775   0.742   4.982  0.3918 -0.6267  0.8406
   61CHL1   C26 5687   1.873   0.551   4.932 -0.1685  0.0162 -0.2440
   61CHL1  H26A 5688   1.859   0.524   5.039  0.9736  0.8742  0.1465
   61CHL1  H26B 5689   1.791   0.527   4.862 -1.4343  2.3084  0.3552
   61CHL1  H26C 5690   1.964   0.514   4.880 -0.0654 -0.2258  0.1060
   61CHL1   C27 5691   1.967   0.757   5.045 -0.2203  0.1015 -0.3992
   61CHL1  H27A 5692   2.068   0.728   5.009  0.1376  0.2022  0.4832
   61CHL1  H27B 5693   1.974   0.865   5.069  0.8974 -0.3632  1.6285
   61CHL1  H27C 5694   1.963   0.699   5.140  0.7892  1.8785  0.7740
   62CHL1    C3 5695   3.189   1.316   3.149  0.5139  0.6217 -0.3872
   62CHL1    H3 5696   3.147   1.410   3.190  0.2625  0.7339 -0.8899
   62CHL1    O3 5697   3.127   1.279   3.028 -0.2206 -0.4056 -0.1009
   62CHL1   H3' 5698   3.193   1.223   2.986  1.5425  1.3102  0.2520
   62CHL1    C4 5699   3.343   1.330   3.131  0.3040  0.4870  0.4005
   62CHL1   H4A 5700   3.379   1.243   3.072 -1.9540  0.1537 -0.5909
   62CHL1   H4B 5701   3.347   1.419   3.065  0.3092  0.4291  0.3232
   62CHL1    C5 5702   3.400   1.366   3.264 -0.1056 -0.3613 -0.5779
   62CHL1    C6 5703   3.454   1.491   3.291  0.0576 -0.0133  1.0193
   62CHL1    H6 5704   3.469   1.570   3.215  0.3632 -0.1389  0.9458
   62CHL1    C7 5705   3.527   1.514   3.417  0.3054  0.1812  0.3912
   62CHL1   H7A 5706   3.625   1.562   3.396  0.6462 -0.5960  0.1874
   62CHL1   H7B 5707   3.474   1.595   3.472 -1.4074 -0.2286 -0.5850
   62CHL1    C8 5708   3.546   1.398   3.518  0.8733  0.2591 -0.7349
   62CHL1    H8 5709   3.621   1.328   3.475  0.6190 -0.3457 -0.2105
   62CHL1   C14 5710   3.599   1.442   3.654 -0.0180  0.5878 -0.4798
   62CHL1   H14 5711   3.524   1.511   3.700  1.3112  0.4792  2.0375
   62CHL1   C15 5712   3.734   1.515   3.669 -0.0908  0.2686 -0.6868
   62CHL1  H15A 5713   3.815   1.450   3.630  0.4427  1.3190 -1.3716
   62CHL1  H15B 5714   3.738   1.610   3.612 -1.4630 -0.9797 -3.0147
   62CHL1   C16 5715   3.755   1.523   3.820  0.7401  0.4862 -0.3044
   62CHL1  H16A 5716   3.862   1.498   3.833  0.7668  1.2840  1.2570
   62CHL1  H16B 5717   3.735   1.624   3.864 -1.6693  0.2137 -0.6568
   62CHL1   C17 5718   3.659   1.413   3.882 -0.3231  0.4249  0.0983
   62CHL1   H17 5719   3.582   1.478   3.930  2.3174  1.6906  2.9683
   62CHL1   C13 5720   3.601   1.330   3.757 -0.5644  0.8327 -0.2041
   62CHL1   C18 5721   3.706   1.220   3.720  0.2087 -0.0514 -0.3617
   62CHL1  H18A 5722   3.815   1.244   3.725 -0.1184  1.3278  1.2588
   62CHL1  H18B 5723   3.692   1.129   3.782  1.8525 -0.8379 -1.0932
   62CHL1  H18C 5724   3.693   1.177   3.619  0.2625 -2.8719  0.7476
   62CHL1   C12 5725   3.467   1.262   3.771 -0.1517 -0.5763  0.2335
   62CHL1  H12A 5726   3.478   1.173   3.837  2.4656 -0.8163 -0.3974
   62CHL1  H12B 5727   3.397   1.334   3.818 -2.0590 -1.4391 -1.1310
   62CHL1   C11 5728   3.410   1.213   3.634 -0.7217  0.0701 -0.0167
   62CHL1  H11A 5729   3.477   1.130   3.603 -1.8119 -1.0318  0.4594
   62CHL1  H11B 5730   3.309   1.168   3.649 -0.2066 -0.8449  0.8811
   62CHL1    C9 5731   3.421   1.321   3.525 -0.7434  0.0616 -0.0146
   62CHL1    H9 5732   3.338   1.388   3.555 -1.1349 -0.9692  1.2771
   62CHL1   C10 5733   3.385   1.266   3.384 -0.0941 -0.0454  0.0464
   62CHL1   C19 5734   3.470   1.140   3.355  0.0868 -0.7485  0.0607
   62CHL1  H19A 5735   3.577   1.168   3.369 -0.3733  0.5528  1.1769
   62CHL1  H19B 5736   3.445   1.048   3.410 -2.3518  0.5506  1.2572
   62CHL1  H19C 5737   3.463   1.102   3.251  1.5675 -2.7106  0.6090
   62CHL1    C1 5738   3.235   1.234   3.386  0.2876  0.3493 -0.0937
   62CHL1   H1A 5739   3.234   1.138   3.441  0.7540  0.5180  0.2136
   62CHL1   H1B 5740   3.169   1.301   3.446 -0.5438 -1.0704  0.6192
   62CHL1    C2 5741   3.170   1.204   3.246 -0.3012 -0.0945  0.7258
   62CHL1   H2A 5742   3.060   1.184   3.244 -0.2174 -0.8535  1.9572
   62CHL1   H2B 5743   3.217   1.109   3.213 -0.0006  0.0688  0.6851
   62CHL1   C20 5744   3.722   1.330   4.000  0.6482 -0.2309  0.5544
   62CHL1   H20 5745   3.811   1.277   3.960  1.2252  0.2845  1.1394
   62CHL1   C21 5746   3.624   1.219   4.052  0.2445 -0.6617  0.0028
   62CHL1  H21A 5747   3.527   1.267   4.075  0.3664 -1.0301  1.3851
   62CHL1  H21B 5748   3.668   1.185   4.149 -0.5564  1.1919  1.0804
   62CHL1  H21C 5749   3.614   1.132   3.985  0.3586 -0.5553 -0.1544
   62CHL1   C22 5750   3.771   1.419   4.129  0.1851  0.2581 -0.4317
   62CHL1  H22A 5751   3.808   1.518   4.095  1.2109 -0.3070 -0.9935
   62CHL1  H22B 5752   3.682   1.437   4.193  0.0366 -0.9500 -0.2703
   62CHL1   C23 5753   3.881   1.353   4.219 -0.3094 -0.0552 -0.4170
   62CHL1  H23A 5754   3.846   1.256   4.261 -0.3780  0.7518  1.5176
   62CHL1  H23B 5755   3.967   1.321   4.157 -1.6589 -2.8145 -1.0240
   62CHL1   C24 5756   3.923   1.440   4.334  0.2804  0.1932  0.4482
   62CHL1  H24A 5757   3.969   1.534   4.296 -1.1532  0.4955 -0.6697
   62CHL1  H24B 5758   3.828   1.468   4.386 -0.8268  0.1879 -1.4646
   62CHL1   C25 5759   4.029   1.378   4.430  0.0551  0.5613 -1.0243
   62CHL1   H25 5760   4.127   1.361   4.382  0.8218 -0.7366  0.9074
   62CHL1   C26 5761   4.047   1.482   4.545  0.1682 -0.3998 -0.6986
   62CHL1  H26A 5762   4.059   1.584   4.504 -0.0574 -0.4922 -0.9978
   62CHL1  H26B 5763   3.958   1.480   4.613  0.9320 -0.2503  0.3349
   62CHL1  H26C 5764   4.137   1.462   4.607 -0.2325 -2.4457 -0.7068
   62CHL1   C27 5765   3.998   1.241   4.491  0.2666 -0.0958 -0.5448
   62CHL1  H27A 5766   3.963   1.158   4.425 -3.3258 -0.1331  1.1893
   62CHL1  H27B 5767   4.087   1.211   4.551 -1.8627 -1.7236  1.9669
   62CHL1  H27C 5768   3.916   1.259   4.564 -1.8750  1.4124 -3.1334
   63CHL1    C3 5769   0.440   4.105   3.131 -0.4251  0.2098  0.1431
   63CHL1    H3 5770   0.452   4.211   3.160  0.6471 -0.3426  1.8660
   63CHL1    O3 5771   0.477   4.096   2.989  0.0783 -0.0796 -0.3794
   63CHL1   H3' 5772   0.454   4.006   2.964  0.7272 -0.8381  1.5278
   63CHL1    C4 5773   0.536   4.007   3.205 -0.4973  0.5217 -0.1225
   63CHL1   H4A 5774   0.530   3.898   3.184 -0.5571  0.0971  1.9284
   63CHL1   H4B 5775   0.638   4.044   3.179  0.0039 -0.5037  0.3434
   63CHL1    C5 5776   0.518   4.015   3.362  0.4117  0.7108  0.2099
   63CHL1    C6 5777   0.616   4.036   3.455 -0.1993  0.5255  0.2719
   63CHL1    H6 5778   0.719   4.048   3.419 -0.4133 -1.2023 -1.0780
   63CHL1    C7 5779   0.594   4.035   3.602 -0.5508  0.4045 -0.3357
   63CHL1   H7A 5780   0.674   3.969   3.645 -0.2576  1.5819  1.0030
   63CHL1   H7B 5781   0.603   4.140   3.636  0.5085 -0.6439  3.0274
   63CHL1    C8 5782   0.452   3.988   3.646 -0.3536 -0.6837  0.2498
   63CHL1    H8 5783   0.444   3.877   3.653  0.8345 -0.9312 -1.6943
   63CHL1   C14 5784   0.426   4.034   3.788  0.3942 -0.8602  0.2964
   63CHL1   H14 5785   0.433   4.145   3.784  0.6534 -0.9077 -1.2798
   63CHL1   C15 5786   0.535   3.995   3.893  0.2769 -0.1951  0.6872
   63CHL1  H15A 5787   0.558   3.887   3.881  0.2601 -0.1149 -0.1087
   63CHL1  H15B 5788   0.622   4.062   3.876  0.4362  0.0762  2.4133
   63CHL1   C16 5789   0.457   4.025   4.027  0.1069  0.2746  0.8295
   63CHL1  H16A 5790   0.470   3.937   4.094  0.0299 -0.3889  0.0005
   63CHL1  H16B 5791   0.502   4.117   4.068 -2.5596  2.2245 -0.3228
   63CHL1   C17 5792   0.307   4.061   3.987 -0.7083  0.6815  0.2464
   63CHL1   H17 5793   0.318   4.170   3.969  1.5849  0.6157  0.8332
   63CHL1   C13 5794   0.290   4.005   3.846  0.1318  0.6543 -0.2729
   63CHL1   C18 5795   0.267   3.850   3.857 -0.8935 -0.1595 -0.5006
   63CHL1  H18A 5796   0.284   3.800   3.760  1.6145  0.4757 -0.4638
   63CHL1  H18B 5797   0.326   3.793   3.933 -3.0291 -0.5873  0.9201
   63CHL1  H18C 5798   0.162   3.830   3.885 -0.8294 -0.5512 -0.5230
   63CHL1   C12 5799   0.180   4.065   3.755 -0.5190 -0.5256  0.6059
   63CHL1  H12A 5800   0.080   4.022   3.780 -0.3838 -0.0926  1.9626
   63CHL1  H12B 5801   0.172   4.175   3.767 -0.6728 -0.3009 -1.2408
   63CHL1   C11 5802   0.200   4.035   3.609 -0.2240  0.3352  0.2220
   63CHL1  H11A 5803   0.167   3.931   3.586 -0.9098  0.9566 -1.8238
   63CHL1  H11B 5804   0.133   4.096   3.544 -0.0503  0.4612  0.1594
   63CHL1    C9 5805   0.348   4.047   3.554 -0.6978  0.2575 -0.2370
   63CHL1    H9 5806   0.369   4.156   3.560  2.5241 -0.3370  1.1246
   63CHL1   C10 5807   0.371   3.997   3.404  0.2607  0.5837 -0.3792
   63CHL1   C19 5808   0.344   3.838   3.397 -0.2290  0.2147  0.0872
   63CHL1  H19A 5809   0.240   3.811   3.423 -0.8968  1.4586 -1.1104
   63CHL1  H19B 5810   0.355   3.802   3.292 -0.2269 -0.5627  0.3483
   63CHL1  H19C 5811   0.404   3.763   3.453 -0.6178  0.8132  1.3478
   63CHL1    C1 5812   0.269   4.073   3.308 -0.4762 -0.5175 -0.1046
   63CHL1   H1A 5813   0.161   4.050   3.322 -0.5092 -0.0362  0.4664
   63CHL1   H1B 5814   0.282   4.180   3.331 -1.0660 -0.4630 -0.0132
   63CHL1    C2 5815   0.299   4.062   3.159  0.0849  0.0086  0.6556
   63CHL1   H2A 5816   0.220   4.116   3.101  1.8574  0.2895 -1.6807
   63CHL1   H2B 5817   0.296   3.954   3.134  2.9117  0.4514 -2.3987
   63CHL1   C20 5818   0.198   4.041   4.095 -0.3210 -0.2862  0.3744
   63CHL1   H20 5819   0.177   3.936   4.124 -1.7069 -0.4042 -0.9188
   63CHL1   C21 5820   0.056   4.086   4.041 -0.2138  0.3427  0.0362
   63CHL1  H21A 5821   0.011   4.012   3.972  0.9999  1.4215 -1.9869
   63CHL1  H21B 5822   0.042   4.188   3.999 -1.4326  0.3244  0.3504
   63CHL1  H21C 5823  -0.024   4.083   4.119 -1.0255 -0.6804 -0.8008
   63CHL1   C22 5824   0.225   4.104   4.235 -0.1744 -0.2945  0.3629
   63CHL1  H22A 5825   0.319   4.059   4.272  0.5449 -1.3491 -2.5605
   63CHL1  H22B 5826   0.253   4.209   4.210  2.0438 -0.7505  0.7362
   63CHL1   C23 5827   0.116   4.102   4.337  0.3772  0.0544  0.2801
   63CHL1  H23A 5828   0.040   4.179   4.309  0.6370  0.3719  0.4402
   63CHL1  H23B 5829   0.069   4.002   4.346  2.0390 -0.6606  1.3726
   63CHL1   C24 5830   0.170   4.138   4.481 -0.5313 -0.5177  0.7312
   63CHL1  H24A 5831   0.231   4.053   4.517 -0.3727 -1.5152 -1.6731
   63CHL1  H24B 5832   0.238   4.226   4.477  2.9418 -3.0177 -1.5236
   63CHL1   C25 5833   0.055   4.161   4.583  0.2517  0.3723  0.1944
   63CHL1   H25 5834  -0.004   4.067   4.571  0.5961  0.2383 -0.5062
   63CHL1   C26 5835   0.088   4.171   4.729 -0.3456 -0.7765 -0.4416
   63CHL1  H26A 5836   0.147   4.263   4.747 -1.8046 -0.0587  0.8818
   63CHL1  H26B 5837  -0.002   4.183   4.793 -0.5032  0.2565 -0.8344
   63CHL1  H26C 5838   0.155   4.091   4.769  1.7836  0.4070 -1.4625
   63CHL1   C27 5839  -0.033   4.285   4.547  0.4961 -1.0842 -0.3112
   63CHL1  H27A 5840  -0.120   4.288   4.617  0.2949 -2.8471 -0.4583
   63CHL1  H27B 5841   0.009   4.388   4.547 -0.4336 -0.6854  0.4563
   63CHL1  H27C 5842  -0.084   4.265   4.450 -0.8047 -0.8553  0.2985
   64CHL1    C3 5843   3.884   4.716   2.935 -0.0604  0.1690 -0.3915
   64CHL1    H3 5844   3.777   4.740   2.951  0.8600  2.3394  4.2108
   64CHL1    O3 5845   3.916   4.684   2.803  0.2037 -0.5921 -0.7785
   64CHL1   H3' 5846   3.985   4.618   2.810 -0.6474 -1.3755  0.7718
   64CHL1    C4 5847   3.967   4.837   2.981 -0.0829 -0.3692  0.3967
   64CHL1   H4A 5848   4.074   4.807   2.976  0.8714  2.6139  1.3681
   64CHL1   H4B 5849   3.955   4.915   2.903 -0.4869 -1.6699 -0.8890
   64CHL1    C5 5850   3.933   4.886   3.126 -0.8268  0.4675  0.5976
   64CHL1    C6 5851   3.893   5.002   3.168 -0.5561 -0.0408 -0.0249
   64CHL1    H6 5852   3.885   5.086   3.097  1.4009 -0.1528 -0.4392
   64CHL1    C7 5853   3.871   5.042   3.306 -0.4358  0.0147  0.1449
   64CHL1   H7A 5854   3.910   5.143   3.329 -2.0690  0.5959  0.5422
   64CHL1   H7B 5855   3.765   5.042   3.339  0.2639  0.9922  2.5833
   64CHL1    C8 5856   3.936   4.948   3.408  0.2213 -0.2074  0.4493
   64CHL1    H8 5857   4.044   4.976   3.410  0.3733 -0.8048  1.4281
   64CHL1   C14 5858   3.872   4.976   3.543  0.4178 -0.1523  0.1913
   64CHL1   H14 5859   3.765   4.952   3.527  0.2256  1.7722 -1.8385
   64CHL1   C15 5860   3.882   5.120   3.603 -0.3384  0.3013 -0.4482
   64CHL1  H15A 5861   3.979   5.154   3.562 -0.6095  1.0482 -0.5002
   64CHL1  H15B 5862   3.793   5.174   3.564  0.1349  1.3361 -0.1269
   64CHL1   C16 5863   3.880   5.094   3.755  0.3676  0.0159  0.0561
   64CHL1  H16A 5864   3.975   5.124   3.804 -0.1958  2.0544 -0.0257
   64CHL1  H16B 5865   3.803   5.158   3.802 -0.0633  0.5795 -1.3482
   64CHL1   C17 5866   3.847   4.944   3.775  0.6845 -0.7607  0.2442
   64CHL1   H17 5867   3.738   4.941   3.759  0.7257 -1.7520  0.0980
   64CHL1   C13 5868   3.914   4.879   3.650  0.2971 -0.1159  0.2766
   64CHL1   C18 5869   4.065   4.888   3.688 -0.0432 -0.3024 -0.0064
   64CHL1  H18A 5870   4.089   4.989   3.729 -0.2209 -0.4764  0.5431
   64CHL1  H18B 5871   4.091   4.820   3.773 -0.4567 -0.8910 -0.3430
   64CHL1  H18C 5872   4.131   4.866   3.602  0.9140 -1.3785  0.9670
   64CHL1   C12 5873   3.875   4.739   3.619  0.3450 -1.2242  0.2214
   64CHL1  H12A 5874   3.903   4.664   3.695  0.7134 -2.1833 -0.8347
   64CHL1  H12B 5875   3.766   4.737   3.594 -0.0435 -0.3237  1.7362
   64CHL1   C11 5876   3.940   4.699   3.483  0.3552  0.2661  0.7838
   64CHL1  H11A 5877   4.050   4.682   3.493  0.2679 -1.3283 -0.6007
   64CHL1  H11B 5878   3.895   4.600   3.463 -0.6019  0.6078  1.1745
   64CHL1    C9 5879   3.911   4.803   3.368 -0.5539  0.6735  0.7083
   64CHL1    H9 5880   3.800   4.796   3.368 -0.5805  0.3265  3.0735
   64CHL1   C10 5881   3.964   4.771   3.225  0.0456  0.2697  0.6458
   64CHL1   C19 5882   4.114   4.747   3.245  0.0706 -0.1069 -0.3976
   64CHL1  H19A 5883   4.174   4.838   3.265  1.4911 -0.4069 -2.8952
   64CHL1  H19B 5884   4.117   4.657   3.310  0.5558  0.2500  0.0870
   64CHL1  H19C 5885   4.156   4.712   3.148 -0.9778  2.1300 -1.7339
   64CHL1    C1 5886   3.902   4.635   3.173  0.0527 -0.0701 -0.5237
   64CHL1   H1A 5887   3.938   4.560   3.247  2.5996  2.3377  0.9033
   64CHL1   H1B 5888   3.794   4.652   3.191  0.0706 -2.1527  2.1387
   64CHL1    C2 5889   3.913   4.593   3.019  0.1787 -0.0459 -0.6709
   64CHL1   H2A 5890   3.847   4.505   3.004 -1.0842  0.5086  1.2067
   64CHL1   H2B 5891   4.021   4.569   3.015  0.3980  0.9398 -0.6763
   64CHL1   C20 5892   3.871   4.886   3.913  0.7021  0.0712 -1.4077
   64CHL1   H20 5893   3.976   4.853   3.924  0.4396 -0.3489  0.0716
   64CHL1   C21 5894   3.761   4.769   3.930  0.6720  0.4349  0.5045
   64CHL1  H21A 5895   3.744   4.710   3.838 -0.7197 -0.9259  1.5910
   64CHL1  H21B 5896   3.661   4.806   3.962  0.2213 -0.9960  0.8290
   64CHL1  H21C 5897   3.795   4.709   4.017 -2.6033 -0.3333  1.4098
   64CHL1   C22 5898   3.841   4.989   4.027 -0.1850 -0.0311  0.3135
   64CHL1  H22A 5899   3.920   5.067   4.030 -0.2956  0.1885 -1.2502
   64CHL1  H22B 5900   3.745   5.043   4.012 -0.2565 -0.5485 -1.2921
   64CHL1   C23 5901   3.839   4.918   4.161  0.6149 -0.5813 -0.0917
   64CHL1  H23A 5902   3.740   4.867   4.167  1.8687 -3.2438 -0.4522
   64CHL1  H23B 5903   3.918   4.840   4.165 -1.9540 -3.3444  0.0825
   64CHL1   C24 5904   3.862   5.011   4.276 -0.0161 -0.0779  0.1252
   64CHL1  H24A 5905   3.957   5.066   4.264 -0.0133 -0.3206 -1.0148
   64CHL1  H24B 5906   3.778   5.084   4.275 -1.0501 -1.2273 -1.1328
   64CHL1   C25 5907   3.852   4.954   4.420  0.3017  0.3713 -0.6363
   64CHL1   H25 5908   3.761   4.891   4.418 -0.5858  1.3531  2.6788
   64CHL1   C26 5909   3.974   4.878   4.461  0.4191  0.4035 -0.2040
   64CHL1  H26A 5910   4.062   4.945   4.474  0.9893 -0.8566  3.9708
   64CHL1  H26B 5911   3.971   4.821   4.556  3.2896  0.1417 -0.1722
   64CHL1  H26C 5912   4.000   4.807   4.380 -0.7980  0.3788 -0.5868
   64CHL1   C27 5913   3.828   5.065   4.516  0.4093 -0.2519 -0.1245
   64CHL1  H27A 5914   3.833   5.025   4.619  1.5449  0.6352  0.1848
   64CHL1  H27B 5915   3.913   5.137   4.510  0.2380 -0.0458 -0.0684
   64CHL1  H27C 5916   3.741   5.130   4.494  1.1950  0.2642 -1.9457
   65CHL1    C3 5917   2.917   2.407   3.470 -0.8160 -0.2823  0.8619
   65CHL1    H3 5918   3.026   2.400   3.448 -1.1445  1.1909 -1.5569
   65CHL1    O3 5919   2.854   2.434   3.350  0.0038 -0.5544 -0.6498
   65CHL1   H3' 5920   2.917   2.470   3.287 -0.0046  1.1665  0.2584
   65CHL1    C4 5921   2.886   2.272   3.528 -0.0094 -1.1709  0.2713
   65CHL1   H4A 5922   2.777   2.272   3.547 -0.1625 -0.0928 -0.5142
   65CHL1   H4B 5923   2.913   2.199   3.448 -0.2131  1.0557 -1.9686
   65CHL1    C5 5924   2.965   2.251   3.651  0.9987 -0.4255 -0.3715
   65CHL1    C6 5925   3.046   2.137   3.656 -0.6386 -0.6308 -0.7524
   65CHL1    H6 5926   3.067   2.087   3.561 -1.2187 -1.9855 -0.1883
   65CHL1    C7 5927   3.128   2.087   3.773  0.5172 -0.0341 -0.3420
   65CHL1   H7A 5928   3.116   1.977   3.785  1.7605  0.0145  2.0631
   65CHL1   H7B 5929   3.237   2.109   3.763  0.3224  0.8283 -0.5986
   65CHL1    C8 5930   3.072   2.162   3.898 -0.9027  0.4166 -0.0809
   65CHL1    H8 5931   2.974   2.114   3.918 -2.2470  2.4638 -1.3326
   65CHL1   C14 5932   3.167   2.139   4.013 -0.5211 -0.4128  0.3427
   65CHL1   H14 5933   3.262   2.188   3.984 -0.8970  0.0990 -0.0500
   65CHL1   C15 5934   3.208   1.991   4.049 -0.4602 -0.1382  0.2831
   65CHL1  H15A 5935   3.116   1.931   4.032 -0.0153 -0.6634 -0.3458
   65CHL1  H15B 5936   3.285   1.955   3.978 -2.3244 -0.9766 -1.4236
   65CHL1   C16 5937   3.262   2.000   4.195 -0.6923 -0.1859  0.4667
   65CHL1  H16A 5938   3.202   1.925   4.252  0.0156  0.1107  1.6224
   65CHL1  H16B 5939   3.369   1.974   4.208  0.2229  3.2016  0.5432
   65CHL1   C17 5940   3.242   2.143   4.240 -0.4598 -0.4208 -0.9226
   65CHL1   H17 5941   3.334   2.203   4.224  0.0078  0.1159  2.7702
   65CHL1   C13 5942   3.134   2.209   4.150 -1.2086 -0.0109  0.5671
   65CHL1   C18 5943   2.989   2.142   4.190 -0.7081  0.4919 -0.2218
   65CHL1  H18A 5944   3.006   2.033   4.178  0.4071  0.7332 -1.0603
   65CHL1  H18B 5945   2.965   2.171   4.295  0.5254 -1.1803  0.5704
   65CHL1  H18C 5946   2.907   2.166   4.120  0.2046  0.5694 -1.2931
   65CHL1   C12 5947   3.128   2.361   4.128 -0.4230 -0.4578  0.9749
   65CHL1  H12A 5948   3.098   2.422   4.216 -2.6844  2.4446 -1.5718
   65CHL1  H12B 5949   3.233   2.390   4.108 -0.6385 -1.2027 -1.6367
   65CHL1   C11 5950   3.031   2.398   4.013 -0.8782  0.2382  0.4384
   65CHL1  H11A 5951   2.927   2.378   4.049 -1.4640 -0.4116 -1.5182
   65CHL1  H11B 5952   3.049   2.498   3.969  1.4635 -0.8894 -1.3267
   65CHL1    C9 5953   3.057   2.318   3.879  0.1146  0.1216  0.1237
   65CHL1    H9 5954   3.161   2.339   3.845  0.2136 -1.1322 -0.4201
   65CHL1   C10 5955   2.952   2.347   3.772 -1.0959 -0.1953 -1.1032
   65CHL1   C19 5956   2.810   2.346   3.830 -0.1368  0.0810 -0.3543
   65CHL1  H19A 5957   2.799   2.262   3.901  0.2185  0.3964  0.0750
   65CHL1  H19B 5958   2.791   2.437   3.891  1.6471  0.7948 -0.8150
   65CHL1  H19C 5959   2.729   2.341   3.754 -0.4919  0.3081  0.0090
   65CHL1    C1 5960   2.979   2.486   3.709  0.0622  0.3040  0.0883
   65CHL1   H1A 5961   2.964   2.566   3.785 -1.7953 -0.0684  0.1549
   65CHL1   H1B 5962   3.086   2.479   3.682  0.0250  1.0938 -0.2891
   65CHL1    C2 5963   2.899   2.513   3.573  0.0742 -0.8234  0.0054
   65CHL1   H2A 5964   2.942   2.612   3.547 -1.5123  0.1275  0.8979
   65CHL1   H2B 5965   2.791   2.525   3.595 -0.3991  1.4271 -2.8796
   65CHL1   C20 5966   3.227   2.158   4.394  0.0832 -0.0989 -0.1187
   65CHL1   H20 5967   3.132   2.115   4.433  0.4083 -0.0682  0.7273
   65CHL1   C21 5968   3.227   2.305   4.434 -0.3816  0.7106  0.5092
   65CHL1  H21A 5969   3.132   2.348   4.396  0.7895  2.4347 -0.6488
   65CHL1  H21B 5970   3.312   2.356   4.384  1.8313 -1.5329  1.7682
   65CHL1  H21C 5971   3.245   2.302   4.543 -1.4745 -3.8939  0.7999
   65CHL1   C22 5972   3.333   2.073   4.477  0.5173  0.7672  0.1165
   65CHL1  H22A 5973   3.312   1.968   4.448  0.8650  0.7236  0.0230
   65CHL1  H22B 5974   3.435   2.108   4.452  0.8120  0.0252  0.2744
   65CHL1   C23 5975   3.306   2.061   4.624  0.2769 -0.0486  0.1173
   65CHL1  H23A 5976   3.338   2.159   4.665 -0.0486 -0.1405  0.6001
   65CHL1  H23B 5977   3.197   2.040   4.636 -0.1126  0.9657 -1.3419
   65CHL1   C24 5978   3.391   1.951   4.698 -0.4847 -0.4468  0.9008
   65CHL1  H24A 5979   3.374   1.857   4.641  2.6220  0.3939 -1.7351
   65CHL1  H24B 5980   3.501   1.966   4.701 -0.7238  1.7291  0.1307
   65CHL1   C25 5981   3.359   1.933   4.842  0.1178 -0.1205 -0.4983
   65CHL1   H25 5982   3.250   1.924   4.859 -0.3403 -3.7082 -3.7418
   65CHL1   C26 5983   3.397   1.793   4.887 -0.0895 -0.4685 -0.5539
   65CHL1  H26A 5984   3.378   1.780   4.995 -1.0979  0.6619 -0.5827
   65CHL1  H26B 5985   3.342   1.718   4.826 -2.0550  0.8328 -0.4573
   65CHL1  H26C 5986   3.507   1.787   4.873  0.1156  1.1609  0.1659
   65CHL1   C27 5987   3.421   2.046   4.929 -0.2558 -0.2847 -0.0159
   65CHL1  H27A 5988   3.398   2.153   4.910  0.4473  0.3476  2.3671
   65CHL1  H27B 5989   3.397   2.040   5.037  1.5340 -1.4335  0.3643
   65CHL1  H27C 5990   3.532   2.045   4.925 -0.2491 -0.6361  0.2735
   66CHL1    C3 5991   0.943   0.617   3.380 -0.1839  0.1163 -0.3237
   66CHL1    H3 5992   0.865   0.688   3.416  0.5261  1.1234 -0.7102
   66CHL1    O3 5993   0.956   0.610   3.235 -0.1310 -0.3502  0.0600
   66CHL1   H3' 5994   0.872   0.565   3.219 -1.2813  0.7904  2.3402
   66CHL1    C4 5995   1.077   0.681   3.437  0.2806 -0.1009  0.5314
   66CHL1   H4A 5996   1.158   0.622   3.388  1.0265  0.8816  0.5433
   66CHL1   H4B 5997   1.077   0.781   3.388 -1.0027 -0.7571 -0.8757
   66CHL1    C5 5998   1.083   0.691   3.589 -0.8918  1.1139  0.0089
   66CHL1    C6 5999   1.105   0.808   3.647  0.5325  1.1089  0.5519
   66CHL1    H6 6000   1.119   0.886   3.570 -0.7077  0.6351 -0.1723
   66CHL1    C7 6001   1.114   0.822   3.792  0.2996 -0.1264  0.2535
   66CHL1   H7A 6002   1.200   0.887   3.822 -0.4542  0.3929  1.3804
   66CHL1   H7B 6003   1.029   0.882   3.831  1.9668  1.2322  1.9641
   66CHL1    C8 6004   1.121   0.681   3.869  1.3592  0.4453 -0.5245
   66CHL1    H8 6005   1.222   0.637   3.857  1.6952  0.7928  0.8851
   66CHL1   C14 6006   1.075   0.698   4.012 -0.4810 -0.0442 -0.8369
   66CHL1   H14 6007   0.969   0.732   4.008  0.0223  1.6564 -0.5746
   66CHL1   C15 6008   1.150   0.809   4.091  0.0291  0.2567  0.3961
   66CHL1  H15A 6009   1.260   0.818   4.072 -0.3297 -0.7597 -2.6874
   66CHL1  H15B 6010   1.106   0.909   4.072  0.8702  0.5566 -0.0392
   66CHL1   C16 6011   1.125   0.772   4.243  0.4459  0.2863 -0.1335
   66CHL1  H16A 6012   1.217   0.780   4.305  0.0231 -2.8213  1.0621
   66CHL1  H16B 6013   1.061   0.849   4.292  1.1796  0.8619 -0.0556
   66CHL1   C17 6014   1.057   0.628   4.243  0.2440  0.0193 -0.2186
   66CHL1   H17 6015   0.949   0.652   4.236  0.1639 -0.2956 -0.0798
   66CHL1   C13 6016   1.089   0.578   4.095  1.0733 -0.3181  0.0316
   66CHL1   C18 6017   1.228   0.530   4.098 -0.7338  0.0842 -1.1997
   66CHL1  H18A 6018   1.256   0.491   3.998  0.8565  2.5510 -1.8172
   66CHL1  H18B 6019   1.299   0.600   4.147 -2.8935  0.2342  1.9769
   66CHL1  H18C 6020   1.229   0.440   4.162 -1.9718  0.6775 -0.2988
   66CHL1   C12 6021   0.991   0.473   4.042  0.1665  0.0767 -0.6079
   66CHL1  H12A 6022   0.987   0.373   4.089 -0.3242 -0.7035 -2.2169
   66CHL1  H12B 6023   0.888   0.511   4.059  0.0881 -0.1193 -0.6437
   66CHL1   C11 6024   1.006   0.446   3.890  0.3431  0.0935 -0.1082
   66CHL1  H11A 6025   1.101   0.390   3.877  0.1312 -0.7803  1.8655
   66CHL1  H11B 6026   0.929   0.378   3.847  0.7318 -0.9322  0.7802
   66CHL1    C9 6027   1.028   0.575   3.808  0.4674 -0.5447 -0.0583
   66CHL1    H9 6028   0.931   0.629   3.809 -0.9005 -2.6900 -3.1624
   66CHL1   C10 6029   1.055   0.551   3.661 -0.2415  0.2105 -0.0519
   66CHL1   C19 6030   1.181   0.470   3.633  0.4809 -0.6117 -0.9572
   66CHL1  H19A 6031   1.206   0.468   3.524  0.2373 -1.5127 -1.0042
   66CHL1  H19B 6032   1.270   0.496   3.694 -0.7814  0.0400  0.6795
   66CHL1  H19C 6033   1.159   0.363   3.656 -0.5629 -0.2636 -0.2807
   66CHL1    C1 6034   0.930   0.478   3.596  0.7542 -0.8703  0.1851
   66CHL1   H1A 6035   0.926   0.368   3.616  0.9420 -1.1936 -1.4024
   66CHL1   H1B 6036   0.836   0.523   3.636  0.7724 -1.3480  0.7989
   66CHL1    C2 6037   0.921   0.480   3.444  0.1374  1.5367 -0.0325
   66CHL1   H2A 6038   0.831   0.427   3.404  0.4472  2.4674 -2.1318
   66CHL1   H2B 6039   1.004   0.421   3.398  2.1463  3.3265  1.0977
   66CHL1   C20 6040   1.074   0.538   4.363 -0.1271  0.6275  0.1307
   66CHL1   H20 6041   1.047   0.436   4.330 -1.7673  0.7339  1.0169
   66CHL1   C21 6042   0.977   0.581   4.476 -0.5501 -0.1044 -0.0897
   66CHL1  H21A 6043   1.023   0.552   4.573 -1.1564 -0.6453  0.0411
   66CHL1  H21B 6044   0.875   0.537   4.473 -0.4293 -0.4551  0.6952
   66CHL1  H21C 6045   0.963   0.691   4.470  0.4419 -0.0501 -2.0632
   66CHL1   C22 6046   1.212   0.545   4.423 -0.5620 -0.0370  0.2891
   66CHL1  H22A 6047   1.290   0.548   4.343 -0.5316  0.3056  0.3308
   66CHL1  H22B 6048   1.239   0.635   4.481 -0.5422 -0.3861  0.8245
   66CHL1   C23 6049   1.239   0.410   4.496 -0.1682  0.1972 -0.2501
   66CHL1  H23A 6050   1.150   0.380   4.554  0.6313 -2.0370 -0.0878
   66CHL1  H23B 6051   1.247   0.340   4.410  0.0080  2.1527 -1.8934
   66CHL1   C24 6052   1.372   0.415   4.577 -0.2056 -0.3107  0.1183
   66CHL1  H24A 6053   1.457   0.453   4.517  1.6976  0.1514  2.9236
   66CHL1  H24B 6054   1.355   0.497   4.650 -2.5511 -0.2210 -0.4484
   66CHL1   C25 6055   1.418   0.280   4.639 -0.1242 -0.3616 -0.4884
   66CHL1   H25 6056   1.343   0.251   4.716 -1.5834  2.1234 -0.8743
   66CHL1   C26 6057   1.429   0.176   4.528  0.0910  0.4671  0.0186
   66CHL1  H26A 6058   1.328   0.141   4.499 -0.6567  1.6049  1.1079
   66CHL1  H26B 6059   1.489   0.215   4.443  0.2367 -0.9266 -0.5300
   66CHL1  H26C 6060   1.483   0.087   4.565 -0.2539  0.7007  1.1202
   66CHL1   C27 6061   1.557   0.286   4.716 -0.4105 -0.0619 -0.0078
   66CHL1  H27A 6062   1.638   0.320   4.649  0.3363 -2.1038 -0.2060
   66CHL1  H27B 6063   1.592   0.185   4.748 -1.5266 -1.2809 -2.3494
   66CHL1  H27C 6064   1.547   0.366   4.792 -2.3089  0.6258 -0.9159
   67CHL1    C3 6065   0.373   4.538   3.543  0.7726 -0.2575 -0.1257
   67CHL1    H3 6066   0.465   4.598   3.563  3.0836 -2.9344 -1.9783
   67CHL1    O3 6067   0.370   4.490   3.411  0.5703  0.4017  0.5975
   67CHL1   H3' 6068   0.449   4.438   3.395  0.7766  0.4931  1.3024
   67CHL1    C4 6069   0.398   4.426   3.645  0.2303  0.5049 -0.1604
   67CHL1   H4A 6070   0.326   4.344   3.625  1.0122 -0.0944 -0.5723
   67CHL1   H4B 6071   0.495   4.374   3.632 -0.7210 -0.6167 -4.1677
   67CHL1    C5 6072   0.383   4.464   3.789  0.4129 -0.1615  0.4621
   67CHL1    C6 6073   0.470   4.421   3.878  0.0772 -0.5007 -0.0006
   67CHL1    H6 6074   0.558   4.359   3.859  0.8399  0.7452 -0.6504
   67CHL1    C7 6075   0.451   4.464   4.018  0.1027  0.2845  0.0561
   67CHL1   H7A 6076   0.489   4.380   4.080  0.1950 -1.8495 -2.7250
   67CHL1   H7B 6077   0.516   4.554   4.021  0.3916  0.0601  0.9693
   67CHL1    C8 6078   0.317   4.511   4.058  0.3943  0.1227 -0.6632
   67CHL1    H8 6079   0.257   4.417   4.057  0.3040  0.1572 -3.0469
   67CHL1   C14 6080   0.314   4.567   4.200  0.1088 -0.0476  0.0866
   67CHL1   H14 6081   0.393   4.645   4.197 -3.0410  3.4230  0.2151
   67CHL1   C15 6082   0.345   4.467   4.310 -0.4934  0.1694 -0.8443
   67CHL1  H15A 6083   0.275   4.381   4.312 -1.8905  1.2978  0.1294
   67CHL1  H15B 6084   0.449   4.429   4.300 -0.2782  0.1270  1.1266
   67CHL1   C16 6085   0.326   4.547   4.439 -0.2194  0.3169 -0.2894
   67CHL1  H16A 6086   0.277   4.488   4.520 -0.8450  1.7012  0.3842
   67CHL1  H16B 6087   0.414   4.593   4.488 -0.6272 -0.0822  0.8629
   67CHL1   C17 6088   0.238   4.671   4.399 -0.0435 -0.9454  0.6844
   67CHL1   H17 6089   0.314   4.750   4.381  1.9376 -2.6512  1.1158
   67CHL1   C13 6090   0.186   4.642   4.251 -0.0177  0.2995 -0.4410
   67CHL1   C18 6091   0.066   4.545   4.254 -0.5153  0.4647 -0.7547
   67CHL1  H18A 6092  -0.031   4.598   4.264 -1.7314 -1.4767 -1.6356
   67CHL1  H18B 6093   0.063   4.479   4.165  0.2517  0.3973 -0.7399
   67CHL1  H18C 6094   0.070   4.487   4.349  0.4241  1.7276  0.0177
   67CHL1   C12 6095   0.167   4.762   4.151  0.4392  0.9034 -0.5224
   67CHL1  H12A 6096   0.080   4.830   4.166  0.2021  0.3956  0.5118
   67CHL1  H12B 6097   0.266   4.810   4.160  1.8714 -2.2041  2.2441
   67CHL1   C11 6098   0.151   4.709   4.006  0.3600 -0.1147 -0.0301
   67CHL1  H11A 6099   0.058   4.650   4.000  0.0348  0.4783 -0.9918
   67CHL1  H11B 6100   0.123   4.794   3.940 -1.4127  0.3075  1.1901
   67CHL1    C9 6101   0.267   4.611   3.958 -0.6660  0.2756 -0.1574
   67CHL1    H9 6102   0.351   4.682   3.960 -1.0070  0.6723  0.3581
   67CHL1   C10 6103   0.259   4.553   3.812  0.7114 -0.3351 -0.5352
   67CHL1   C19 6104   0.137   4.464   3.810  0.9238 -0.3340  0.1043
   67CHL1  H19A 6105   0.123   4.423   3.707 -0.5211 -1.5660  0.7413
   67CHL1  H19B 6106   0.153   4.373   3.872  2.0984 -1.8991 -2.3097
   67CHL1  H19C 6107   0.035   4.502   3.834  0.1880 -2.7340  1.1040
   67CHL1    C1 6108   0.239   4.658   3.709 -0.1626 -0.2793  0.3559
   67CHL1   H1A 6109   0.154   4.728   3.727 -0.8415 -1.2168  0.8729
   67CHL1   H1B 6110   0.333   4.717   3.712  1.0544 -2.1518  1.1899
   67CHL1    C2 6111   0.237   4.612   3.564 -0.0462 -0.0452 -0.1378
   67CHL1   H2A 6112   0.237   4.698   3.494  0.9671 -0.9188 -1.2534
   67CHL1   H2B 6113   0.151   4.547   3.534 -0.7028 -0.4635  2.3596
   67CHL1   C20 6114   0.142   4.729   4.505 -0.7115 -0.5485  0.0875
   67CHL1   H20 6115   0.088   4.640   4.544  1.6407 -2.0662  0.0885
   67CHL1   C21 6116   0.033   4.832   4.440 -0.1691 -0.3061 -0.1438
   67CHL1  H21A 6117   0.084   4.921   4.398 -0.3479  0.2071  0.7239
   67CHL1  H21B 6118  -0.031   4.862   4.526 -0.6990  0.6377 -0.8454
   67CHL1  H21C 6119  -0.022   4.779   4.359 -0.8997 -2.2014  1.4950
   67CHL1   C22 6120   0.216   4.779   4.631  0.2520  0.1254 -0.2614
   67CHL1  H22A 6121   0.307   4.721   4.657 -0.6953 -0.6121  1.5914
   67CHL1  H22B 6122   0.262   4.876   4.604 -1.9772  1.7728  1.5067
   67CHL1   C23 6123   0.128   4.793   4.754  0.4237  0.3203 -0.3773
   67CHL1  H23A 6124   0.056   4.875   4.734 -1.1637 -1.4087 -2.2147
   67CHL1  H23B 6125   0.072   4.699   4.774  0.9879 -0.2648 -1.4663
   67CHL1   C24 6126   0.200   4.842   4.886  0.5020 -0.1533  0.7127
   67CHL1  H24A 6127   0.273   4.766   4.921 -0.5153 -2.0889 -1.1433
   67CHL1  H24B 6128   0.252   4.939   4.868 -1.7060  1.0333  0.2478
   67CHL1   C25 6129   0.103   4.882   5.003 -0.0440 -0.2606 -0.0594
   67CHL1   H25 6130   0.024   4.941   4.952 -0.7271 -0.8794  0.2758
   67CHL1   C26 6131   0.050   4.761   5.065  0.3578  0.0428 -0.8045
   67CHL1  H26A 6132  -0.017   4.703   4.998 -0.1488 -2.3004  1.5650
   67CHL1  H26B 6133   0.137   4.694   5.084  1.2248  0.6220 -2.4513
   67CHL1  H26C 6134  -0.006   4.785   5.157  0.0399  0.3218 -1.0690
   67CHL1   C27 6135   0.177   4.962   5.114  0.2806 -0.0305  0.0324
   67CHL1  H27A 6136   0.261   4.904   5.156 -0.0451 -2.8268 -2.8025
   67CHL1  H27B 6137   0.224   5.054   5.073 -0.7848  0.6229  0.2352
   67CHL1  H27C 6138   0.111   4.999   5.195 -1.6540 -1.6265 -0.7086
   68CHL1    C3 6139   4.143   0.390   3.208 -0.9190  0.2098 -0.8569
   68CHL1    H3 6140   4.038   0.413   3.235 -0.3757  0.9658  0.7308
   68CHL1    O3 6141   4.154   0.358   3.072  0.0332  0.5803  0.5501
   68CHL1   H3' 6142   4.138   0.264   3.067 -2.3708  0.9687 -0.7045
   68CHL1    C4 6143   4.216   0.518   3.245 -0.0957 -0.3267 -0.5817
   68CHL1   H4A 6144   4.319   0.511   3.205 -0.7182 -0.2935 -2.2541
   68CHL1   H4B 6145   4.175   0.611   3.199 -0.1111  0.2972  0.6308
   68CHL1    C5 6146   4.226   0.547   3.400 -0.3842 -0.0295 -0.3469
   68CHL1    C6 6147   4.211   0.668   3.455  0.3188  0.7741  0.3995
   68CHL1    H6 6148   4.194   0.748   3.382 -3.1049  0.2112  0.4207
   68CHL1    C7 6149   4.227   0.693   3.603  0.2384 -0.3470  0.0400
   68CHL1   H7A 6150   4.267   0.793   3.628 -0.3259 -0.3400  0.9613
   68CHL1   H7B 6151   4.125   0.697   3.648 -0.4083  0.9697 -1.4644
   68CHL1    C8 6152   4.298   0.590   3.686  0.3138  0.6403 -0.2097
   68CHL1    H8 6153   4.408   0.592   3.673  0.4546  1.5833  0.9108
   68CHL1   C14 6154   4.257   0.605   3.833 -0.0102 -0.2997 -0.6876
   68CHL1   H14 6155   4.147   0.596   3.843  0.0490  0.9169  2.0580
   68CHL1   C15 6156   4.301   0.734   3.903  0.4175  1.3207 -0.0264
   68CHL1  H15A 6157   4.400   0.771   3.868  1.1272  1.2337  1.7867
   68CHL1  H15B 6158   4.220   0.807   3.883  1.4148  2.1326 -1.2627
   68CHL1   C16 6159   4.292   0.696   4.055  0.0466  0.5888 -0.1640
   68CHL1  H16A 6160   4.380   0.748   4.097 -0.4542 -0.4825  2.4478
   68CHL1  H16B 6161   4.207   0.743   4.109 -0.7088 -0.8071 -0.0669
   68CHL1   C17 6162   4.273   0.539   4.061 -0.4975  0.1516  0.1331
   68CHL1   H17 6163   4.164   0.515   4.059  0.1568 -3.3278 -0.1606
   68CHL1   C13 6164   4.312   0.486   3.917 -0.0939  0.2082 -0.0371
   68CHL1   C18 6165   4.470   0.480   3.918  0.7749 -0.2303 -0.1886
   68CHL1  H18A 6166   4.517   0.556   3.985  0.0950 -0.0612  0.1036
   68CHL1  H18B 6167   4.508   0.379   3.943  1.5652  0.2450  0.5969
   68CHL1  H18C 6168   4.509   0.498   3.816  0.0409 -0.3370 -0.4942
   68CHL1   C12 6169   4.251   0.350   3.876 -0.5871  0.5156 -0.2018
   68CHL1  H12A 6170   4.287   0.264   3.936  0.6016  0.8127 -0.4770
   68CHL1  H12B 6171   4.140   0.347   3.885 -0.5007 -2.2825  1.1024
   68CHL1   C11 6172   4.284   0.325   3.732 -0.4898  0.0797  0.2547
   68CHL1  H11A 6173   4.392   0.301   3.722 -0.0987  1.3311  1.2158
   68CHL1  H11B 6174   4.227   0.232   3.709  0.2528 -0.0350 -1.2224
   68CHL1    C9 6175   4.240   0.445   3.642 -0.2803 -0.1817  0.1310
   68CHL1    H9 6176   4.130   0.445   3.659 -0.1331 -0.4049  1.1600
   68CHL1   C10 6177   4.267   0.425   3.488  0.5872  0.1023  0.5200
   68CHL1   C19 6178   4.417   0.390   3.465 -0.0131 -0.6933 -0.2296
   68CHL1  H19A 6179   4.436   0.282   3.486 -0.0902 -0.4745  1.0301
   68CHL1  H19B 6180   4.443   0.415   3.360 -0.9292  1.3478 -0.0209
   68CHL1  H19C 6181   4.471   0.442   3.548 -0.3830 -0.6397 -0.0207
   68CHL1    C1 6182   4.181   0.306   3.440  0.2551  0.3030 -0.2434
   68CHL1   H1A 6183   4.211   0.217   3.498 -2.7768  0.4802  1.8613
   68CHL1   H1B 6184   4.078   0.333   3.475  0.1004 -0.3710 -0.1687
   68CHL1    C2 6185   4.192   0.264   3.295 -0.0388 -0.8190  0.0448
   68CHL1   H2A 6186   4.122   0.179   3.282 -1.8740  0.4768  0.9549
   68CHL1   H2B 6187   4.294   0.233   3.264 -1.2925 -0.9328 -4.8057
   68CHL1   C20 6188   4.343   0.459   4.181 -0.1626  0.2029  0.3028
   68CHL1   H20 6189   4.426   0.401   4.136 -1.4876 -1.4514 -0.1636
   68CHL1   C21 6190   4.249   0.346   4.233 -0.7548  1.3270 -0.0194
   68CHL1  H21A 6191   4.157   0.390   4.278 -1.0427 -0.5384  1.3627
   68CHL1  H21B 6192   4.294   0.285   4.314 -0.9351  0.7914 -0.3171
   68CHL1  H21C 6193   4.227   0.267   4.158  1.1952  2.0054 -1.3656
   68CHL1   C22 6194   4.404   0.554   4.288  0.9683  0.2428 -0.2725
   68CHL1  H22A 6195   4.493   0.589   4.232  1.1147 -1.0456 -0.8839
   68CHL1  H22B 6196   4.327   0.631   4.311 -0.6338 -1.4064  0.1465
   68CHL1   C23 6197   4.442   0.487   4.414 -0.2977 -0.2213  0.4222
   68CHL1  H23A 6198   4.357   0.470   4.484 -0.1964 -1.1469  0.3308
   68CHL1  H23B 6199   4.487   0.391   4.382 -1.0126 -1.2605  2.3663
   68CHL1   C24 6200   4.548   0.568   4.493 -0.0084  0.0753  0.8539
   68CHL1  H24A 6201   4.639   0.564   4.429 -0.3018 -0.1283  0.4437
   68CHL1  H24B 6202   4.513   0.669   4.523 -3.0072 -0.5771 -0.0338
   68CHL1   C25 6203   4.576   0.503   4.628  0.0864 -0.0595 -0.0328
   68CHL1   H25 6204   4.484   0.512   4.689  1.1239 -0.6525  1.7026
   68CHL1   C26 6205   4.627   0.353   4.637 -0.6728 -0.0471 -0.3648
   68CHL1  H26A 6206   4.646   0.319   4.741 -0.5341  2.8099  0.6142
   68CHL1  H26B 6207   4.560   0.280   4.587  0.8968 -2.2739  0.5978
   68CHL1  H26C 6208   4.723   0.354   4.580 -0.6457  0.7358 -0.3072
   68CHL1   C27 6209   4.680   0.579   4.699  0.0075 -0.3590 -0.4286
   68CHL1  H27A 6210   4.660   0.684   4.729  3.5275  0.3276  0.0139
   68CHL1  H27B 6211   4.692   0.529   4.797 -1.0957  1.7077  0.8267
   68CHL1  H27C 6212   4.780   0.581   4.649  0.4514 -4.1421  0.0189
   69CHL1    C3 6213   1.168   6.074   3.401 -0.1314 -0.9621 -0.8266
   69CHL1    H3 6214   1.077   6.130   3.432 -0.3011 -0.9474 -1.3509
   69CHL1    O3 6215   1.184   6.075   3.261  0.7664 -0.0972  1.1175
   69CHL1   H3' 6216   1.261   6.019   3.251 -0.1184 -1.0250 -1.0893
   69CHL1    C4 6217   1.295   6.143   3.455 -0.0704 -0.5702  0.0580
   69CHL1   H4A 6218   1.377   6.075   3.424  0.4931 -0.1045  0.5120
   69CHL1   H4B 6219   1.317   6.241   3.408 -3.2551 -0.4738 -1.5197
   69CHL1    C5 6220   1.296   6.145   3.606 -0.4478 -0.5377 -0.2012
   69CHL1    C6 6221   1.295   6.266   3.668  0.5431  0.3533  0.0276
   69CHL1    H6 6222   1.304   6.360   3.612  1.3425 -1.1377 -2.5154
   69CHL1    C7 6223   1.307   6.284   3.820 -0.0313 -0.6215  0.2203
   69CHL1   H7A 6224   1.381   6.363   3.843 -1.4738  1.0438 -0.5958
   69CHL1   H7B 6225   1.212   6.321   3.865  0.6618  1.6885 -0.1043
   69CHL1    C8 6226   1.335   6.149   3.892  0.4200 -0.7691  0.3211
   69CHL1    H8 6227   1.442   6.117   3.887  0.1292 -2.1052  1.9229
   69CHL1   C14 6228   1.318   6.155   4.043  0.0358 -0.4561 -0.3282
   69CHL1   H14 6229   1.213   6.189   4.049 -1.0893 -3.4536 -1.2394
   69CHL1   C15 6230   1.400   6.258   4.128 -0.2505  0.0478 -0.7566
   69CHL1  H15A 6231   1.507   6.242   4.103 -0.2408 -1.7928  0.2580
   69CHL1  H15B 6232   1.368   6.363   4.118  1.6628  0.7709  0.1478
   69CHL1   C16 6233   1.376   6.209   4.277 -0.0815 -0.4310 -0.5212
   69CHL1  H16A 6234   1.475   6.192   4.324  0.6805  2.9778 -0.6628
   69CHL1  H16B 6235   1.328   6.297   4.325  2.2683  1.3151 -1.2271
   69CHL1   C17 6236   1.290   6.082   4.274 -0.6058  0.1692 -0.3045
   69CHL1   H17 6237   1.181   6.103   4.266 -0.1466  2.6695 -0.6615
   69CHL1   C13 6238   1.324   6.030   4.127 -0.4211  0.1996 -0.6718
   69CHL1   C18 6239   1.459   5.970   4.125  0.0116  0.7564 -0.0924
   69CHL1  H18A 6240   1.465   5.866   4.162 -1.4968  0.5222 -0.4735
   69CHL1  H18B 6241   1.500   5.966   4.021 -1.6290 -0.2617 -0.7333
   69CHL1  H18C 6242   1.536   6.025   4.183 -0.2436  2.5820 -1.3886
   69CHL1   C12 6243   1.216   5.940   4.062 -1.4372 -0.4321 -0.1889
   69CHL1  H12A 6244   1.218   5.837   4.104  1.9624 -1.2575 -2.0490
   69CHL1  H12B 6245   1.122   5.994   4.088 -0.6819  1.3957 -1.1352
   69CHL1   C11 6246   1.240   5.903   3.909 -0.0801  0.1603  0.4414
   69CHL1  H11A 6247   1.335   5.846   3.908  0.8244  1.5924 -1.6061
   69CHL1  H11B 6248   1.159   5.835   3.874  0.9802 -1.2039  0.5202
   69CHL1    C9 6249   1.253   6.032   3.826 -0.0673 -0.7589  0.7618
   69CHL1    H9 6250   1.148   6.068   3.828  0.4480  0.8220  0.6204
   69CHL1   C10 6251   1.278   6.012   3.675  0.2220  0.4636  0.4024
   69CHL1   C19 6252   1.405   5.928   3.673 -0.0538  0.1082  0.4084
   69CHL1  H19A 6253   1.491   5.975   3.727  1.0896 -2.4291  0.9775
   69CHL1  H19B 6254   1.394   5.827   3.717  1.4699 -0.5553 -0.6509
   69CHL1  H19C 6255   1.434   5.902   3.569 -1.6106  0.1431 -0.0527
   69CHL1    C1 6256   1.159   5.938   3.609 -0.5564  0.0427 -0.1164
   69CHL1   H1A 6257   1.160   5.838   3.657 -0.7823  0.5331  0.9552
   69CHL1   H1B 6258   1.067   5.982   3.654  1.0325  1.3422  2.0533
   69CHL1    C2 6259   1.165   5.934   3.458  0.6913  0.2724  0.6353
   69CHL1   H2A 6260   1.071   5.889   3.420  1.3328 -0.7106  0.2033
   69CHL1   H2B 6261   1.251   5.879   3.416 -0.1822  0.7162 -1.9405
   69CHL1   C20 6262   1.313   5.999   4.404  0.2966  0.1428 -0.2838
   69CHL1   H20 6263   1.423   5.981   4.401  0.3706  0.7202 -1.5570
   69CHL1   C21 6264   1.227   5.868   4.388 -0.4479  0.4702  0.2546
   69CHL1  H21A 6265   1.117   5.884   4.376 -0.2172  0.0450 -3.4692
   69CHL1  H21B 6266   1.245   5.800   4.474 -1.9036 -0.3860 -0.0693
   69CHL1  H21C 6267   1.253   5.819   4.292 -1.9849  0.2061 -0.0619
   69CHL1   C22 6268   1.268   6.081   4.528 -0.0207  0.4024  0.4036
   69CHL1  H22A 6269   1.322   6.177   4.535  0.0579  0.3988 -0.0916
   69CHL1  H22B 6270   1.158   6.096   4.537 -0.5936 -2.5623 -0.3796
   69CHL1   C23 6271   1.315   6.014   4.660  0.4764  0.0143 -0.0264
   69CHL1  H23A 6272   1.247   5.930   4.686  0.2909 -0.2127 -1.1871
   69CHL1  H23B 6273   1.418   5.976   4.641 -0.5939 -2.3910 -1.5024
   69CHL1   C24 6274   1.317   6.118   4.775 -0.1294  1.0772 -0.1056
   69CHL1  H24A 6275   1.378   6.201   4.732  0.7310 -0.4052 -1.8664
   69CHL1  H24B 6276   1.214   6.140   4.811 -0.4697  0.4893 -0.6995
   69CHL1   C25 6277   1.399   6.064   4.903  0.3317  0.9668 -0.5153
   69CHL1   H25 6278   1.497   6.036   4.859  0.2355 -2.0340  0.9359
   69CHL1   C26 6279   1.411   6.173   5.003 -0.8467  0.2832  0.0515
   69CHL1  H26A 6280   1.464   6.136   5.092 -0.2169  0.3362 -0.2935
   69CHL1  H26B 6281   1.464   6.258   4.954 -3.2401  1.3173 -0.9128
   69CHL1  H26C 6282   1.311   6.209   5.037 -0.1313  1.6876  0.7813
   69CHL1   C27 6283   1.327   5.937   4.964  0.1897  0.1106  0.0101
   69CHL1  H27A 6284   1.297   5.871   4.881 -0.4567  2.4139 -1.6876
   69CHL1  H27B 6285   1.397   5.882   5.031 -0.9422 -0.0275  1.1195
   69CHL1  H27C 6286   1.243   5.961   5.033 -0.3100 -0.4436 -0.4093
   70CHL1    C3 6287   4.482   0.922   3.417  0.1078 -0.6485  0.1631
   70CHL1    H3 6288   4.388   0.888   3.467 -0.6141 -0.0346 -0.7495
   70CHL1    O3 6289   4.443   0.972   3.288  0.4727 -0.0065 -0.1159
   70CHL1   H3' 6290   4.522   0.975   3.234  0.8875 -0.7997  0.4198
   70CHL1    C4 6291   4.545   1.035   3.499  0.5569 -1.1345  0.2206
   70CHL1   H4A 6292   4.628   1.089   3.449  3.1722 -4.4351  0.6157
   70CHL1   H4B 6293   4.465   1.110   3.518  0.4953 -0.8163 -1.1956
   70CHL1    C5 6294   4.599   0.981   3.633  0.7124 -0.2054  0.7460
   70CHL1    C6 6295   4.556   1.034   3.747  0.4531  0.4082  0.0108
   70CHL1    H6 6296   4.487   1.120   3.744  1.5927  1.3314 -0.1941
   70CHL1    C7 6297   4.611   0.989   3.875 -0.2560  0.0773 -0.3737
   70CHL1   H7A 6298   4.645   1.084   3.922  1.4667  1.8256 -4.6222
   70CHL1   H7B 6299   4.538   0.935   3.939 -0.6838 -2.2407 -2.6611
   70CHL1    C8 6300   4.742   0.902   3.866 -0.0123  0.0117  0.5380
   70CHL1    H8 6301   4.820   0.976   3.838 -0.2763 -0.5963 -1.9763
   70CHL1   C14 6302   4.766   0.827   3.997 -0.1734  0.2089 -0.0118
   70CHL1   H14 6303   4.676   0.763   4.001  1.0038 -1.6140 -1.1527
   70CHL1   C15 6304   4.761   0.906   4.131 -0.1653  0.2645  0.7917
   70CHL1  H15A 6305   4.815   1.004   4.125  0.1641  0.0138 -0.6425
   70CHL1  H15B 6306   4.654   0.921   4.156 -0.4376  0.0199 -0.2093
   70CHL1   C16 6307   4.833   0.813   4.231 -0.5533  0.0792 -0.5496
   70CHL1  H16A 6308   4.906   0.883   4.279 -0.7396  1.2324 -1.8702
   70CHL1  H16B 6309   4.760   0.780   4.307  0.2438  0.1704  0.2724
   70CHL1   C17 6310   4.890   0.691   4.153  0.7262 -0.0791 -0.0107
   70CHL1   H17 6311   4.813   0.610   4.161 -2.2715  2.6229  0.5729
   70CHL1   C13 6312   4.885   0.737   4.003  0.0360  0.2449  0.1546
   70CHL1   C18 6313   5.015   0.820   3.982  0.2274 -0.6953  0.5378
   70CHL1  H18A 6314   5.027   0.900   4.058  0.5953  1.9061 -2.1130
   70CHL1  H18B 6315   5.100   0.751   3.999  1.2546  0.2684 -0.5174
   70CHL1  H18C 6316   5.026   0.851   3.876 -0.6529  0.5277  0.7777
   70CHL1   C12 6317   4.863   0.615   3.903 -0.0899 -0.1094 -0.3264
   70CHL1  H12A 6318   4.947   0.544   3.895  0.6392  0.7908 -0.8748
   70CHL1  H12B 6319   4.773   0.556   3.933  0.2505 -0.1839  0.5847
   70CHL1   C11 6320   4.832   0.676   3.760  0.1974 -0.2129 -0.3142
   70CHL1  H11A 6321   4.930   0.707   3.717  0.4663  2.9746  2.1616
   70CHL1  H11B 6322   4.797   0.590   3.700  0.2010 -0.5025  0.0974
   70CHL1    C9 6323   4.725   0.797   3.759 -0.2829 -0.4024  0.1378
   70CHL1    H9 6324   4.628   0.758   3.798  0.0225 -0.4453  0.8766
   70CHL1   C10 6325   4.697   0.862   3.621  0.3989  1.6143 -0.2270
   70CHL1   C19 6326   4.829   0.915   3.568 -0.1162 -0.2381  0.1334
   70CHL1  H19A 6327   4.822   0.953   3.464 -0.2849 -0.3346  0.1095
   70CHL1  H19B 6328   4.855   1.008   3.623 -0.5150 -0.7980  1.3240
   70CHL1  H19C 6329   4.915   0.846   3.563 -0.2681 -0.6662  2.3833
   70CHL1    C1 6330   4.633   0.753   3.536  0.2782 -0.0023  0.0410
   70CHL1   H1A 6331   4.702   0.667   3.525 -1.3343 -1.5896  1.6539
   70CHL1   H1B 6332   4.546   0.721   3.597  0.7644  1.2214  1.4519
   70CHL1    C2 6333   4.579   0.806   3.400 -0.9386  0.2356 -0.0826
   70CHL1   H2A 6334   4.526   0.720   3.355 -1.3078  0.1455  0.5172
   70CHL1   H2B 6335   4.667   0.838   3.340 -0.7074 -1.5440 -0.7434
   70CHL1   C20 6336   5.015   0.629   4.214  0.2589  0.0811  0.5923
   70CHL1   H20 6337   5.098   0.697   4.183  0.2130 -1.3458 -3.2328
   70CHL1   C21 6338   5.047   0.501   4.143  0.3881  0.4681 -0.7305
   70CHL1  H21A 6339   5.139   0.461   4.190 -0.8384 -0.9282  0.5702
   70CHL1  H21B 6340   5.066   0.519   4.035 -0.3771 -2.0746 -1.3665
   70CHL1  H21C 6341   4.966   0.425   4.153  2.6242 -2.0459 -0.7280
   70CHL1   C22 6342   4.999   0.615   4.369 -1.0967  0.4370  0.3998
   70CHL1  H22A 6343   5.008   0.716   4.414 -3.7744 -0.2342  2.6956
   70CHL1  H22B 6344   4.896   0.580   4.391 -1.0705 -1.3755 -1.9324
   70CHL1   C23 6345   5.097   0.520   4.441 -0.3579 -0.0069 -0.0289
   70CHL1  H23A 6346   5.089   0.419   4.396  0.0263  1.0186 -2.5132
   70CHL1  H23B 6347   5.198   0.560   4.420  0.2855 -1.2325  0.6685
   70CHL1   C24 6348   5.068   0.513   4.594  0.2428 -0.2651 -0.6034
   70CHL1  H24A 6349   5.091   0.607   4.650 -1.1814 -1.2011  1.6685
   70CHL1  H24B 6350   4.961   0.484   4.589  0.2861 -0.2348 -2.0520
   70CHL1   C25 6351   5.147   0.403   4.668 -0.0899 -0.4856 -0.2314
   70CHL1   H25 6352   5.125   0.304   4.621 -1.3566 -0.5990  0.5223
   70CHL1   C26 6353   5.305   0.431   4.679  0.3441 -0.1643  0.0279
   70CHL1  H26A 6354   5.314   0.531   4.725  2.9043  1.3046 -3.2720
   70CHL1  H26B 6355   5.361   0.361   4.745  1.6039  0.2386 -0.5906
   70CHL1  H26C 6356   5.350   0.427   4.578 -0.2242 -1.6061 -0.2010
   70CHL1   C27 6357   5.089   0.374   4.811 -1.0753 -0.0552 -0.9266
   70CHL1  H27A 6358   5.143   0.298   4.871 -1.4055 -1.3370 -2.2006
   70CHL1  H27B 6359   5.102   0.469   4.868  1.5584 -1.0320  0.2428
   70CHL1  H27C 6360   4.981   0.349   4.804 -0.7795 -1.1233 -2.1868
   71CHL1    C3 6361   2.344   0.082   3.182  0.4200 -0.7521 -0.1070
   71CHL1    H3 6362   2.251   0.033   3.219  0.1399 -0.1600 -0.0166
   71CHL1    O3 6363   2.327   0.095   3.042  0.4633 -0.4615 -0.1724
   71CHL1   H3' 6364   2.395   0.036   3.010 -0.3519 -0.8520 -1.2381
   71CHL1    C4 6365   2.364   0.231   3.240 -0.2272 -0.1889 -0.0810
   71CHL1   H4A 6366   2.430   0.290   3.173 -0.3284  0.0679  0.0435
   71CHL1   H4B 6367   2.266   0.282   3.229  0.6440  1.0464 -3.1750
   71CHL1    C5 6368   2.403   0.234   3.391 -0.4693 -0.1869  0.5964
   71CHL1    C6 6369   2.333   0.301   3.483  0.3006  0.3197 -0.1164
   71CHL1    H6 6370   2.252   0.369   3.455  0.4440  0.5883  0.1068
   71CHL1    C7 6371   2.377   0.310   3.631  0.8540  0.2669  0.3546
   71CHL1   H7A 6372   2.391   0.415   3.664 -0.2781  0.4974  0.1465
   71CHL1   H7B 6373   2.302   0.261   3.696 -0.6941  0.1294 -1.4234
   71CHL1    C8 6374   2.517   0.255   3.655  0.2646  0.2483 -1.2855
   71CHL1    H8 6375   2.588   0.334   3.621 -0.4656  1.0593 -0.9650
   71CHL1   C14 6376   2.557   0.235   3.805  0.0741 -0.2828  0.5158
   71CHL1   H14 6377   2.479   0.170   3.848  1.0070 -1.5091  0.3978
   71CHL1   C15 6378   2.558   0.372   3.890  0.5058  0.6788  0.4207
   71CHL1  H15A 6379   2.597   0.459   3.833  1.2449 -0.4297 -0.8017
   71CHL1  H15B 6380   2.453   0.395   3.920  0.3557  0.1178  0.3269
   71CHL1   C16 6381   2.645   0.337   4.011  0.0491  0.8835  0.1704
   71CHL1  H16A 6382   2.722   0.417   4.002 -1.4655  2.2142 -2.1678
   71CHL1  H16B 6383   2.583   0.341   4.103  1.2757 -1.2453  1.1587
   71CHL1   C17 6384   2.711   0.192   3.981  0.5610 -0.5422  0.1601
   71CHL1   H17 6385   2.637   0.124   4.029  1.1463 -0.4605  1.2029
   71CHL1   C13 6386   2.696   0.179   3.827 -0.3344  1.1090  0.2702
   71CHL1   C18 6387   2.801   0.264   3.754 -0.4807 -0.6592 -0.4952
   71CHL1  H18A 6388   2.825   0.362   3.800 -0.8586 -0.3979 -0.8463
   71CHL1  H18B 6389   2.896   0.206   3.751 -1.5570 -2.5972  0.6775
   71CHL1  H18C 6390   2.772   0.276   3.648 -0.3336 -0.9010 -0.5653
   71CHL1   C12 6391   2.683   0.039   3.777  0.0754  0.0149  0.1749
   71CHL1  H12A 6392   2.771  -0.023   3.806  0.5026  0.1992 -0.6629
   71CHL1  H12B 6393   2.600  -0.013   3.829  0.2593  0.3203  0.7834
   71CHL1   C11 6394   2.654   0.036   3.623 -0.9404  0.1767 -0.1235
   71CHL1  H11A 6395   2.744   0.077   3.571 -0.2534  0.0265  0.9193
   71CHL1  H11B 6396   2.644  -0.061   3.570  1.0618  0.2554 -0.7475
   71CHL1    C9 6397   2.532   0.121   3.585  0.2715 -0.4086  0.7400
   71CHL1    H9 6398   2.436   0.071   3.608  0.0603 -1.0354 -1.2890
   71CHL1   C10 6399   2.521   0.133   3.427  0.2782 -0.3378 -0.2211
   71CHL1   C19 6400   2.651   0.196   3.361  0.2539 -0.4980 -0.2775
   71CHL1  H19A 6401   2.684   0.290   3.411  0.3427 -0.2873 -0.7258
   71CHL1  H19B 6402   2.731   0.119   3.363 -0.4002 -1.3188 -2.5380
   71CHL1  H19C 6403   2.636   0.220   3.254 -2.0727  0.0748  0.1046
   71CHL1    C1 6404   2.496  -0.009   3.360 -0.2907 -0.7345 -0.4865
   71CHL1   H1A 6405   2.580  -0.079   3.379 -0.2050 -1.2917 -2.6807
   71CHL1   H1B 6406   2.404  -0.049   3.410  0.7586  0.1009  2.3055
   71CHL1    C2 6407   2.465   0.002   3.211  0.3342  0.3028 -0.4181
   71CHL1   H2A 6408   2.451  -0.102   3.175  2.0963  0.0377 -0.4473
   71CHL1   H2B 6409   2.556   0.037   3.157  0.1973  1.0436 -0.1720
   71CHL1   C20 6410   2.851   0.172   4.044  0.7095 -0.4216 -0.1575
   71CHL1   H20 6411   2.920   0.247   4.001  1.2662 -0.4983  0.5732
   71CHL1   C21 6412   2.908   0.030   4.013  0.9613  0.5511  0.0555
   71CHL1  H21A 6413   2.993   0.005   4.081  0.5463  1.1647  0.8202
   71CHL1  H21B 6414   2.948   0.040   3.910  0.0166 -0.7082 -0.4579
   71CHL1  H21C 6415   2.828  -0.046   4.021  1.4487  0.2459  3.9335
   71CHL1   C22 6416   2.849   0.205   4.195 -0.0895  0.2319  0.0928
   71CHL1  H22A 6417   2.952   0.201   4.236 -1.0389 -3.2393  2.6140
   71CHL1  H22B 6418   2.820   0.312   4.200  0.2600  0.2903  1.1824
   71CHL1   C23 6419   2.767   0.116   4.280 -0.0579  0.1897 -0.6594
   71CHL1  H23A 6420   2.668   0.165   4.269 -0.0369  1.0312  2.1806
   71CHL1  H23B 6421   2.757   0.014   4.237  0.5515  0.2008 -0.8362
   71CHL1   C24 6422   2.799   0.119   4.435  0.0346 -0.2277  0.4786
   71CHL1  H24A 6423   2.801   0.225   4.467 -0.4104 -0.0633 -0.0207
   71CHL1  H24B 6424   2.721   0.057   4.484 -1.5478 -0.0631 -1.6848
   71CHL1   C25 6425   2.943   0.063   4.459  0.8222 -0.6489 -0.0304
   71CHL1   H25 6426   3.023   0.127   4.415  1.0994 -0.7320  0.3392
   71CHL1   C26 6427   2.980   0.098   4.610 -0.1680  0.5916 -0.3508
   71CHL1  H26A 6428   2.925   0.022   4.671 -0.3085  1.3565  0.4861
   71CHL1  H26B 6429   3.086   0.073   4.629 -0.2352 -0.7888 -1.5920
   71CHL1  H26C 6430   2.967   0.205   4.635  3.6665  1.8443 -2.9404
   71CHL1   C27 6431   2.981  -0.080   4.419 -0.0771  0.0427  0.5093
   71CHL1  H27A 6432   3.090  -0.069   4.401  0.0932 -3.3530 -1.5504
   71CHL1  H27B 6433   2.968  -0.149   4.506  0.5127  0.9912  1.3737
   71CHL1  H27C 6434   2.935  -0.109   4.322  1.5794 -1.7447  0.1846
   72CHL1    C3 6435   1.925   4.564   2.836  0.3975  0.1599 -1.2383
   72CHL1    H3 6436   1.843   4.494   2.808 -1.0387  0.9489  0.8011
   72CHL1    O3 6437   1.972   4.625   2.720  0.0227  0.2378 -0.5338
   72CHL1   H3' 6438   2.056   4.664   2.745 -0.0695 -0.0521  0.2619
   72CHL1    C4 6439   1.873   4.676   2.931  0.1768 -0.0844  0.2416
   72CHL1   H4A 6440   1.962   4.742   2.941 -1.3315  2.0004  0.3104
   72CHL1   H4B 6441   1.795   4.736   2.882  0.9093  0.1763 -0.6290
   72CHL1    C5 6442   1.835   4.614   3.066 -0.6185  0.6592 -0.6918
   72CHL1    C6 6443   1.713   4.624   3.113 -0.1481 -0.7756  0.1105
   72CHL1    H6 6444   1.640   4.678   3.051 -0.4903  0.3948  1.4884
   72CHL1    C7 6445   1.664   4.571   3.246  0.3943  0.2547 -0.3199
   72CHL1   H7A 6446   1.593   4.632   3.305 -0.9096 -0.9078 -0.6475
   72CHL1   H7B 6447   1.610   4.476   3.227  1.4322  0.0477 -2.6283
   72CHL1    C8 6448   1.782   4.531   3.337 -0.7053  0.6800 -0.3632
   72CHL1    H8 6449   1.822   4.630   3.370  0.4428  0.9585 -2.3990
   72CHL1   C14 6450   1.732   4.448   3.459 -0.3916 -0.9302 -0.0964
   72CHL1   H14 6451   1.680   4.355   3.429 -0.8674 -0.6882 -0.0368
   72CHL1   C15 6452   1.635   4.519   3.556  0.4858  0.2739 -0.5385
   72CHL1  H15A 6453   1.679   4.619   3.575  2.3403 -0.4280 -0.8960
   72CHL1  H15B 6454   1.537   4.526   3.505 -0.0933  1.7102  0.6873
   72CHL1   C16 6455   1.640   4.435   3.686  0.2755 -0.7029 -0.6351
   72CHL1  H16A 6456   1.656   4.500   3.774  0.1347 -1.0685 -0.3342
   72CHL1  H16B 6457   1.546   4.376   3.696  0.5339 -1.1844 -0.9721
   72CHL1   C17 6458   1.761   4.343   3.675  0.1848  0.7422 -0.5004
   72CHL1   H17 6459   1.712   4.255   3.629 -0.8695  1.1149 -0.1287
   72CHL1   C13 6460   1.840   4.408   3.556 -0.0868  0.0604 -0.1009
   72CHL1   C18 6461   1.926   4.517   3.609  0.3562  0.2485  0.7021
   72CHL1  H18A 6462   2.023   4.479   3.646  0.6638  0.8487  0.5299
   72CHL1  H18B 6463   1.951   4.582   3.522 -1.3815  1.1543  0.8421
   72CHL1  H18C 6464   1.887   4.587   3.685  0.5841 -0.5165  1.5347
   72CHL1   C12 6465   1.926   4.304   3.472 -0.6519  0.2780 -0.1385
   72CHL1  H12A 6466   2.012   4.268   3.532 -0.4526  1.1069  0.0864
   72CHL1  H12B 6467   1.865   4.214   3.447  0.0135 -0.5610  1.1230
   72CHL1   C11 6468   1.980   4.382   3.349  0.4604 -0.1566 -0.0192
   72CHL1  H11A 6469   2.051   4.462   3.377 -0.3370 -0.3376  2.7913
   72CHL1  H11B 6470   2.032   4.306   3.286  0.4840 -0.2265  0.0852
   72CHL1    C9 6471   1.885   4.448   3.257  0.9861 -0.1191 -0.3994
   72CHL1    H9 6472   1.826   4.362   3.220  0.3851  0.8863 -1.8535
   72CHL1   C10 6473   1.940   4.520   3.132 -0.9936  0.1936 -0.4460
   72CHL1   C19 6474   2.047   4.616   3.186 -0.3340  0.0929  1.0620
   72CHL1  H19A 6475   2.141   4.567   3.221 -0.3896 -0.4942  0.4025
   72CHL1  H19B 6476   2.077   4.681   3.102 -1.4905 -2.5010 -1.5386
   72CHL1  H19C 6477   2.005   4.679   3.267 -2.8305  1.0097 -0.8121
   72CHL1    C1 6478   1.995   4.415   3.030  0.2112 -0.1013  0.8171
   72CHL1   H1A 6479   2.079   4.357   3.074 -0.3670 -1.8666 -0.3237
   72CHL1   H1B 6480   1.917   4.339   3.009 -0.4007  0.6764  0.1625
   72CHL1    C2 6481   2.041   4.475   2.898  0.3545  0.2313  0.5084
   72CHL1   H2A 6482   2.075   4.397   2.827  0.3748 -2.7767  3.5645
   72CHL1   H2B 6483   2.132   4.535   2.920  1.2428 -1.1341  0.6686
   72CHL1   C20 6484   1.829   4.302   3.808  0.0364  0.0343 -0.6110
   72CHL1   H20 6485   1.857   4.402   3.849  0.4410 -0.3963  0.1773
   72CHL1   C21 6486   1.952   4.216   3.773 -0.1359  0.0213 -0.9905
   72CHL1  H21A 6487   2.005   4.175   3.861 -0.5443  0.2589 -0.6280
   72CHL1  H21B 6488   2.018   4.290   3.722  0.3680  0.3161  0.0799
   72CHL1  H21C 6489   1.921   4.141   3.697  1.3170  1.1753 -2.8118
   72CHL1   C22 6490   1.739   4.246   3.919  0.4507  0.0585 -1.0416
   72CHL1  H22A 6491   1.637   4.289   3.917 -0.4550 -1.8705  0.8947
   72CHL1  H22B 6492   1.742   4.136   3.912 -1.0679 -0.0325 -0.4856
   72CHL1   C23 6493   1.791   4.269   4.058  0.0473 -0.0108 -0.0569
   72CHL1  H23A 6494   1.892   4.224   4.062  0.0278 -0.0087  0.8165
   72CHL1  H23B 6495   1.791   4.379   4.072 -0.3170 -0.1243  0.9983
   72CHL1   C24 6496   1.694   4.210   4.169  0.7277 -0.6786 -0.0512
   72CHL1  H24A 6497   1.601   4.270   4.175  1.5778  0.6680  0.1589
   72CHL1  H24B 6498   1.660   4.111   4.134 -1.0367  0.0154 -0.3851
   72CHL1   C25 6499   1.753   4.215   4.309  0.4915 -0.3096  0.5577
   72CHL1   H25 6500   1.768   4.320   4.341 -0.1879  0.3613 -1.2116
   72CHL1   C26 6501   1.640   4.157   4.410 -0.1143 -0.5525 -0.3308
   72CHL1  H26A 6502   1.672   4.153   4.517 -1.5430  1.0728  0.2206
   72CHL1  H26B 6503   1.555   4.229   4.417 -0.3454 -0.5938 -2.2842
   72CHL1  H26C 6504   1.598   4.059   4.381 -0.8128 -0.7963  1.3604
   72CHL1   C27 6505   1.883   4.132   4.328  0.0911  0.5171 -0.3200
   72CHL1  H27A 6506   1.874   4.027   4.293 -1.5675  0.8041 -0.8362
   72CHL1  H27B 6507   1.972   4.174   4.276  0.9919 -1.2904 -0.3205
   72CHL1  H27C 6508   1.916   4.137   4.434  0.5531 -0.0226 -0.4295
   73CHL1    C3 6509   3.750   6.708   3.449  0.3754  0.1785 -0.4079
   73CHL1    H3 6510   3.651   6.665   3.475  0.7387 -1.8507 -2.1043
   73CHL1    O3 6511   3.795   6.651   3.332  0.2878  0.0885  0.9037
   73CHL1   H3' 6512   3.864   6.709   3.299  0.9909 -0.3503  1.5489
   73CHL1    C4 6513   3.760   6.861   3.450  0.2380  0.3482  0.1769
   73CHL1   H4A 6514   3.864   6.891   3.425  0.5678  1.6680  2.8177
   73CHL1   H4B 6515   3.689   6.894   3.371 -1.0406 -2.4280  0.0451
   73CHL1    C5 6516   3.727   6.927   3.578  0.4241 -0.8141 -0.1976
   73CHL1    C6 6517   3.632   7.019   3.595 -0.6704  0.7011  0.1987
   73CHL1    H6 6518   3.572   7.052   3.508 -0.3149  2.8077  0.6990
   73CHL1    C7 6519   3.602   7.095   3.723  0.3933  0.5109 -0.9226
   73CHL1   H7A 6520   3.586   7.204   3.710 -0.2679  0.8271  1.9418
   73CHL1   H7B 6521   3.505   7.063   3.768  1.3009  0.7882  1.3834
   73CHL1    C8 6522   3.710   7.075   3.826  0.3147 -0.5524  0.6246
   73CHL1    H8 6523   3.793   7.142   3.795  1.5319 -2.1365  0.3156
   73CHL1   C14 6524   3.660   7.117   3.962  0.1471  0.0037  0.0008
   73CHL1   H14 6525   3.578   7.051   3.996  0.5598  0.3695  1.8409
   73CHL1   C15 6526   3.589   7.252   3.973 -0.1838  0.1077 -0.3593
   73CHL1  H15A 6527   3.660   7.325   3.929  0.6007  0.5313  1.4881
   73CHL1  H15B 6528   3.485   7.260   3.935 -0.6761 -0.4650  0.7957
   73CHL1   C16 6529   3.590   7.279   4.120  0.0713  0.1216 -0.1981
   73CHL1  H16A 6530   3.611   7.387   4.138 -0.7382  0.3477 -0.5749
   73CHL1  H16B 6531   3.489   7.255   4.158  0.3362  0.0309  0.4627
   73CHL1   C17 6532   3.698   7.184   4.181 -0.2624 -0.1564 -0.2080
   73CHL1   H17 6533   3.634   7.107   4.230 -0.0435  0.1976  0.6673
   73CHL1   C13 6534   3.773   7.116   4.070  0.7321 -0.3552 -0.9215
   73CHL1   C18 6535   3.895   7.202   4.032 -0.7832  0.0658  0.3290
   73CHL1  H18A 6536   3.958   7.221   4.121  0.5145 -0.7087 -0.4027
   73CHL1  H18B 6537   3.951   7.150   3.952 -1.2341  0.9361 -0.5694
   73CHL1  H18C 6538   3.860   7.298   3.990  0.9641 -0.1164 -1.6717
   73CHL1   C12 6539   3.817   6.972   4.094  0.1835  0.0309 -0.1855
   73CHL1  H12A 6540   3.906   6.975   4.161 -0.4765 -1.6643  0.8485
   73CHL1  H12B 6541   3.733   6.916   4.140 -0.8411  0.4519 -1.4805
   73CHL1   C11 6542   3.858   6.908   3.952  0.2921  0.6722  0.2284
   73CHL1  H11A 6543   3.961   6.946   3.939  0.2698  0.2906 -1.2895
   73CHL1  H11B 6544   3.867   6.798   3.964  1.5460  0.6762 -0.4663
   73CHL1    C9 6545   3.760   6.926   3.831 -0.0940 -0.2560  0.1585
   73CHL1    H9 6546   3.666   6.876   3.863 -1.4906  2.8703  1.3316
   73CHL1   C10 6547   3.813   6.886   3.693 -0.2282  0.4651  0.2096
   73CHL1   C19 6548   3.954   6.953   3.683 -0.4447 -0.0158  0.2872
   73CHL1  H19A 6549   4.031   6.907   3.748  0.3392 -0.4672 -0.9253
   73CHL1  H19B 6550   3.995   6.926   3.584 -2.3883  2.1637 -1.2285
   73CHL1  H19C 6551   3.957   7.064   3.694  1.9794 -0.2328  2.6968
   73CHL1    C1 6552   3.828   6.727   3.689  0.3692  0.0895 -0.7354
   73CHL1   H1A 6553   3.907   6.697   3.762 -1.0745 -1.3005  0.3291
   73CHL1   H1B 6554   3.739   6.686   3.741  0.2134  2.5603  1.1157
   73CHL1    C2 6555   3.843   6.663   3.555 -0.6183 -0.4155 -0.2103
   73CHL1   H2A 6556   3.838   6.553   3.570  1.4567 -0.4049  0.8978
   73CHL1   H2B 6557   3.949   6.675   3.527 -0.2749  1.5605  1.6852
   73CHL1   C20 6558   3.774   7.255   4.302  0.1074 -0.3714 -0.1408
   73CHL1   H20 6559   3.836   7.340   4.267 -1.0480 -0.1225 -1.7155
   73CHL1   C21 6560   3.869   7.158   4.373  0.4678  0.2490 -0.5352
   73CHL1  H21A 6561   3.904   7.215   4.462 -0.0069 -0.0337 -0.1649
   73CHL1  H21B 6562   3.960   7.122   4.321  0.0384  0.0668 -1.1592
   73CHL1  H21C 6563   3.817   7.078   4.430  2.2829  0.0086  0.8927
   73CHL1   C22 6564   3.677   7.321   4.399  0.2427 -0.0962 -0.6788
   73CHL1  H22A 6565   3.730   7.376   4.481 -0.7513  0.2796 -0.2694
   73CHL1  H22B 6566   3.621   7.400   4.345 -1.1080 -1.7739 -1.8402
   73CHL1   C23 6567   3.576   7.229   4.476 -0.2274 -0.1894  0.7149
   73CHL1  H23A 6568   3.516   7.175   4.399  0.6779  0.6699 -0.6353
   73CHL1  H23B 6569   3.632   7.151   4.532 -0.2795 -2.2914 -1.9187
   73CHL1   C24 6570   3.485   7.306   4.574 -0.1562  0.6828 -1.2482
   73CHL1  H24A 6571   3.545   7.363   4.648 -0.8345 -0.5796  0.3227
   73CHL1  H24B 6572   3.423   7.372   4.510  2.2621  1.0616 -3.3741
   73CHL1   C25 6573   3.393   7.214   4.670  0.3702  0.0527  0.3522
   73CHL1   H25 6574   3.331   7.155   4.600 -1.2048  1.7961  0.1970
   73CHL1   C26 6575   3.470   7.119   4.758 -0.2606  0.5031 -0.0875
   73CHL1  H26A 6576   3.411   7.046   4.818 -0.4739  0.5285 -0.2613
   73CHL1  H26B 6577   3.525   7.047   4.694 -0.9727  0.8456 -1.1201
   73CHL1  H26C 6578   3.538   7.180   4.821  0.7457  1.7201 -2.2547
   73CHL1   C27 6579   3.305   7.309   4.753 -0.0057  0.2985 -0.7450
   73CHL1  H27A 6580   3.251   7.237   4.819 -0.0570 -0.7565 -1.8838
   73CHL1  H27B 6581   3.365   7.379   4.814  0.3657 -0.7901  0.1780
   73CHL1  H27C 6582   3.228   7.357   4.689  0.2609  0.5905 -0.8509
   74CHL1    C3 6583   2.551   5.704   3.471 -0.0547  0.9471 -0.1036
   74CHL1    H3 6584   2.637   5.767   3.499  1.2145 -1.1274  0.8622
   74CHL1    O3 6585   2.532   5.692   3.332  0.7174  0.0767  0.8076
   74CHL1   H3' 6586   2.553   5.779   3.296 -0.4898 -0.7586 -2.1854
   74CHL1    C4 6587   2.569   5.558   3.529 -0.2303 -0.6568 -0.5010
   74CHL1   H4A 6588   2.491   5.486   3.496 -0.7144 -1.3564  2.0017
   74CHL1   H4B 6589   2.662   5.522   3.481  0.5524  1.2190 -0.4873
   74CHL1    C5 6590   2.587   5.556   3.681  0.0323  0.2186  0.3136
   74CHL1    C6 6591   2.695   5.497   3.739 -0.2683  0.9217 -1.0046
   74CHL1    H6 6592   2.768   5.448   3.673 -0.3178  0.4603 -0.7205
   74CHL1    C7 6593   2.702   5.499   3.897  0.0569  0.0176  0.0640
   74CHL1   H7A 6594   2.746   5.406   3.938  0.9739  0.1227 -0.6396
   74CHL1   H7B 6595   2.764   5.587   3.924 -0.4999  1.0949 -1.9475
   74CHL1    C8 6596   2.568   5.533   3.965 -0.4521 -0.2779  0.4565
   74CHL1    H8 6597   2.507   5.440   3.959  3.2768 -2.8912 -0.5336
   74CHL1   C14 6598   2.582   5.554   4.119  0.0921  0.7695 -0.0563
   74CHL1   H14 6599   2.646   5.644   4.130 -0.1368  0.7268  1.9110
   74CHL1   C15 6600   2.654   5.436   4.190 -0.0430 -0.7465  0.3740
   74CHL1  H15A 6601   2.634   5.333   4.154 -0.5610 -0.3625 -0.4840
   74CHL1  H15B 6602   2.764   5.453   4.187  0.3154 -2.2963  2.5714
   74CHL1   C16 6603   2.624   5.461   4.328 -0.5030  0.0864 -1.0905
   74CHL1  H16A 6604   2.582   5.375   4.384  1.7348 -0.2062  0.2947
   74CHL1  H16B 6605   2.711   5.480   4.395 -1.9882 -2.3631  1.7360
   74CHL1   C17 6606   2.512   5.578   4.335 -0.5307 -0.5915  0.0418
   74CHL1   H17 6607   2.573   5.669   4.349 -1.0311 -0.4470  1.5096
   74CHL1   C13 6608   2.451   5.577   4.196  0.4405  0.6336  0.5436
   74CHL1   C18 6609   2.347   5.464   4.190 -0.5579 -0.1209 -0.3659
   74CHL1  H18A 6610   2.383   5.369   4.236 -1.9431 -0.4312  0.1256
   74CHL1  H18B 6611   2.252   5.485   4.242 -0.1423 -0.2269  0.4556
   74CHL1  H18C 6612   2.306   5.449   4.087 -1.5597 -0.1900  0.0332
   74CHL1   C12 6613   2.407   5.711   4.136 -0.5764 -0.0849  0.4258
   74CHL1  H12A 6614   2.316   5.741   4.192 -0.9541  0.9455 -0.6824
   74CHL1  H12B 6615   2.483   5.788   4.161 -0.2131 -0.3380  0.1000
   74CHL1   C11 6616   2.378   5.705   3.984  0.0857 -0.8768  0.1572
   74CHL1  H11A 6617   2.291   5.636   3.971 -0.3601 -0.1798 -0.6535
   74CHL1  H11B 6618   2.350   5.809   3.958  1.4816  0.2211  2.6869
   74CHL1    C9 6619   2.500   5.653   3.900  0.8380  0.2543 -0.2464
   74CHL1    H9 6620   2.574   5.736   3.908  1.7690 -0.5000 -0.8490
   74CHL1   C10 6621   2.477   5.629   3.748 -0.1754  0.3632 -0.3753
   74CHL1   C19 6622   2.353   5.543   3.734  0.5934 -0.2047  0.3402
   74CHL1  H19A 6623   2.358   5.456   3.803  0.2823  1.2459  2.2909
   74CHL1  H19B 6624   2.261   5.599   3.764  1.3166  1.5530 -0.5767
   74CHL1  H19C 6625   2.340   5.500   3.632  0.8812 -0.3531  0.3671
   74CHL1    C1 6626   2.460   5.776   3.690 -0.0988  0.0875 -0.2299
   74CHL1   H1A 6627   2.389   5.837   3.750 -0.6352  0.2558 -1.0207
   74CHL1   H1B 6628   2.558   5.825   3.708  0.8394 -2.0535  0.9445
   74CHL1    C2 6629   2.428   5.774   3.538  0.7586  0.3582  0.4339
   74CHL1   H2A 6630   2.412   5.880   3.511 -3.1316  0.5756  2.8879
   74CHL1   H2B 6631   2.336   5.712   3.534  1.7900 -1.2348  0.1781
   74CHL1   C20 6632   2.426   5.563   4.464 -0.2659  0.2316 -0.1962
   74CHL1   H20 6633   2.387   5.459   4.471 -0.4256  0.3369  0.6062
   74CHL1   C21 6634   2.303   5.653   4.474  0.3891  1.0396 -0.4163
   74CHL1  H21A 6635   2.245   5.631   4.566  1.2009 -0.2238 -0.1927
   74CHL1  H21B 6636   2.231   5.624   4.394  2.5973 -1.5161 -1.6276
   74CHL1  H21C 6637   2.318   5.761   4.452  0.0071  1.1901  0.0462
   74CHL1   C22 6638   2.508   5.574   4.595 -0.4847 -0.2470 -0.4931
   74CHL1  H22A 6639   2.445   5.534   4.677 -0.6734 -0.3513 -0.6896
   74CHL1  H22B 6640   2.594   5.505   4.581 -0.0616  0.2516 -0.3746
   74CHL1   C23 6641   2.567   5.711   4.635  0.8156 -0.7624  0.9359
   74CHL1  H23A 6642   2.585   5.773   4.543 -0.5591 -1.6230  0.0516
   74CHL1  H23B 6643   2.497   5.762   4.704 -1.4482 -1.4552 -0.7183
   74CHL1   C24 6644   2.706   5.707   4.706  0.3309  0.0254  0.7107
   74CHL1  H24A 6645   2.777   5.653   4.641 -1.8409 -1.1068 -0.8785
   74CHL1  H24B 6646   2.734   5.814   4.696  0.1097  0.1090  0.9691
   74CHL1   C25 6647   2.714   5.645   4.843 -0.0898  0.1213 -0.0432
   74CHL1   H25 6648   2.669   5.544   4.836  1.0447 -0.4767  0.9061
   74CHL1   C26 6649   2.853   5.631   4.882 -0.5866  0.1601 -0.8385
   74CHL1  H26A 6650   2.864   5.590   4.985 -1.7384 -0.5436 -0.9741
   74CHL1  H26B 6651   2.906   5.565   4.811 -1.9126 -1.2754 -0.5569
   74CHL1  H26C 6652   2.894   5.734   4.880 -0.8331  0.3192  0.7637
   74CHL1   C27 6653   2.639   5.727   4.950  1.0383 -0.0324  0.2482
   74CHL1  H27A 6654   2.534   5.726   4.914  0.5818 -0.0993  1.4967
   74CHL1  H27B 6655   2.629   5.680   5.051 -0.6234  0.0678  0.1512
   74CHL1  H27C 6656   2.684   5.828   4.962 -1.3738  1.3995 -1.7703
   75CHL1    C3 6657   4.374   5.189   2.904  0.0314 -0.9218 -0.6393
   75CHL1    H3 6658   4.353   5.086   2.940 -2.2911 -0.5900 -0.9191
   75CHL1    O3 6659   4.343   5.206   2.766  0.2083 -0.2306  0.7714
   75CHL1   H3' 6660   4.248   5.222   2.768  0.1779 -0.3429  0.2289
   75CHL1    C4 6661   4.283   5.294   2.977  1.0416  0.0116  0.2180
   75CHL1   H4A 6662   4.299   5.394   2.934 -0.4206 -0.1588 -0.7677
   75CHL1   H4B 6663   4.178   5.267   2.953  0.7402  0.2574  1.1896
   75CHL1    C5 6664   4.307   5.297   3.129  0.1286  0.4692 -0.5660
   75CHL1    C6 6665   4.211   5.274   3.228 -0.6954  0.5148  0.5397
   75CHL1    H6 6666   4.112   5.252   3.187  0.8579 -0.6593 -2.9528
   75CHL1    C7 6667   4.230   5.275   3.378 -0.3309 -0.3693  0.0676
   75CHL1   H7A 6668   4.145   5.329   3.426 -0.1945 -0.1312  0.0452
   75CHL1   H7B 6669   4.231   5.174   3.423 -3.1842 -0.0982  0.9550
   75CHL1    C8 6670   4.372   5.333   3.408  0.0964 -0.2787 -0.4697
   75CHL1    H8 6671   4.365   5.443   3.394  1.4407 -0.2281 -0.8103
   75CHL1   C14 6672   4.403   5.308   3.556  0.3378 -0.3901  0.5296
   75CHL1   H14 6673   4.391   5.198   3.569  0.3935 -0.7816 -2.2419
   75CHL1   C15 6674   4.301   5.368   3.651  0.1211  0.4711 -0.1184
   75CHL1  H15A 6675   4.270   5.465   3.606 -0.9879  1.7747  3.1517
   75CHL1  H15B 6676   4.213   5.301   3.661 -0.1778  1.0503  1.3181
   75CHL1   C16 6677   4.373   5.388   3.783 -0.5876  0.5144  0.5212
   75CHL1  H16A 6678   4.381   5.498   3.798 -1.6386  1.2090 -3.0283
   75CHL1  H16B 6679   4.329   5.342   3.874  2.4041 -2.0858  0.8149
   75CHL1   C17 6680   4.520   5.329   3.763 -0.1398 -0.2845  0.0322
   75CHL1   H17 6681   4.513   5.224   3.798 -2.1202  0.6691  2.9070
   75CHL1   C13 6682   4.539   5.346   3.604 -0.4596  0.3696  0.1256
   75CHL1   C18 6683   4.579   5.492   3.580  0.4509  0.5033 -0.3605
   75CHL1  H18A 6684   4.689   5.509   3.577  0.7737 -0.5177  2.4148
   75CHL1  H18B 6685   4.537   5.525   3.483  1.7892 -3.9665 -2.7445
   75CHL1  H18C 6686   4.542   5.560   3.660  0.5461 -0.3786  0.4528
   75CHL1   C12 6687   4.642   5.269   3.523 -0.8717 -0.1257  0.6250
   75CHL1  H12A 6688   4.746   5.285   3.557 -0.8036  0.3519  0.1981
   75CHL1  H12B 6689   4.625   5.161   3.545 -2.9562 -0.5074 -2.2264
   75CHL1   C11 6690   4.625   5.291   3.372  0.2338  0.2956 -0.1306
   75CHL1  H11A 6691   4.658   5.395   3.351 -2.8615  1.8047  1.7171
   75CHL1  H11B 6692   4.689   5.224   3.310  0.4504 -1.2873  1.7121
   75CHL1    C9 6693   4.482   5.272   3.319 -0.3124 -0.1767  0.1413
   75CHL1    H9 6694   4.465   5.162   3.320  0.9366 -0.4356 -1.7814
   75CHL1   C10 6695   4.451   5.317   3.174 -0.7040  0.3919  0.5903
   75CHL1   C19 6696   4.480   5.465   3.153  0.4498 -0.3663 -0.4020
   75CHL1  H19A 6697   4.588   5.489   3.147  0.3824  0.2694  0.6259
   75CHL1  H19B 6698   4.451   5.493   3.049 -1.1345  1.5671  0.4756
   75CHL1  H19C 6699   4.432   5.540   3.220  2.1212  0.5865 -0.2162
   75CHL1    C1 6700   4.555   5.231   3.082 -0.4672 -0.2055  0.6916
   75CHL1   H1A 6701   4.654   5.272   3.109 -0.6336  0.8389 -0.2444
   75CHL1   H1B 6702   4.556   5.125   3.117 -1.7684 -0.9802 -1.4094
   75CHL1    C2 6703   4.518   5.227   2.932 -0.0624 -0.3533 -0.1431
   75CHL1   H2A 6704   4.581   5.149   2.884  1.9317 -0.3636  2.2835
   75CHL1   H2B 6705   4.548   5.328   2.896  0.1756 -0.2563  0.3172
   75CHL1   C20 6706   4.626   5.399   3.853 -0.1907 -0.8448 -0.2071
   75CHL1   H20 6707   4.634   5.508   3.833  1.5366 -1.2645 -2.2368
   75CHL1   C21 6708   4.767   5.348   3.818  0.2474  0.1519 -0.1814
   75CHL1  H21A 6709   4.837   5.380   3.898  0.5131  1.0050 -0.7369
   75CHL1  H21B 6710   4.802   5.391   3.722  0.1427  2.5665  0.8014
   75CHL1  H21C 6711   4.756   5.237   3.819 -0.2934  0.1436  3.4117
   75CHL1   C22 6712   4.593   5.381   4.003  0.2996 -0.4430 -0.9288
   75CHL1  H22A 6713   4.495   5.429   4.025  0.0758 -1.2195 -0.2035
   75CHL1  H22B 6714   4.580   5.271   4.014  0.2828 -0.2487  1.5741
   75CHL1   C23 6715   4.688   5.446   4.099  0.0824  0.1665 -0.0094
   75CHL1  H23A 6716   4.784   5.391   4.099  1.1700  1.9961 -0.8848
   75CHL1  H23B 6717   4.690   5.555   4.081  2.4188 -0.0800 -1.6410
   75CHL1   C24 6718   4.641   5.415   4.246  0.7759 -0.2134 -0.0233
   75CHL1  H24A 6719   4.543   5.459   4.274 -0.3309 -0.4267 -3.0926
   75CHL1  H24B 6720   4.641   5.305   4.257 -0.3338 -0.4683 -1.9871
   75CHL1   C25 6721   4.741   5.470   4.353  0.0961 -0.6369  0.7875
   75CHL1   H25 6722   4.726   5.580   4.353  0.0933 -0.6369  1.1062
   75CHL1   C26 6723   4.718   5.413   4.495 -0.1460 -0.4849  0.0237
   75CHL1  H26A 6724   4.715   5.302   4.495  1.7032 -0.5726 -0.7141
   75CHL1  H26B 6725   4.793   5.456   4.565 -0.7865  1.8604 -0.6186
   75CHL1  H26C 6726   4.621   5.435   4.544  0.3204 -0.5361  1.0016
   75CHL1   C27 6727   4.881   5.456   4.317 -0.4955 -0.2425  0.2673
   75CHL1  H27A 6728   4.951   5.495   4.394 -0.6409  0.4349  0.0611
   75CHL1  H27B 6729   4.908   5.348   4.311  1.8194  0.3186 -0.9034
   75CHL1  H27C 6730   4.911   5.502   4.221  2.1373 -0.9360  0.6787
   76CHL1    C3 6731   1.608   6.304   3.447  0.0224  0.1818  0.7464
   76CHL1    H3 6732   1.508   6.331   3.488  0.8207  2.7435  1.1719
   76CHL1    O3 6733   1.599   6.269   3.310 -0.3283  0.1372 -0.0698
   76CHL1   H3' 6734   1.687   6.265   3.272 -1.0097 -0.8733 -1.6051
   76CHL1    C4 6735   1.703   6.426   3.462 -0.4247 -0.7301 -0.1644
   76CHL1   H4A 6736   1.798   6.405   3.409  0.9168  0.2049  1.7469
   76CHL1   H4B 6737   1.667   6.519   3.412  0.3870  0.8159  1.9534
   76CHL1    C5 6738   1.738   6.450   3.610 -0.7795 -0.3006  0.5587
   76CHL1    C6 6739   1.718   6.572   3.654 -0.0682  0.4706 -0.2733
   76CHL1    H6 6740   1.682   6.655   3.591 -2.5012 -0.2621  0.0352
   76CHL1    C7 6741   1.763   6.618   3.792 -0.3216  0.1760  0.4885
   76CHL1   H7A 6742   1.815   6.716   3.796  1.9046 -0.9908  1.2919
   76CHL1   H7B 6743   1.667   6.641   3.844 -1.0138  1.0227 -1.0679
   76CHL1    C8 6744   1.849   6.510   3.865  0.8495 -0.1186  0.2378
   76CHL1    H8 6745   1.951   6.511   3.822 -0.0062  1.4482 -1.9432
   76CHL1   C14 6746   1.868   6.531   4.016 -0.6249  0.2888  0.3708
   76CHL1   H14 6747   1.764   6.548   4.052 -0.7970  0.2336 -0.0919
   76CHL1   C15 6748   1.937   6.660   4.064  0.6419 -0.4340  0.2247
   76CHL1  H15A 6749   2.009   6.688   3.984 -1.3069  1.0462 -1.1094
   76CHL1  H15B 6750   1.854   6.734   4.059  0.2765 -0.7656  1.1519
   76CHL1   C16 6751   1.975   6.645   4.206  0.0698 -0.6509 -0.0710
   76CHL1  H16A 6752   2.080   6.676   4.226  0.4155 -1.0202 -1.2562
   76CHL1  H16B 6753   1.916   6.717   4.267 -0.4332 -0.0273 -1.2686
   76CHL1   C17 6754   1.935   6.494   4.236 -0.0777  0.1478 -0.2967
   76CHL1   H17 6755   1.830   6.505   4.272  0.9644 -0.5018  3.2970
   76CHL1   C13 6756   1.924   6.417   4.104  0.3946  0.2948 -0.0529
   76CHL1   C18 6757   2.060   6.380   4.054 -0.5122  0.0621  0.1900
   76CHL1  H18A 6758   2.142   6.455   4.064 -1.3810  0.8585  1.7384
   76CHL1  H18B 6759   2.089   6.290   4.113 -3.4405  0.7883  3.0266
   76CHL1  H18C 6760   2.050   6.343   3.950  0.4892 -1.8656  0.7203
   76CHL1   C12 6761   1.817   6.312   4.094  0.6262  0.1174 -0.5097
   76CHL1  H12A 6762   1.818   6.225   4.163 -4.8284  1.9010  2.4808
   76CHL1  H12B 6763   1.716   6.350   4.121  0.7872 -0.1120  0.4627
   76CHL1   C11 6764   1.800   6.258   3.948 -0.8130 -0.0600 -0.3228
   76CHL1  H11A 6765   1.882   6.188   3.920  0.4392 -0.2969  3.3840
   76CHL1  H11B 6766   1.706   6.199   3.953  0.4467 -2.0955  1.2381
   76CHL1    C9 6767   1.772   6.374   3.845  0.2156  0.8798  0.7285
   76CHL1    H9 6768   1.665   6.402   3.855  0.2069  2.6899 -2.7915
   76CHL1   C10 6769   1.779   6.333   3.699  1.1419  0.0418  0.1227
   76CHL1   C19 6770   1.916   6.281   3.657  0.3203 -0.0322  0.2973
   76CHL1  H19A 6771   1.919   6.257   3.548 -0.1207 -0.6856  0.4236
   76CHL1  H19B 6772   1.987   6.365   3.669  1.5144 -1.0749  0.7226
   76CHL1  H19C 6773   1.963   6.203   3.719  4.2948  0.9798 -1.1532
   76CHL1    C1 6774   1.669   6.216   3.679 -0.0669 -0.5932  0.3369
   76CHL1   H1A 6775   1.709   6.129   3.734 -0.8965  0.5256  2.8239
   76CHL1   H1B 6776   1.567   6.227   3.722 -0.9177 -1.2308 -1.4040
   76CHL1    C2 6777   1.647   6.179   3.533  0.2175 -0.2039 -0.1191
   76CHL1   H2A 6778   1.572   6.097   3.529 -0.6674  0.4431  1.9794
   76CHL1   H2B 6779   1.742   6.136   3.494  0.8293  1.7983 -0.9638
   76CHL1   C20 6780   2.031   6.435   4.344 -0.8072  0.1253  0.6683
   76CHL1   H20 6781   2.135   6.423   4.306 -1.9267 -0.5998 -2.4604
   76CHL1   C21 6782   1.968   6.296   4.373 -0.0905  0.4148 -0.1526
   76CHL1  H21A 6783   2.001   6.252   4.469  0.3047  1.6248  0.2939
   76CHL1  H21B 6784   1.984   6.216   4.297 -1.5331 -0.8495  0.8329
   76CHL1  H21C 6785   1.857   6.304   4.379 -0.3241 -1.9771 -0.4453
   76CHL1   C22 6786   2.031   6.523   4.481 -0.4343  1.1341 -0.0822
   76CHL1  H22A 6787   2.081   6.618   4.454  1.0790  0.4535  0.2472
   76CHL1  H22B 6788   1.930   6.552   4.519 -0.0168 -0.6140  2.6558
   76CHL1   C23 6789   2.100   6.471   4.604 -0.2144  0.0522  0.0379
   76CHL1  H23A 6790   2.022   6.408   4.652 -0.8837  0.4871 -0.4703
   76CHL1  H23B 6791   2.192   6.414   4.578 -0.0065  0.4359 -0.0732
   76CHL1   C24 6792   2.136   6.577   4.698  0.1545 -0.1687 -0.4529
   76CHL1  H24A 6793   2.211   6.647   4.656 -0.1974  0.5305  0.0633
   76CHL1  H24B 6794   2.048   6.642   4.716  0.5497 -0.1994  1.8860
   76CHL1   C25 6795   2.197   6.519   4.826 -0.2353 -0.5605 -0.3234
   76CHL1   H25 6796   2.153   6.420   4.852 -0.0010 -0.7925 -0.8022
   76CHL1   C26 6797   2.341   6.484   4.794  0.3893 -0.3055 -0.1017
   76CHL1  H26A 6798   2.398   6.578   4.775 -0.9570 -0.0742 -3.4884
   76CHL1  H26B 6799   2.386   6.428   4.879 -1.6122 -1.7841  0.0625
   76CHL1  H26C 6800   2.342   6.411   4.710  1.2070  0.6968 -0.9885
   76CHL1   C27 6801   2.180   6.620   4.938 -0.0989 -0.3098 -0.1504
   76CHL1  H27A 6802   2.221   6.583   5.034  0.0425  0.4789  0.1027
   76CHL1  H27B 6803   2.231   6.715   4.910  0.6025  0.1194  2.3496
   76CHL1  H27C 6804   2.076   6.655   4.955  0.2960  0.9745 -0.2350
   77SOPE     N 6805   4.236   4.210   7.043  0.1117  0.4895  0.7864
   77SOPE   HN1 6806   4.153   4.161   7.003 -0.0446  0.3171  1.3162
   77SOPE   HN2 6807   4.289   4.235   6.957 -0.5138  0.8351  0.4957
   77SOPE   HN3 6808   4.289   4.143   7.102 -1.5648 -1.1203  0.5654
   77SOPE   C12 6809   4.183   4.330   7.124 -0.1972 -0.3150 -0.3110
   77SOPE  H12A 6810   4.274   4.377   7.167  0.2432 -0.3419 -1.1978
   77SOPE  H12B 6811   4.122   4.293   7.209 -1.3795  1.0905 -0.4974
   77SOPE   C11 6812   4.107   4.440   7.046  0.6757  0.4015 -0.0488
   77SOPE  H11A 6813   4.033   4.387   6.983  3.6170 -1.6266 -2.0983
   77SOPE  H11B 6814   4.177   4.502   6.984  1.6019 -0.2776  0.2970
   77SOPE     P 6815   3.996   4.673   7.068  0.2597 -0.0021 -0.1809
   77SOPE   O13 6816   4.077   4.789   7.116 -0.1166 -0.6276  0.8030
   77SOPE   O14 6817   3.854   4.689   7.100  0.2544  0.3343  0.2329
   77SOPE   O12 6818   4.039   4.533   7.134  0.1051 -0.4355 -0.3767
   77SOPE   O11 6819   4.007   4.639   6.917 -0.5901  0.2682  0.1001
   77SOPE    C1 6820   3.905   4.597   6.824 -0.1230 -0.3039 -0.4046
   77SOPE    HA 6821   3.861   4.692   6.785  0.6276  1.2740  2.3483
   77SOPE    HB 6822   3.830   4.538   6.880  0.1076  0.9435  1.2767
   77SOPE    C2 6823   3.971   4.517   6.713  1.2230  0.3606  0.1787
   77SOPE    HS 6824   4.017   4.423   6.752  2.4437  0.7656 -0.2249
   77SOPE   O21 6825   4.067   4.597   6.650 -0.4251 -0.6002 -0.3134
   77SOPE   C21 6826   4.153   4.532   6.580 -0.2588  0.2489 -0.0126
   77SOPE   O22 6827   4.166   4.411   6.576  0.3816 -0.1204 -0.4469
   77SOPE   C22 6828   4.235   4.645   6.508  0.0926  0.2713  0.0479
   77SOPE   H2R 6829   4.261   4.711   6.593 -1.3057  1.2497 -0.2449
   77SOPE   H2S 6830   4.168   4.703   6.441 -1.2719 -1.4810 -0.1812
   77SOPE    C3 6831   3.855   4.485   6.613 -0.0478  0.3744  0.5155
   77SOPE    HX 6832   3.816   4.581   6.573  0.1462  0.5953  0.8502
   77SOPE    HY 6833   3.777   4.443   6.680 -0.3762  0.4808  0.2020
   77SOPE   O31 6834   3.902   4.382   6.521 -0.1653  0.0502 -0.1426
   77SOPE   C31 6835   3.805   4.313   6.463 -0.3414  0.1320 -0.2939
   77SOPE   O32 6836   3.685   4.329   6.474 -0.3212  0.1948 -0.2477
   77SOPE   C32 6837   3.876   4.189   6.401 -0.0478 -0.0383 -0.1372
   77SOPE   H2X 6838   3.821   4.096   6.427 -0.3551  0.1863  0.0332
   77SOPE   H2Y 6839   3.979   4.180   6.442 -0.6923  0.9640  1.8561
   77SOPE   C23 6840   4.373   4.592   6.455 -0.9560 -0.3601  0.7064
   77SOPE   H3R 6841   4.433   4.531   6.525  3.2585  0.7759 -1.5918
   77SOPE   H3S 6842   4.438   4.680   6.439  0.8569 -1.8227 -0.2558
   77SOPE   C24 6843   4.358   4.522   6.318 -0.1494  0.4473 -0.4089
   77SOPE   H4R 6844   4.337   4.421   6.361 -0.9863  0.9030  0.2845
   77SOPE   H4S 6845   4.277   4.546   6.246 -3.2155 -0.4475  2.4642
   77SOPE   C25 6846   4.494   4.506   6.246  0.3102  0.3257 -0.3319
   77SOPE   H5R 6847   4.577   4.490   6.318  0.8054 -2.5287 -1.3886
   77SOPE   H5S 6848   4.499   4.404   6.202 -0.0579  0.0114  0.3289
   77SOPE   C26 6849   4.524   4.616   6.147  0.5233  0.1808 -0.0614
   77SOPE   H6R 6850   4.427   4.624   6.094 -0.6716 -0.4378  1.9031
   77SOPE   H6S 6851   4.550   4.711   6.198 -0.1374 -0.1839  0.9764
   77SOPE   C27 6852   4.643   4.571   6.055  0.0285  0.6652  0.0572
   77SOPE   H7R 6853   4.741   4.592   6.103 -1.1169  1.3779  2.2164
   77SOPE   H7S 6854   4.657   4.461   6.046  0.9516  0.8052 -0.3467
   77SOPE   C28 6855   4.639   4.627   5.918 -0.4118 -0.3665  0.4365
   77SOPE   H8R 6856   4.651   4.736   5.935  1.4071 -0.5299  0.3570
   77SOPE   H8S 6857   4.732   4.598   5.865 -0.0805  0.1344  0.7289
   77SOPE   C29 6858   4.520   4.585   5.845  0.6583 -0.4387 -0.4429
   77SOPE   H91 6859   4.484   4.483   5.871  1.9701 -1.3733 -2.1526
   77SOPE  C210 6860   4.451   4.655   5.757  0.8302 -0.9304  0.0206
   77SOPE  H101 6861   4.357   4.613   5.716  0.5056 -1.6519  1.4639
   77SOPE  C211 6862   4.493   4.788   5.698 -0.0445 -1.0834  0.4075
   77SOPE  H11R 6863   4.589   4.828   5.737 -1.5662  1.2149  2.0918
   77SOPE  H11S 6864   4.420   4.865   5.731 -1.9010 -2.3376 -0.5969
   77SOPE  C212 6865   4.498   4.774   5.541 -0.4312  0.6523  0.1774
   77SOPE  H12R 6866   4.514   4.873   5.494  2.2565  1.7999  3.1081
   77SOPE  H12S 6867   4.392   4.751   5.517 -0.1369 -1.5610  0.7440
   77SOPE  C213 6868   4.608   4.676   5.488  0.1851  0.0254 -0.3396
   77SOPE  H13R 6869   4.579   4.578   5.532  0.7573  0.5956  1.3932
   77SOPE  H13S 6870   4.702   4.708   5.538 -0.6966  1.4651  0.4558
   77SOPE  C214 6871   4.613   4.689   5.345 -1.2625 -0.3144  0.5073
   77SOPE  H14R 6872   4.672   4.778   5.315 -0.8944 -0.3777  1.0251
   77SOPE  H14S 6873   4.509   4.704   5.309 -0.1265  1.0484 -2.5761
   77SOPE  C215 6874   4.667   4.569   5.269  0.8987 -0.1747  0.5402
   77SOPE  H15R 6875   4.603   4.483   5.299 -1.2088  0.8456 -0.8326
   77SOPE  H15S 6876   4.773   4.551   5.297  2.3148  0.6466 -3.5317
   77SOPE  C216 6877   4.672   4.604   5.125 -0.3293  0.5861 -0.5542
   77SOPE  H16R 6878   4.751   4.679   5.104 -0.0974  0.8189  1.0147
   77SOPE  H16S 6879   4.579   4.657   5.095  0.4029  0.9832 -2.2435
   77SOPE  C217 6880   4.696   4.479   5.033  0.0051  0.5732  0.6977
   77SOPE  H17R 6881   4.614   4.408   5.056  1.3112 -1.4922 -0.7533
   77SOPE  H17S 6882   4.793   4.438   5.066  0.1457  0.3569  0.0227
   77SOPE  C218 6883   4.699   4.506   4.885  0.2948 -0.3135  1.1038
   77SOPE  H18R 6884   4.709   4.411   4.828  1.7523  1.9085 -2.7224
   77SOPE  H18S 6885   4.780   4.579   4.863 -0.2655  0.0629  0.2422
   77SOPE  H18T 6886   4.610   4.549   4.835  1.9699 -0.9664 -2.8715
   77SOPE   C33 6887   3.891   4.216   6.251  0.1589  0.5359 -0.0919
   77SOPE   H3X 6888   3.791   4.235   6.208  0.9168 -0.6867 -2.5475
   77SOPE   H3Y 6889   3.915   4.118   6.205  0.1776  1.6932 -2.7066
   77SOPE   C34 6890   3.984   4.327   6.206  0.4483  0.2925  0.0996
   77SOPE   H4X 6891   4.090   4.316   6.237  0.1948 -1.7313  0.3935
   77SOPE   H4Y 6892   3.944   4.426   6.239  0.0317  1.5762 -3.7189
   77SOPE   C35 6893   3.982   4.348   6.049 -0.0569  0.1943  0.6625
   77SOPE   H5X 6894   3.894   4.413   6.026  1.4187  1.3906 -2.2212
   77SOPE   H5Y 6895   3.979   4.246   6.005 -0.7832 -0.7932  2.8644
   77SOPE   C36 6896   4.099   4.428   5.989 -0.5069 -0.6056  0.3323
   77SOPE   H6X 6897   4.185   4.372   6.032  0.8344 -0.0663 -1.5141
   77SOPE   H6Y 6898   4.080   4.525   6.039 -2.1157 -0.5782 -0.2777
   77SOPE   C37 6899   4.109   4.449   5.837 -0.3654 -0.0371 -0.1088
   77SOPE   H7X 6900   4.175   4.536   5.818 -0.3540  0.1368  0.6760
   77SOPE   H7Y 6901   4.006   4.481   5.813 -0.1528 -0.3798 -1.5129
   77SOPE   C38 6902   4.159   4.321   5.768  0.1099 -0.5270  0.3648
   77SOPE   H8X 6903   4.086   4.248   5.810 -1.0546  0.4434  0.1056
   77SOPE   H8Y 6904   4.265   4.304   5.796 -0.1996 -1.5661  0.9705
   77SOPE   C39 6905   4.174   4.329   5.612  0.3614  0.0434  0.0415
   77SOPE   H9X 6906   4.204   4.230   5.571  1.4348  0.6945 -0.8185
   77SOPE   H9Y 6907   4.257   4.395   5.581  1.4246 -2.1786 -2.2773
   77SOPE  C310 6908   4.044   4.362   5.534  0.1846 -0.1354  0.0784
   77SOPE  H10X 6909   3.988   4.446   5.581 -0.8261 -0.2320 -0.9310
   77SOPE  H10Y 6910   3.977   4.274   5.535  2.1459 -1.7624 -1.8626
   77SOPE  C311 6911   4.066   4.384   5.383 -0.6432  0.8770  0.3162
   77SOPE  H11X 6912   3.964   4.373   5.341  0.2542 -0.5303 -1.6296
   77SOPE  H11Y 6913   4.113   4.296   5.334 -0.8389  0.4697  0.8395
   77SOPE  C312 6914   4.139   4.505   5.338  0.0381  0.0701  0.5223
   77SOPE  H12X 6915   4.226   4.534   5.400 -1.1070  1.5171  1.5193
   77SOPE  H12Y 6916   4.072   4.593   5.344 -0.4134 -0.1618 -0.7029
   77SOPE  C313 6917   4.196   4.488   5.193 -0.4399  0.1488 -0.2985
   77SOPE  H13X 6918   4.270   4.405   5.199  0.5126  0.9290 -1.0731
   77SOPE  H13Y 6919   4.246   4.582   5.161 -0.2864  1.5594  3.5323
   77SOPE  C314 6920   4.097   4.457   5.087  0.0395 -0.2524 -0.2334
   77SOPE  H14X 6921   4.004   4.515   5.105 -0.7273 -1.9742  1.7187
   77SOPE  H14Y 6922   4.077   4.348   5.090 -1.1184 -0.0497 -0.2556
   77SOPE  C315 6923   4.147   4.489   4.946  0.4556  0.0850  0.5315
   77SOPE  H15X 6924   4.244   4.435   4.946  1.1630  1.3267  0.9584
   77SOPE  H15Y 6925   4.165   4.598   4.942  0.7429  0.1632  2.8290
   77SOPE  C316 6926   4.047   4.450   4.838  0.5531  0.2882  0.0195
   77SOPE  H16X 6927   3.942   4.481   4.856 -0.6967 -2.1597 -2.2349
   77SOPE  H16Y 6928   4.045   4.339   4.837 -0.6041  0.3001 -0.4261
   77SOPE  C317 6929   4.100   4.478   4.696  0.4777  0.2139  0.2876
   77SOPE  H17X 6930   4.175   4.402   4.664  0.4276  1.0645 -2.0617
   77SOPE  H17Y 6931   4.148   4.576   4.676 -0.4343  0.4672 -0.7589
   77SOPE  C318 6932   3.983   4.468   4.592  0.0396  0.1090  0.6613
   77SOPE  H18X 6933   4.022   4.475   4.488 -1.4567  1.4969  0.1457
   77SOPE  H18Y 6934   3.911   4.552   4.606 -0.5815 -0.1812 -0.6388
   77SOPE  H18Z 6935   3.932   4.371   4.609 -0.4685  0.0859 -0.8485
   78SOPE     N 6936   3.952   3.965   7.428  0.2717  0.1873 -0.0626
   78SOPE   HN1 6937   4.026   3.996   7.495  0.4775 -1.6403  0.6039
   78SOPE   HN2 6938   3.909   3.876   7.460  2.9017 -1.0572  0.3223
   78SOPE   HN3 6939   3.988   3.932   7.336  2.6467 -0.0154  0.8724
   78SOPE   C12 6940   3.850   4.067   7.418  0.3089 -0.6508 -0.5674
   78SOPE  H12A 6941   3.896   4.148   7.357  0.1560  1.0465  1.4453
   78SOPE  H12B 6942   3.831   4.095   7.524 -0.3184 -2.4825 -0.1514
   78SOPE   C11 6943   3.724   4.030   7.351 -0.0670  0.2496 -0.6118
   78SOPE  H11A 6944   3.655   4.117   7.342  0.8979  1.0999 -0.0005
   78SOPE  H11B 6945   3.671   3.959   7.418 -0.8394  2.0314  0.7606
   78SOPE     P 6946   3.691   4.030   7.091 -0.0492 -0.5325  0.4811
   78SOPE   O13 6947   3.710   4.181   7.089  0.4533 -0.5571  0.2196
   78SOPE   O14 6948   3.552   3.975   7.067  0.1548 -0.4930 -0.0936
   78SOPE   O12 6949   3.749   3.974   7.223  0.1437  0.4185 -0.0103
   78SOPE   O11 6950   3.784   3.970   6.987 -0.5835  0.1310  0.4543
   78SOPE    C1 6951   3.797   3.826   6.975 -0.4147 -0.9342 -0.5292
   78SOPE    HA 6952   3.708   3.768   7.004 -1.3528  1.5583  2.0431
   78SOPE    HB 6953   3.881   3.792   7.039 -0.4014 -1.3144 -0.7430
   78SOPE    C2 6954   3.843   3.786   6.832  0.2280 -0.1781 -0.4314
   78SOPE    HS 6955   3.917   3.860   6.795  0.6835 -1.3402 -1.9363
   78SOPE   O21 6956   3.723   3.777   6.750 -0.8227  0.4199  0.3799
   78SOPE   C21 6957   3.697   3.865   6.661 -0.7431 -0.6842  0.9990
   78SOPE   O22 6958   3.767   3.965   6.636  0.9272 -0.0283 -0.4855
   78SOPE   C22 6959   3.564   3.822   6.594  0.1094  0.1615 -0.1263
   78SOPE   H2R 6960   3.481   3.813   6.667  0.0771  0.2015 -0.1578
   78SOPE   H2S 6961   3.587   3.724   6.547 -3.1449 -0.5636 -0.4690
   78SOPE    C3 6962   3.922   3.647   6.830  0.2198  0.2029  0.7593
   78SOPE    HX 6963   3.859   3.564   6.867 -1.0766  0.8999  0.1702
   78SOPE    HY 6964   4.008   3.671   6.896  0.3384 -1.1451  1.1168
   78SOPE   O31 6965   3.971   3.630   6.699  0.1335  0.7996  0.1270
   78SOPE   C31 6966   3.895   3.560   6.611  0.2868  0.2914  0.9321
   78SOPE   O32 6967   3.790   3.495   6.636  0.6329 -0.7282  0.1601
   78SOPE   C32 6968   3.960   3.566   6.472 -0.5456  0.5365 -0.6009
   78SOPE   H2X 6969   3.938   3.467   6.426  3.1597 -0.8340  0.2625
   78SOPE   H2Y 6970   4.069   3.554   6.490 -0.9595 -0.4965  1.5391
   78SOPE   C23 6971   3.532   3.928   6.481  0.4718  0.9269  0.4575
   78SOPE   H3R 6972   3.571   4.031   6.497 -0.5597  1.4387 -0.1834
   78SOPE   H3S 6973   3.422   3.944   6.472 -0.2641 -3.2413  0.1726
   78SOPE   C24 6974   3.575   3.878   6.336 -0.2298 -0.1971  0.0208
   78SOPE   H4R 6975   3.684   3.852   6.338 -0.5378 -1.6940  2.2784
   78SOPE   H4S 6976   3.526   3.780   6.320 -2.0589 -0.3224  4.6520
   78SOPE   C25 6977   3.552   3.988   6.231 -0.1910  0.6432 -0.4447
   78SOPE   H5R 6978   3.444   4.005   6.212 -0.4211 -0.2558  0.0213
   78SOPE   H5S 6979   3.592   4.079   6.280  0.8093  1.6591 -2.9693
   78SOPE   C26 6980   3.623   3.965   6.100  0.0314  0.2846  0.2227
   78SOPE   H6R 6981   3.732   3.965   6.122 -0.2869  0.3734  1.9068
   78SOPE   H6S 6982   3.611   3.866   6.052  1.4545  0.4361 -0.5057
   78SOPE   C27 6983   3.589   4.075   6.001  0.2164 -0.2115 -0.6878
   78SOPE   H7R 6984   3.486   4.059   5.964  0.7237 -0.3212 -2.0952
   78SOPE   H7S 6985   3.593   4.177   6.045 -0.3520  0.8217 -2.9013
   78SOPE   C28 6986   3.680   4.068   5.877 -0.0998 -0.4630 -0.4706
   78SOPE   H8R 6987   3.783   4.060   5.917 -0.4525  0.0138  0.5683
   78SOPE   H8S 6988   3.656   3.972   5.826  1.7430 -0.0990 -2.1277
   78SOPE   C29 6989   3.666   4.192   5.794 -0.2634 -0.0188  0.0207
   78SOPE   H91 6990   3.707   4.284   5.838 -1.1698  0.0112  0.8468
   78SOPE  C210 6991   3.599   4.200   5.678 -0.0613 -0.2163 -0.0894
   78SOPE  H101 6992   3.599   4.299   5.632  0.9324  0.1277  0.6244
   78SOPE  C211 6993   3.538   4.089   5.599 -0.0494  0.6651  0.0770
   78SOPE  H11R 6994   3.442   4.127   5.559  1.0086  2.0671 -1.2666
   78SOPE  H11S 6995   3.522   4.003   5.667 -2.4008  1.8631  1.1435
   78SOPE  C212 6996   3.628   4.036   5.480  0.5306 -0.1587 -0.3566
   78SOPE  H12R 6997   3.611   3.926   5.486  2.8799 -0.6443 -1.6402
   78SOPE  H12S 6998   3.731   4.045   5.519 -0.3383 -0.0273  2.0940
   78SOPE  C213 6999   3.584   4.089   5.338  0.3407  0.2789 -1.5732
   78SOPE  H13R 7000   3.480   4.059   5.314 -0.0968 -0.2422  0.6962
   78SOPE  H13S 7001   3.644   4.044   5.256  1.2248  0.7499 -1.2018
   78SOPE  C214 7002   3.594   4.243   5.315 -0.5728  0.8534  0.4891
   78SOPE  H14R 7003   3.698   4.282   5.325 -0.0293 -0.0595 -1.2330
   78SOPE  H14S 7004   3.529   4.286   5.394 -1.4341  3.5573 -1.5579
   78SOPE  C215 7005   3.537   4.274   5.170 -0.3520 -0.3211 -0.7240
   78SOPE  H15R 7006   3.442   4.221   5.149 -1.9438  1.0798  2.3072
   78SOPE  H15S 7007   3.601   4.233   5.088 -1.2990  0.7722 -2.0492
   78SOPE  C216 7008   3.508   4.424   5.138  0.8510  0.8322 -0.3489
   78SOPE  H16R 7009   3.601   4.478   5.166  0.5296  1.0259  0.3755
   78SOPE  H16S 7010   3.430   4.466   5.205  1.7346  0.8861  0.6814
   78SOPE  C217 7011   3.470   4.458   4.991  0.3516 -0.3385  0.2421
   78SOPE  H17R 7012   3.553   4.424   4.927 -0.4242 -1.0989 -0.3815
   78SOPE  H17S 7013   3.488   4.566   4.969  0.2812 -0.5762 -1.0760
   78SOPE  C218 7014   3.329   4.419   4.949  0.3791 -0.0274  0.3447
   78SOPE  H18R 7015   3.307   4.320   4.994  2.2831  0.4468  2.5227
   78SOPE  H18S 7016   3.323   4.408   4.838  0.3202 -1.1406  0.4469
   78SOPE  H18T 7017   3.255   4.494   4.984  1.5037  0.1573  2.4958
   78SOPE   C33 7018   3.917   3.685   6.387 -0.2429 -0.4776  0.1593
   78SOPE   H3X 7019   3.906   3.782   6.440 -1.8281 -0.5611  0.0234
   78SOPE   H3Y 7020   3.809   3.681   6.364 -0.0761 -0.0023 -0.7420
   78SOPE   C34 7021   4.010   3.695   6.265 -0.4240 -0.0581 -0.2498
   78SOPE   H4X 7022   3.986   3.610   6.196 -0.7478 -0.3233  0.1819
   78SOPE   H4Y 7023   4.115   3.687   6.300 -0.4575 -2.3816 -0.4625
   78SOPE   C35 7024   3.989   3.832   6.202  0.3010 -0.5852  0.0484
   78SOPE   H5X 7025   3.998   3.905   6.284 -2.0561 -0.2710  0.0883
   78SOPE   H5Y 7026   3.884   3.839   6.168  0.3720  1.3110  0.1387
   78SOPE   C36 7027   4.089   3.873   6.091 -0.1786 -0.3646  0.5757
   78SOPE   H6X 7028   4.184   3.817   6.094  0.6063  0.8339 -0.6161
   78SOPE   H6Y 7029   4.106   3.983   6.099  0.9549 -0.4435 -0.4684
   78SOPE   C37 7030   4.035   3.855   5.951  0.1179 -0.2691  0.4868
   78SOPE   H7X 7031   3.935   3.902   5.948 -0.4192 -1.4108 -0.3879
   78SOPE   H7Y 7032   4.011   3.749   5.928 -0.4554  0.0280 -0.3371
   78SOPE   C38 7033   4.122   3.919   5.840 -0.4519  0.0466 -0.0273
   78SOPE   H8X 7034   4.212   3.855   5.825 -2.8287 -3.1258 -2.2658
   78SOPE   H8Y 7035   4.141   4.025   5.867 -1.2565 -0.3792  2.5208
   78SOPE   C39 7036   4.051   3.912   5.701 -0.3680 -0.8233  0.1267
   78SOPE   H9X 7037   3.973   3.991   5.705 -0.1701 -0.6905  2.0467
   78SOPE   H9Y 7038   4.013   3.808   5.691 -0.1166 -1.1133  1.9542
   78SOPE  C310 7039   4.136   3.942   5.577 -0.4082 -0.1005 -0.5362
   78SOPE  H10X 7040   4.224   3.995   5.618 -1.9254  0.4689  2.2706
   78SOPE  H10Y 7041   4.080   4.010   5.509 -1.0359  1.0374  1.0403
   78SOPE  C311 7042   4.175   3.821   5.501  0.1216  1.1083  0.5203
   78SOPE  H11X 7043   4.085   3.765   5.466  1.3597 -0.0622 -0.9237
   78SOPE  H11Y 7044   4.232   3.752   5.566  0.9678 -0.2610 -1.5700
   78SOPE  C312 7045   4.255   3.855   5.372 -0.2187 -0.3664  0.0250
   78SOPE  H12X 7046   4.353   3.891   5.410 -0.8899 -1.0157  2.6056
   78SOPE  H12Y 7047   4.202   3.939   5.322  0.7748  0.4562  0.3238
   78SOPE  C313 7048   4.287   3.735   5.293  0.1047 -0.1119  0.7150
   78SOPE  H13X 7049   4.196   3.685   5.253  1.4949 -1.2123 -1.2661
   78SOPE  H13Y 7050   4.336   3.665   5.364 -1.0795  0.9901  2.7143
   78SOPE  C314 7051   4.384   3.770   5.180  0.4020  0.3098  0.1120
   78SOPE  H14X 7052   4.454   3.847   5.219  1.7341 -0.5311 -0.5636
   78SOPE  H14Y 7053   4.350   3.821   5.087  3.3366  2.0934 -0.0936
   78SOPE  C315 7054   4.447   3.639   5.125  0.0657  0.5729  0.3064
   78SOPE  H15X 7055   4.510   3.595   5.205  1.7482  0.7351 -0.8869
   78SOPE  H15Y 7056   4.521   3.660   5.046  0.6864 -0.0591  0.7078
   78SOPE  C316 7057   4.337   3.532   5.080  0.0645  0.2766 -0.2261
   78SOPE  H16X 7058   4.282   3.490   5.166  0.3906  0.0132 -0.1451
   78SOPE  H16Y 7059   4.396   3.458   5.021  1.1266  3.0593 -3.0084
   78SOPE  C317 7060   4.240   3.588   4.971 -0.0376  0.0464  0.1320
   78SOPE  H17X 7061   4.305   3.590   4.881  0.9448 -2.5140  0.7001
   78SOPE  H17Y 7062   4.205   3.691   4.994 -2.1901 -0.1081 -2.1024
   78SOPE  C318 7063   4.116   3.506   4.948  0.3050 -0.3077 -0.3037
   78SOPE  H18X 7064   4.049   3.570   4.887  0.8868  0.8710  0.2756
   78SOPE  H18Y 7065   4.067   3.470   5.041 -1.4235 -2.4094 -1.8968
   78SOPE  H18Z 7066   4.147   3.414   4.893  1.2236 -0.5438  0.5774
   79SOPE     N 7067   5.613   1.434   7.360 -0.0717 -0.7298  0.6718
   79SOPE   HN1 7068   5.549   1.354   7.344 -2.0854  1.3165 -3.2143
   79SOPE   HN2 7069   5.558   1.522   7.346  0.2094 -0.5219  0.8738
   79SOPE   HN3 7070   5.699   1.416   7.304  0.5511 -0.6977  1.6085
   79SOPE   C12 7071   5.678   1.452   7.496 -0.2264  0.0707  0.6868
   79SOPE  H12A 7072   5.746   1.365   7.512 -0.8752 -0.4726  0.5556
   79SOPE  H12B 7073   5.593   1.465   7.566 -2.6482 -0.6140 -1.9188
   79SOPE   C11 7074   5.776   1.568   7.486  0.1407 -0.2067  0.2534
   79SOPE  H11A 7075   5.830   1.554   7.582  0.0113 -0.0737  0.3459
   79SOPE  H11B 7076   5.724   1.665   7.471  1.4814  0.5704  0.4964
   79SOPE     P 7077   5.940   1.660   7.297  0.1007 -0.1444 -0.1436
   79SOPE   O13 7078   6.016   1.596   7.189  0.0549 -0.2328  0.1984
   79SOPE   O14 7079   6.020   1.758   7.388  0.0213 -0.0516 -0.2046
   79SOPE   O12 7080   5.874   1.552   7.386 -0.2611 -0.7180  0.6836
   79SOPE   O11 7081   5.815   1.730   7.236  0.3797 -0.1068  0.5528
   79SOPE    C1 7082   5.727   1.662   7.143  0.2918 -0.1268 -0.2622
   79SOPE    HA 7083   5.624   1.659   7.185  0.5169 -2.1457  0.2389
   79SOPE    HB 7084   5.758   1.559   7.116 -1.8829 -0.8830 -0.1006
   79SOPE    C2 7085   5.733   1.727   6.996 -0.7233 -0.1403 -1.1484
   79SOPE    HS 7086   5.629   1.716   6.960 -1.9279  1.9607  1.3308
   79SOPE   O21 7087   5.831   1.663   6.901 -0.5781  0.5392 -0.1087
   79SOPE   C21 7088   5.811   1.535   6.866  0.3648 -0.2422 -0.1507
   79SOPE   O22 7089   5.717   1.467   6.897 -0.1432 -0.2303 -0.3214
   79SOPE   C22 7090   5.912   1.503   6.753 -0.3136  0.2652  0.7189
   79SOPE   H2R 7091   6.008   1.550   6.783  0.3518  2.3390 -3.7906
   79SOPE   H2S 7092   5.883   1.554   6.658  2.9598  0.0308 -0.5442
   79SOPE    C3 7093   5.754   1.884   7.007 -0.3605 -0.4485 -0.7186
   79SOPE    HX 7094   5.842   1.902   7.072 -0.3653 -1.7474 -0.3224
   79SOPE    HY 7095   5.662   1.922   7.057  0.2578 -0.6435  0.5984
   79SOPE   O31 7096   5.763   1.946   6.878 -1.0003 -0.0346 -0.2910
   79SOPE   C31 7097   5.887   1.942   6.828  0.5301 -0.2185  0.0118
   79SOPE   O32 7098   5.992   1.908   6.887 -0.0738 -0.2891  0.1879
   79SOPE   C32 7099   5.872   1.972   6.679 -0.0135  0.0869 -0.1919
   79SOPE   H2X 7100   5.830   2.075   6.672 -2.0458 -0.6565  0.3241
   79SOPE   H2Y 7101   5.800   1.904   6.630  1.4749 -1.3033 -0.5144
   79SOPE   C23 7102   5.926   1.349   6.720 -0.1453  0.3774 -0.2346
   79SOPE   H3R 7103   5.905   1.276   6.801  2.9757  1.7803  2.0528
   79SOPE   H3S 7104   6.033   1.333   6.696 -0.1180  0.9402 -0.5080
   79SOPE   C24 7105   5.844   1.308   6.601  1.2317 -0.4121  0.6005
   79SOPE   H4R 7106   5.852   1.197   6.589  0.5909 -0.5795  1.5741
   79SOPE   H4S 7107   5.739   1.315   6.637  0.5002 -1.2118 -1.2406
   79SOPE   C25 7108   5.853   1.382   6.472 -0.1024  0.1838  0.0498
   79SOPE   H5R 7109   5.767   1.450   6.461 -1.5160 -1.6944 -1.1389
   79SOPE   H5S 7110   5.939   1.452   6.465 -0.6371  0.6781 -3.2741
   79SOPE   C26 7111   5.855   1.292   6.353  0.2431 -0.2230 -0.4982
   79SOPE   H6R 7112   5.941   1.222   6.364 -0.0445 -1.0568 -2.9134
   79SOPE   H6S 7113   5.768   1.225   6.372 -0.0283  0.6380  1.6197
   79SOPE   C27 7114   5.858   1.364   6.217  0.3024  0.3055 -0.3127
   79SOPE   H7R 7115   5.790   1.451   6.229 -1.0478 -0.6180 -1.0103
   79SOPE   H7S 7116   5.960   1.403   6.195  1.1447  0.7112  3.5552
   79SOPE   C28 7117   5.806   1.273   6.108  0.3751  0.1511 -0.3171
   79SOPE   H8R 7118   5.869   1.184   6.092  0.4069  0.0126  0.5080
   79SOPE   H8S 7119   5.706   1.230   6.132 -0.6842  1.6030 -1.8659
   79SOPE   C29 7120   5.801   1.358   5.985  0.1167  0.2191  0.2713
   79SOPE   H91 7121   5.767   1.462   5.998 -2.3510 -0.2821 -1.4739
   79SOPE  C210 7122   5.834   1.318   5.860 -0.1620 -0.3062 -0.6974
   79SOPE  H101 7123   5.815   1.390   5.779 -2.2408 -0.2607 -0.2256
   79SOPE  C211 7124   5.874   1.177   5.821  0.1143  0.5236  0.8056
   79SOPE  H11R 7125   5.824   1.156   5.724  4.2051 -0.8471 -1.2310
   79SOPE  H11S 7126   5.845   1.106   5.902  0.7456 -0.3424  0.2921
   79SOPE  C212 7127   6.026   1.154   5.797  0.5347 -0.0131 -0.0620
   79SOPE  H12R 7128   6.054   1.237   5.729  1.0862 -0.5237 -0.4630
   79SOPE  H12S 7129   6.048   1.063   5.738  1.1464 -0.9778  1.5723
   79SOPE  C213 7130   6.110   1.147   5.925  0.3203  0.0841  0.5078
   79SOPE  H13R 7131   6.064   1.063   5.981  1.8339  0.0337  1.7540
   79SOPE  H13S 7132   6.116   1.243   5.981 -1.4645  0.6992 -0.2651
   79SOPE  C214 7133   6.254   1.106   5.890  0.1921 -0.4097 -0.8720
   79SOPE  H14R 7134   6.246   1.022   5.818  0.5545 -2.1695  1.0645
   79SOPE  H14S 7135   6.299   1.064   5.982 -2.2361 -0.3763  0.4083
   79SOPE  C215 7136   6.333   1.226   5.842  0.4060 -0.3236 -0.4238
   79SOPE  H15R 7137   6.355   1.292   5.928 -0.2624 -1.3231  0.5318
   79SOPE  H15S 7138   6.261   1.281   5.777  0.2332 -2.1249 -1.8492
   79SOPE  C216 7139   6.471   1.196   5.781 -0.2043  0.4921 -0.2214
   79SOPE  H16R 7140   6.528   1.147   5.863 -0.0395  3.5889  1.6526
   79SOPE  H16S 7141   6.517   1.295   5.760  0.2348 -0.2144 -2.9543
   79SOPE  C217 7142   6.471   1.110   5.656  0.0613 -0.5500  0.6054
   79SOPE  H17R 7143   6.414   1.016   5.664 -1.3241 -0.1898 -2.9673
   79SOPE  H17S 7144   6.578   1.099   5.627  0.0672  1.4463 -0.3665
   79SOPE  C218 7145   6.410   1.179   5.533  0.5375 -0.1204  0.0962
   79SOPE  H18R 7146   6.410   1.105   5.451 -0.3667 -0.2433  0.1923
   79SOPE  H18S 7147   6.455   1.279   5.513  0.4062  0.4839  2.4824
   79SOPE  H18T 7148   6.308   1.213   5.562  1.1047  2.5889 -0.7509
   79SOPE   C33 7149   6.006   1.960   6.605 -0.0653 -0.3128  0.1812
   79SOPE   H3X 7150   6.072   2.025   6.666 -0.2672 -0.2768  0.3639
   79SOPE   H3Y 7151   6.005   2.009   6.505  2.6966 -0.8877 -0.1885
   79SOPE   C34 7152   6.052   1.824   6.574  0.1612 -0.0112 -0.8850
   79SOPE   H4X 7153   6.045   1.767   6.669 -1.6371  0.5388 -0.6596
   79SOPE   H4Y 7154   6.159   1.826   6.542 -0.4261 -1.1622 -3.0778
   79SOPE   C35 7155   5.992   1.749   6.450 -0.1359 -0.4026 -0.5765
   79SOPE   H5X 7156   5.882   1.764   6.451 -0.2522 -1.2253  0.5219
   79SOPE   H5Y 7157   6.012   1.642   6.471  1.8363  0.1453  0.6093
   79SOPE   C36 7158   6.044   1.793   6.317 -0.0032 -0.1498  1.0709
   79SOPE   H6X 7159   6.155   1.791   6.308 -0.0757 -2.0634  0.1433
   79SOPE   H6Y 7160   6.012   1.898   6.296 -1.5660 -0.3440  2.2453
   79SOPE   C37 7161   6.008   1.701   6.202  0.6275 -0.2963  0.7366
   79SOPE   H7X 7162   5.898   1.692   6.188  0.7666  0.5104 -1.0699
   79SOPE   H7Y 7163   6.053   1.601   6.219 -0.9940 -0.8866  1.8952
   79SOPE   C38 7164   6.068   1.747   6.066 -0.1546 -1.3885 -0.1206
   79SOPE   H8X 7165   6.179   1.746   6.073  0.2024  3.3874 -1.4580
   79SOPE   H8Y 7166   6.045   1.853   6.044 -2.0442 -1.2850  1.9415
   79SOPE   C39 7167   6.019   1.657   5.957 -0.1119  0.3166  0.0049
   79SOPE   H9X 7168   5.909   1.669   5.942 -0.0812  1.4378  0.5950
   79SOPE   H9Y 7169   6.038   1.552   5.987 -2.5697  0.8461  4.2403
   79SOPE  C310 7170   6.078   1.689   5.816 -0.4862 -0.4259 -0.7714
   79SOPE  H10X 7171   6.175   1.740   5.832 -1.3360  0.9258  0.3673
   79SOPE  H10Y 7172   6.019   1.763   5.758 -1.9152  0.7461  1.9597
   79SOPE  C311 7173   6.090   1.557   5.741 -0.7464  0.6407 -0.0983
   79SOPE  H11X 7174   5.991   1.521   5.706 -1.2392 -0.2445  2.0665
   79SOPE  H11Y 7175   6.127   1.475   5.806 -0.9685  0.0646 -0.6924
   79SOPE  C312 7176   6.197   1.567   5.628  0.7994 -0.4033 -0.4702
   79SOPE  H12X 7177   6.207   1.468   5.577 -0.5990 -0.8442  0.0397
   79SOPE  H12Y 7178   6.290   1.580   5.686 -0.6806  0.9890  1.7323
   79SOPE  C313 7179   6.166   1.675   5.520  0.5415  0.3081 -0.2124
   79SOPE  H13X 7180   6.172   1.770   5.577 -3.4698  0.3297  0.4603
   79SOPE  H13Y 7181   6.057   1.663   5.500  0.4149 -1.8251  1.3406
   79SOPE  C314 7182   6.251   1.662   5.393 -0.1064 -0.1560 -0.3640
   79SOPE  H14X 7183   6.206   1.728   5.316  0.5481  1.2074  0.3771
   79SOPE  H14Y 7184   6.253   1.556   5.359  0.5599 -0.6447  1.0792
   79SOPE  C315 7185   6.403   1.710   5.419  0.1648  0.1743 -0.4024
   79SOPE  H15X 7186   6.403   1.788   5.498  0.3748  0.3076 -0.5337
   79SOPE  H15Y 7187   6.446   1.754   5.327  3.0031  0.5242  0.9817
   79SOPE  C316 7188   6.494   1.602   5.469  0.2951  0.2564  0.0546
   79SOPE  H16X 7189   6.501   1.526   5.388 -1.2351  0.4917 -0.3371
   79SOPE  H16Y 7190   6.447   1.542   5.549 -2.2432 -2.4250 -3.1347
   79SOPE  C317 7191   6.641   1.646   5.492  0.3917 -0.3847 -1.4183
   79SOPE  H17X 7192   6.647   1.722   5.573 -4.0093  1.4116 -2.5396
   79SOPE  H17Y 7193   6.667   1.699   5.398 -1.3896 -0.3519 -1.9252
   79SOPE  C318 7194   6.738   1.531   5.520  0.1645  0.0744  0.0392
   79SOPE  H18X 7195   6.841   1.572   5.518 -0.4903  1.7938  0.2478
   79SOPE  H18Y 7196   6.741   1.439   5.458 -3.5413 -0.2397  0.1402
   79SOPE  H18Z 7197   6.724   1.492   5.623 -0.5502  0.0575 -0.0635
   80SOPE     N 7198   2.371   4.603   6.772  0.6042 -0.4950  0.4975
   80SOPE   HN1 7199   2.359   4.699   6.734  0.2801 -1.1953 -1.2527
   80SOPE   HN2 7200   2.433   4.546   6.711  1.1677  1.0587 -0.4378
   80SOPE   HN3 7201   2.273   4.567   6.772 -0.6654  2.2904  4.0926
   80SOPE   C12 7202   2.430   4.623   6.908  0.7466  0.6167 -0.3872
   80SOPE  H12A 7203   2.421   4.533   6.973  1.2318  2.1803  1.9737
   80SOPE  H12B 7204   2.377   4.711   6.951 -1.7482 -0.2052 -1.5656
   80SOPE   C11 7205   2.593   4.637   6.890  0.4934  0.0998  0.4547
   80SOPE  H11A 7206   2.623   4.684   6.987  1.0836  3.8771 -1.3695
   80SOPE  H11B 7207   2.618   4.708   6.809 -1.4506  0.0643 -0.2239
   80SOPE     P 7208   2.698   4.461   6.727  0.0056 -0.0448  0.3902
   80SOPE   O13 7209   2.575   4.457   6.652 -0.1420 -0.1847 -0.3557
   80SOPE   O14 7210   2.789   4.343   6.735  0.0379 -0.2107 -0.1346
   80SOPE   O12 7211   2.657   4.513   6.867 -0.1365 -0.2744 -1.0661
   80SOPE   O11 7212   2.792   4.584   6.681 -0.6645 -0.1042  0.3199
   80SOPE    C1 7213   2.907   4.613   6.758 -0.2042 -0.1719  0.0971
   80SOPE    HA 7214   2.996   4.554   6.726  0.8517  0.6334  1.4225
   80SOPE    HB 7215   2.879   4.612   6.866 -1.1891  1.4572 -0.1151
   80SOPE    C2 7216   2.959   4.764   6.743 -0.0124  0.0138 -0.0974
   80SOPE    HS 7217   2.871   4.827   6.770 -0.6619 -0.6872 -0.5281
   80SOPE   O21 7218   3.013   4.794   6.610  0.2700  0.3815 -0.2956
   80SOPE   C21 7219   3.013   4.929   6.583 -0.3536 -0.2933 -0.1837
   80SOPE   O22 7220   2.970   5.014   6.658 -0.1568  0.6621 -0.3888
   80SOPE   C22 7221   3.099   4.948   6.468 -0.4831 -0.4358 -0.1017
   80SOPE   H2R 7222   3.028   4.919   6.387 -1.9087  4.4206 -0.9613
   80SOPE   H2S 7223   3.178   4.871   6.469  0.2285  0.2189 -1.9479
   80SOPE    C3 7224   3.069   4.795   6.847  0.1771  0.5412  0.2048
   80SOPE    HX 7225   3.033   4.789   6.952 -0.4503 -1.0723 -0.0654
   80SOPE    HY 7226   3.089   4.904   6.845  1.1521  0.3972 -2.3514
   80SOPE   O31 7227   3.186   4.706   6.834 -0.2880 -0.4163 -0.6509
   80SOPE   C31 7228   3.289   4.753   6.766 -0.1694  0.2649  0.4698
   80SOPE   O32 7229   3.292   4.867   6.724 -0.2167  0.2145  0.2665
   80SOPE   C32 7230   3.408   4.654   6.768  0.1186  0.7738 -0.4585
   80SOPE   H2X 7231   3.391   4.547   6.744  0.1627  0.9258 -1.1747
   80SOPE   H2Y 7232   3.454   4.658   6.869 -0.9364  0.9747  0.0219
   80SOPE   C23 7233   3.164   5.093   6.465  0.5422  0.1805  0.2577
   80SOPE   H3R 7234   3.230   5.118   6.550  1.6352 -0.0720 -0.4950
   80SOPE   H3S 7235   3.078   5.164   6.471  0.8252  0.5129  0.3506
   80SOPE   C24 7236   3.222   5.124   6.328 -0.2046 -0.4907  0.1370
   80SOPE   H4R 7237   3.142   5.108   6.253  1.6107  0.7358 -2.2024
   80SOPE   H4S 7238   3.248   5.232   6.320 -2.2178  0.3542  3.2527
   80SOPE   C25 7239   3.328   5.014   6.296 -0.4620 -0.3448  0.5642
   80SOPE   H5R 7240   3.400   5.031   6.379  0.4494  0.6059 -0.3895
   80SOPE   H5S 7241   3.295   4.908   6.298  0.2487 -0.5652  1.2069
   80SOPE   C26 7242   3.396   5.044   6.158  0.6303  0.3204 -0.4050
   80SOPE   H6R 7243   3.372   5.151   6.140 -0.5941  0.0506 -0.4712
   80SOPE   H6S 7244   3.506   5.025   6.162  0.4585 -0.8211 -0.6435
   80SOPE   C27 7245   3.345   4.954   6.053  0.9188 -0.3972 -0.2328
   80SOPE   H7R 7246   3.339   4.854   6.101  0.3994 -1.8953 -3.1521
   80SOPE   H7S 7247   3.242   4.992   6.035  0.4015 -2.4796 -2.1265
   80SOPE   C28 7248   3.421   4.960   5.918  0.6131  0.1544 -0.4735
   80SOPE   H8R 7249   3.514   4.901   5.930  0.0122 -0.7497 -0.2068
   80SOPE   H8S 7250   3.361   4.907   5.841  0.0569 -1.1245  0.7961
   80SOPE   C29 7251   3.449   5.105   5.872  0.5909  0.6639 -0.0306
   80SOPE   H91 7252   3.533   5.148   5.929  0.9171  2.0881 -1.5121
   80SOPE  C210 7253   3.396   5.180   5.773 -0.5531  0.2535 -0.2814
   80SOPE  H101 7254   3.438   5.277   5.744  1.3203 -1.0563 -2.2596
   80SOPE  C211 7255   3.279   5.136   5.685 -0.7155  0.2747 -0.7741
   80SOPE  H11R 7256   3.232   5.226   5.639 -0.8076  1.4387  1.4400
   80SOPE  H11S 7257   3.204   5.094   5.754 -0.1890  1.9379  0.8859
   80SOPE  C212 7258   3.311   5.030   5.570  0.2386 -0.0524  0.5212
   80SOPE  H12R 7259   3.213   5.006   5.523  0.9069  1.1927 -1.6257
   80SOPE  H12S 7260   3.357   4.940   5.617 -0.5018 -1.7301 -1.7336
   80SOPE  C213 7261   3.412   5.069   5.464 -0.8452  0.0760  0.1873
   80SOPE  H13R 7262   3.427   4.977   5.404  2.1459  1.2756 -1.0793
   80SOPE  H13S 7263   3.500   5.109   5.518 -0.6904 -0.8040  0.5875
   80SOPE  C214 7264   3.364   5.178   5.364 -0.2212  0.6888 -0.0902
   80SOPE  H14R 7265   3.366   5.275   5.419  3.0036  1.3466 -1.1072
   80SOPE  H14S 7266   3.263   5.140   5.340 -0.4874  2.3634 -1.8547
   80SOPE  C215 7267   3.451   5.190   5.239  0.4769  0.2506  0.1155
   80SOPE  H15R 7268   3.411   5.262   5.164  0.3196 -0.8967 -0.9253
   80SOPE  H15S 7269   3.454   5.086   5.200  0.0153  0.2362  0.1071
   80SOPE  C216 7270   3.594   5.233   5.283  0.5202 -0.2690  1.0626
   80SOPE  H16R 7271   3.643   5.149   5.337  0.7046 -0.6784  0.2771
   80SOPE  H16S 7272   3.582   5.322   5.348  0.1666 -0.5627  1.4029
   80SOPE  C217 7273   3.683   5.257   5.163 -0.0106  0.1070  0.3766
   80SOPE  H17R 7274   3.636   5.335   5.100 -1.1340 -0.6820  0.1986
   80SOPE  H17S 7275   3.688   5.167   5.097 -1.6950 -1.0021  1.6740
   80SOPE  C218 7276   3.826   5.281   5.203 -0.5473 -0.6545  0.0641
   80SOPE  H18R 7277   3.824   5.361   5.281 -0.7259 -1.5636  1.0179
   80SOPE  H18S 7278   3.901   5.306   5.125  1.0011 -2.2618  0.9654
   80SOPE  H18T 7279   3.854   5.182   5.244  0.2329 -0.9500 -1.1498
   80SOPE   C33 7280   3.516   4.711   6.668 -0.1549  0.1713 -0.4954
   80SOPE   H3X 7281   3.613   4.664   6.695 -0.5933 -0.9077 -0.7504
   80SOPE   H3Y 7282   3.524   4.821   6.682  0.5050  0.1042 -0.3363
   80SOPE   C34 7283   3.489   4.695   6.517  0.3021  0.1029  0.1866
   80SOPE   H4X 7284   3.403   4.764   6.503  0.5618  0.1337 -1.5038
   80SOPE   H4Y 7285   3.458   4.592   6.487  2.5881 -0.8272  0.8284
   80SOPE   C35 7286   3.603   4.728   6.418  0.4310 -0.0929 -0.5080
   80SOPE   H5X 7287   3.692   4.688   6.470 -0.2731 -1.2800 -0.1686
   80SOPE   H5Y 7288   3.624   4.837   6.416  1.1277 -0.1546  1.5033
   80SOPE   C36 7289   3.582   4.656   6.284 -0.0194 -0.0203  0.3197
   80SOPE   H6X 7290   3.488   4.698   6.244 -0.7749 -0.1429  1.8849
   80SOPE   H6Y 7291   3.545   4.552   6.297  0.1910 -0.3700 -1.6034
   80SOPE   C37 7292   3.692   4.656   6.173  0.1322 -0.6600 -0.6149
   80SOPE   H7X 7293   3.776   4.591   6.203  1.8321  1.2278 -1.0818
   80SOPE   H7Y 7294   3.734   4.758   6.161 -1.5702  0.4095  1.6739
   80SOPE   C38 7295   3.633   4.605   6.040 -0.1122 -0.0435 -0.1379
   80SOPE   H8X 7296   3.529   4.640   6.025  0.4025  0.3117 -3.4571
   80SOPE   H8Y 7297   3.627   4.495   6.027 -0.4576  0.0841 -1.0664
   80SOPE   C39 7298   3.707   4.663   5.923 -0.0055  0.0067  0.1419
   80SOPE   H9X 7299   3.804   4.612   5.906  0.5408  0.9531  0.3427
   80SOPE   H9Y 7300   3.727   4.771   5.939  1.0449 -0.0824 -0.4529
   80SOPE  C310 7301   3.624   4.661   5.786  0.3513 -0.2556  0.1409
   80SOPE  H10X 7302   3.538   4.731   5.784 -0.0877 -0.8089 -0.9073
   80SOPE  H10Y 7303   3.595   4.559   5.754  0.8100 -1.2088  2.5537
   80SOPE  C311 7304   3.716   4.711   5.670  0.6797  0.1268 -0.1921
   80SOPE  H11X 7305   3.790   4.634   5.638 -0.6786 -1.4616  0.3420
   80SOPE  H11Y 7306   3.780   4.793   5.707 -1.9068  1.3225  2.0451
   80SOPE  C312 7307   3.644   4.765   5.541  0.4651 -0.0528  0.7910
   80SOPE  H12X 7308   3.591   4.861   5.559 -3.0943 -1.1233 -2.5882
   80SOPE  H12Y 7309   3.569   4.692   5.502  0.4533  0.6393 -0.5436
   80SOPE  C313 7310   3.737   4.786   5.423  0.0459  0.4496 -0.6218
   80SOPE  H13X 7311   3.817   4.709   5.407  0.3060  1.0368 -2.3493
   80SOPE  H13Y 7312   3.801   4.874   5.445  1.2526 -0.3739 -0.6717
   80SOPE  C314 7313   3.657   4.778   5.294  0.2518 -0.3040 -0.9044
   80SOPE  H14X 7314   3.559   4.829   5.306  1.5387  2.2300 -0.2640
   80SOPE  H14Y 7315   3.639   4.670   5.275  0.4932 -1.0740  2.5924
   80SOPE  C315 7316   3.731   4.838   5.170 -0.1404  0.1506 -0.6521
   80SOPE  H15X 7317   3.840   4.818   5.172 -0.4013 -1.7512 -2.0276
   80SOPE  H15Y 7318   3.709   4.947   5.163  1.2261  0.7851  2.7792
   80SOPE  C316 7319   3.681   4.762   5.041 -0.1117 -0.1818 -0.2430
   80SOPE  H16X 7320   3.572   4.783   5.030  0.3562  1.4223 -2.8843
   80SOPE  H16Y 7321   3.679   4.654   5.064  1.3769 -0.0118  0.8527
   80SOPE  C317 7322   3.765   4.783   4.916 -0.1814 -0.8160  0.6633
   80SOPE  H17X 7323   3.866   4.743   4.943  0.1910 -0.9002 -0.7691
   80SOPE  H17Y 7324   3.771   4.888   4.881  0.3519 -0.3512  2.0630
   80SOPE  C318 7325   3.715   4.703   4.790  1.0512  0.8324 -0.1022
   80SOPE  H18X 7326   3.614   4.739   4.760  0.9973  0.2807 -0.5973
   80SOPE  H18Y 7327   3.694   4.597   4.818  1.5689  0.5227 -0.8593
   80SOPE  H18Z 7328   3.790   4.701   4.708  1.0513  0.4235 -0.0927
   81SOPE     N 7329   1.187   1.099   7.272 -0.3437 -0.4526 -0.2010
   81SOPE   HN1 7330   1.263   1.067   7.210 -0.1559  0.7736 -0.6422
   81SOPE   HN2 7331   1.216   1.193   7.309 -1.4010  0.3450 -1.3194
   81SOPE   HN3 7332   1.168   1.042   7.357 -0.1050  0.8541  0.7757
   81SOPE   C12 7333   1.074   1.126   7.178  0.5401  0.2924 -0.4640
   81SOPE  H12A 7334   0.985   1.166   7.231 -1.5274 -0.0728 -3.4176
   81SOPE  H12B 7335   1.046   1.028   7.133  0.8017 -0.9427  1.9358
   81SOPE   C11 7336   1.123   1.222   7.074 -0.7807 -0.9945 -0.6377
   81SOPE  H11A 7337   1.048   1.252   6.997 -0.5640 -2.0414 -1.2827
   81SOPE  H11B 7338   1.197   1.175   7.006  0.9772 -1.8194  1.7055
   81SOPE     P 7339   1.126   1.482   7.142 -0.0527 -0.1516  0.0294
   81SOPE   O13 7340   1.220   1.571   7.214  0.3356  0.1603 -0.0730
   81SOPE   O14 7341   0.980   1.477   7.173 -0.5157  0.6286 -0.0335
   81SOPE   O12 7342   1.181   1.335   7.143  0.4792  0.5266 -0.5179
   81SOPE   O11 7343   1.132   1.517   6.988 -0.3093 -0.4428  0.4789
   81SOPE    C1 7344   1.253   1.514   6.921 -0.5593 -0.2659  0.3473
   81SOPE    HA 7345   1.323   1.433   6.952  0.5802  0.3035 -0.6438
   81SOPE    HB 7346   1.304   1.612   6.935 -1.0156  0.5320 -2.8845
   81SOPE    C2 7347   1.233   1.501   6.769 -0.2216  0.3054  0.2897
   81SOPE    HS 7348   1.178   1.594   6.742 -1.8804 -1.2057 -1.9327
   81SOPE   O21 7349   1.150   1.382   6.740  0.6079  0.5486 -0.1644
   81SOPE   C21 7350   1.028   1.395   6.702  1.0229 -0.0237 -0.1868
   81SOPE   O22 7351   0.971   1.505   6.690 -0.0319  0.2302  0.2885
   81SOPE   C22 7352   0.952   1.261   6.682 -0.9366  0.3558 -0.2227
   81SOPE   H2R 7353   0.847   1.276   6.712  0.0045  4.5875  1.6883
   81SOPE   H2S 7354   1.001   1.191   6.754 -1.1980  1.2921  0.8854
   81SOPE    C3 7355   1.365   1.490   6.688  0.0853  0.2950  1.3465
   81SOPE    HX 7356   1.420   1.398   6.717 -1.0582 -1.1553 -0.7953
   81SOPE    HY 7357   1.417   1.583   6.719  1.5435  0.0549 -0.2562
   81SOPE   O31 7358   1.335   1.481   6.549 -0.3452  0.5954 -0.5138
   81SOPE   C31 7359   1.358   1.591   6.475  0.3794 -0.3020  0.2966
   81SOPE   O32 7360   1.420   1.688   6.507 -0.3354  0.2210  0.0399
   81SOPE   C32 7361   1.292   1.575   6.341  0.2136  0.2052  0.1174
   81SOPE   H2X 7362   1.353   1.496   6.293  0.3667  0.8869 -0.8522
   81SOPE   H2Y 7363   1.302   1.670   6.284 -1.4603  0.7530  0.6854
   81SOPE   C23 7364   0.965   1.213   6.535  0.3623 -0.0276 -0.0302
   81SOPE   H3R 7365   0.922   1.111   6.525  0.5901 -0.3220  1.7288
   81SOPE   H3S 7366   1.069   1.197   6.499 -0.1791  0.9728 -2.2209
   81SOPE   C24 7367   0.892   1.295   6.435 -0.0936 -0.2806  0.0796
   81SOPE   H4R 7368   0.915   1.403   6.438 -0.2696 -0.2514  0.5443
   81SOPE   H4S 7369   0.901   1.254   6.333 -2.3553 -1.1892  0.1859
   81SOPE   C25 7370   0.737   1.298   6.461 -0.4402  0.0712 -0.1098
   81SOPE   H5R 7371   0.705   1.193   6.480 -0.5319 -0.1380 -1.3427
   81SOPE   H5S 7372   0.705   1.356   6.550  0.4110  0.7481 -0.2245
   81SOPE   C26 7373   0.647   1.346   6.339 -0.8464 -0.2749  0.1359
   81SOPE   H6R 7374   0.673   1.450   6.309 -0.5383 -0.8183 -1.5917
   81SOPE   H6S 7375   0.680   1.290   6.249  2.7669  1.2198  0.3575
   81SOPE   C27 7376   0.498   1.308   6.342 -0.2197 -0.0388 -0.3231
   81SOPE   H7R 7377   0.492   1.197   6.346 -0.0699 -0.0125  2.0679
   81SOPE   H7S 7378   0.464   1.344   6.442  1.7198  0.7434  0.1031
   81SOPE   C28 7379   0.411   1.355   6.224 -0.1956 -1.0836 -0.4634
   81SOPE   H8R 7380   0.306   1.330   6.248 -0.4121  0.9643  1.0125
   81SOPE   H8S 7381   0.427   1.465   6.218  0.5066 -1.1136  0.5765
   81SOPE   C29 7382   0.459   1.281   6.104  1.1948  0.5437  0.1521
   81SOPE   H91 7383   0.427   1.176   6.107  0.1372  0.8517  0.2865
   81SOPE  C210 7384   0.536   1.331   6.005  0.2761 -0.0046 -0.0926
   81SOPE  H101 7385   0.539   1.267   5.916 -4.0764  0.0746 -0.5064
   81SOPE  C211 7386   0.609   1.461   5.989 -0.4993 -0.0522 -0.6661
   81SOPE  H11R 7387   0.714   1.445   6.023 -0.4304 -0.5103 -1.0889
   81SOPE  H11S 7388   0.571   1.537   6.062  2.1310  0.9315 -0.1827
   81SOPE  C212 7389   0.600   1.511   5.848 -0.3128  0.4392 -0.0668
   81SOPE  H12R 7390   0.646   1.612   5.847  3.3240 -1.0684  0.1662
   81SOPE  H12S 7391   0.492   1.527   5.826 -0.3755  1.9931  1.2148
   81SOPE  C213 7392   0.688   1.439   5.738  0.0534  0.1394  0.5643
   81SOPE  H13R 7393   0.646   1.340   5.709  0.5695 -0.5369  2.0368
   81SOPE  H13S 7394   0.781   1.410   5.792  0.0623 -0.7613  0.0976
   81SOPE  C214 7395   0.722   1.529   5.624  0.0594 -0.5206 -0.8514
   81SOPE  H14R 7396   0.632   1.584   5.589  0.2823 -0.5231 -1.4418
   81SOPE  H14S 7397   0.762   1.463   5.544 -1.0136 -2.1428 -0.1136
   81SOPE  C215 7398   0.832   1.634   5.655 -0.7239  0.0558 -0.1568
   81SOPE  H15R 7399   0.921   1.581   5.695 -0.2851 -1.7696 -3.2252
   81SOPE  H15S 7400   0.804   1.695   5.743  0.2383  0.6768 -0.2622
   81SOPE  C216 7401   0.872   1.715   5.538 -0.3891  0.2651 -0.0198
   81SOPE  H16R 7402   0.789   1.778   5.499 -0.3791  0.6218  0.5167
   81SOPE  H16S 7403   0.909   1.648   5.458  1.2210  1.2645 -0.1631
   81SOPE  C217 7404   0.979   1.823   5.572  1.1916  0.0813  0.1093
   81SOPE  H17R 7405   1.073   1.773   5.602  1.3172  1.5594  2.3936
   81SOPE  H17S 7406   0.955   1.882   5.662  0.5434  2.2768 -1.4148
   81SOPE  C218 7407   1.012   1.906   5.451  0.4619 -0.3524 -0.2191
   81SOPE  H18R 7408   1.089   1.986   5.457  0.1754  0.2593 -3.2502
   81SOPE  H18S 7409   0.921   1.968   5.436  0.1281 -0.9034 -0.5037
   81SOPE  H18T 7410   1.032   1.840   5.364 -1.7114 -0.1701 -0.9242
   81SOPE   C33 7411   1.141   1.541   6.346 -0.3944 -0.1972 -0.0142
   81SOPE   H3X 7412   1.074   1.613   6.399  0.6895  0.5965  0.3225
   81SOPE   H3Y 7413   1.130   1.451   6.411 -0.7651 -0.6862 -0.7483
   81SOPE   C34 7414   1.072   1.502   6.213 -0.4612  0.1244 -0.0171
   81SOPE   H4X 7415   1.062   1.582   6.136  0.8857 -1.7997 -2.3121
   81SOPE   H4Y 7416   0.972   1.465   6.244 -0.2090 -0.1380  0.4779
   81SOPE   C35 7417   1.144   1.383   6.140  0.5221 -0.4126 -0.0657
   81SOPE   H5X 7418   1.141   1.299   6.214 -0.5101  1.2562  1.8839
   81SOPE   H5Y 7419   1.247   1.408   6.109  0.7739 -0.8285  0.4179
   81SOPE   C36 7420   1.069   1.358   6.008 -0.1839 -0.3573  0.0447
   81SOPE   H6X 7421   1.094   1.426   5.924 -1.4415 -1.7771 -1.5711
   81SOPE   H6Y 7422   0.960   1.372   6.028 -0.2251  1.3936 -1.2058
   81SOPE   C37 7423   1.109   1.221   5.953  0.3925 -0.5985 -0.3556
   81SOPE   H7X 7424   1.082   1.149   6.034 -0.4589  0.5899  0.4463
   81SOPE   H7Y 7425   1.215   1.214   5.919  0.4969 -0.1428 -0.1375
   81SOPE   C38 7426   1.022   1.165   5.836  0.1880 -0.0392  0.0328
   81SOPE   H8X 7427   0.915   1.187   5.860  0.1252  0.0525 -0.3325
   81SOPE   H8Y 7428   1.048   1.057   5.830  2.2073  0.4626 -1.0179
   81SOPE   C39 7429   1.051   1.238   5.705  0.1670 -0.3602  0.6101
   81SOPE   H9X 7430   1.161   1.228   5.692  0.0836 -0.9844  0.4004
   81SOPE   H9Y 7431   1.030   1.345   5.725  1.9952 -0.0705  1.2377
   81SOPE  C310 7432   0.971   1.190   5.580 -0.1361  0.3216 -0.3576
   81SOPE  H10X 7433   0.873   1.242   5.575 -0.2677  0.1355  0.2159
   81SOPE  H10Y 7434   0.947   1.082   5.592  0.2999  0.2697  0.0823
   81SOPE  C311 7435   1.041   1.193   5.446 -0.6816 -0.1128 -0.5274
   81SOPE  H11X 7436   0.967   1.168   5.367 -0.6550  0.6387 -0.8002
   81SOPE  H11Y 7437   1.127   1.124   5.462 -0.3841  0.7808  2.2230
   81SOPE  C312 7438   1.099   1.333   5.402  0.4425  0.2507 -0.2037
   81SOPE  H12X 7439   1.155   1.386   5.482 -0.5794  0.3525  0.4661
   81SOPE  H12Y 7440   1.020   1.410   5.388 -0.2165 -0.1718  1.1307
   81SOPE  C313 7441   1.172   1.324   5.271 -0.6055  0.5352  0.5281
   81SOPE  H13X 7442   1.124   1.266   5.190 -1.7606 -0.4441  1.8481
   81SOPE  H13Y 7443   1.267   1.267   5.285 -0.7885 -0.1050 -0.7061
   81SOPE  C314 7444   1.221   1.467   5.216  0.1444 -0.1381  0.1536
   81SOPE  H14X 7445   1.274   1.526   5.294  0.8032 -0.1305 -0.2923
   81SOPE  H14Y 7446   1.127   1.519   5.188 -0.3510 -1.0209  0.1497
   81SOPE  C315 7447   1.314   1.453   5.092 -0.1879  0.1642 -0.5004
   81SOPE  H15X 7448   1.404   1.412   5.143 -1.3157 -0.5248  1.0111
   81SOPE  H15Y 7449   1.329   1.553   5.047 -1.9364  1.1464  0.9555
   81SOPE  C316 7450   1.289   1.341   4.996 -0.4179 -0.0475  0.1452
   81SOPE  H16X 7451   1.183   1.313   4.984 -0.2844 -1.5066  1.9689
   81SOPE  H16Y 7452   1.326   1.245   5.037 -3.1105 -0.7637  1.0790
   81SOPE  C317 7453   1.359   1.364   4.856  0.6541  0.1113 -0.7593
   81SOPE  H17X 7454   1.467   1.370   4.881  0.3487 -1.2097  1.0646
   81SOPE  H17Y 7455   1.335   1.462   4.808 -3.6098  1.2373  3.0186
   81SOPE  C318 7456   1.321   1.246   4.766  0.0637 -0.7585  0.0226
   81SOPE  H18X 7457   1.232   1.272   4.704 -0.0254  0.3233  0.5892
   81SOPE  H18Y 7458   1.305   1.158   4.832 -1.0880 -1.3311 -0.9513
   81SOPE  H18Z 7459   1.403   1.212   4.699  0.1675 -0.7108  0.1259
   82SOPE     N 7460   3.547   5.990   7.329 -0.0464 -0.2627 -0.7468
   82SOPE   HN1 7461   3.594   5.908   7.286  0.0800 -2.6546  3.4164
   82SOPE   HN2 7462   3.560   6.070   7.264  0.2482 -0.9410 -1.5450
   82SOPE   HN3 7463   3.590   6.008   7.422 -1.2440  1.8015 -0.5126
   82SOPE   C12 7464   3.393   5.968   7.339 -0.6074 -0.3382  0.4183
   82SOPE  H12A 7465   3.355   5.984   7.236  1.2420  3.0157  0.1006
   82SOPE  H12B 7466   3.346   6.050   7.399 -1.7963  0.1678 -1.1259
   82SOPE   C11 7467   3.357   5.835   7.402 -0.9243  0.2838  0.1378
   82SOPE  H11A 7468   3.247   5.826   7.393 -0.9971  1.7742 -0.9154
   82SOPE  H11B 7469   3.376   5.845   7.511 -2.1198  1.8307  0.2478
   82SOPE     P 7470   3.347   5.615   7.265  0.1655 -0.5145  0.1720
   82SOPE   O13 7471   3.259   5.550   7.365 -0.3962  0.2914  0.4636
   82SOPE   O14 7472   3.455   5.536   7.195 -0.0918  0.1001  0.9004
   82SOPE   O12 7473   3.428   5.730   7.335 -0.1446 -0.3909 -0.3527
   82SOPE   O11 7474   3.278   5.709   7.165  1.0502  1.1042  0.0024
   82SOPE    C1 7475   3.132   5.734   7.142  0.1064 -0.3279  0.8589
   82SOPE    HA 7476   3.133   5.842   7.118  1.6212 -0.5226 -0.1352
   82SOPE    HB 7477   3.075   5.724   7.236  2.2620  1.4017  2.4558
   82SOPE    C2 7478   3.073   5.657   7.019 -0.3431  0.0228 -0.1124
   82SOPE    HS 7479   3.059   5.550   7.048  1.1105  0.0244  0.7226
   82SOPE   O21 7480   3.171   5.657   6.911  0.0366 -0.8138 -0.6247
   82SOPE   C21 7481   3.152   5.568   6.814  0.7688  0.1787 -0.0246
   82SOPE   O22 7482   3.058   5.493   6.804 -0.9167 -0.4183 -0.3191
   82SOPE   C22 7483   3.257   5.586   6.697 -0.5722 -1.0287  0.1659
   82SOPE   H2R 7484   3.350   5.615   6.751 -0.3338 -1.7234  0.1412
   82SOPE   H2S 7485   3.229   5.674   6.636  0.0408 -1.2281 -0.4100
   82SOPE    C3 7486   2.940   5.723   6.978  0.1713 -0.4252 -0.3838
   82SOPE    HX 7487   2.869   5.706   7.063 -2.2246 -0.9556 -2.3863
   82SOPE    HY 7488   2.887   5.667   6.898 -0.1866 -0.6023 -0.0287
   82SOPE   O31 7489   2.955   5.867   6.948 -0.1155 -0.1365 -0.4959
   82SOPE   C31 7490   2.984   5.896   6.821  0.1845 -0.4444 -0.2479
   82SOPE   O32 7491   2.987   5.811   6.731  0.6957 -0.0366  0.4649
   82SOPE   C32 7492   2.980   6.048   6.820  0.6770 -0.1336 -0.1018
   82SOPE   H2X 7493   3.065   6.088   6.879  0.3488  1.5134 -0.6999
   82SOPE   H2Y 7494   2.885   6.090   6.859 -0.3036 -1.6458 -0.8067
   82SOPE   C23 7495   3.271   5.459   6.605 -0.2115  0.6154  0.3398
   82SOPE   H3R 7496   3.186   5.447   6.534  1.3133 -0.5545 -1.3946
   82SOPE   H3S 7497   3.273   5.368   6.669 -0.5633 -0.1112 -0.6479
   82SOPE   C24 7498   3.402   5.457   6.517  0.3172 -0.2615  0.4971
   82SOPE   H4R 7499   3.494   5.477   6.577 -0.7184 -0.3182  2.1857
   82SOPE   H4S 7500   3.415   5.350   6.493  2.8632  0.2113 -0.4902
   82SOPE   C25 7501   3.396   5.551   6.398 -0.9540  0.0164 -0.2101
   82SOPE   H5R 7502   3.303   5.555   6.337  0.2790 -0.0885 -2.2192
   82SOPE   H5S 7503   3.408   5.654   6.437 -0.2884 -0.6057  1.2896
   82SOPE   C26 7504   3.505   5.515   6.299 -0.1910  0.2309  0.2041
   82SOPE   H6R 7505   3.604   5.534   6.345 -0.7220 -0.6920  1.7844
   82SOPE   H6S 7506   3.506   5.408   6.269  0.2343  0.0648  0.8109
   82SOPE   C27 7507   3.488   5.599   6.164 -0.1427 -0.4951  0.1493
   82SOPE   H7R 7508   3.400   5.550   6.118 -0.1666  0.6874 -1.1181
   82SOPE   H7S 7509   3.457   5.703   6.187  0.1278 -0.4920  0.5161
   82SOPE   C28 7510   3.609   5.599   6.076 -0.7606  0.6006  1.0197
   82SOPE   H8R 7511   3.700   5.620   6.136  0.2604  0.0153 -0.2718
   82SOPE   H8S 7512   3.634   5.502   6.027  1.1736  0.5052  2.1138
   82SOPE   C29 7513   3.607   5.716   5.983  0.5500 -0.0808 -0.1586
   82SOPE   H91 7514   3.637   5.807   6.036  1.1109 -0.6561  0.5241
   82SOPE  C210 7515   3.610   5.708   5.848 -0.7533 -0.5258  0.2219
   82SOPE  H101 7516   3.610   5.805   5.798 -0.8646 -0.3457  0.5700
   82SOPE  C211 7517   3.615   5.588   5.763 -0.2526 -0.3814 -0.8239
   82SOPE  H11R 7518   3.515   5.539   5.765  0.1578 -1.2168 -0.4386
   82SOPE  H11S 7519   3.690   5.519   5.806 -1.6211 -1.2595  0.2273
   82SOPE  C212 7520   3.658   5.616   5.620 -0.7178  0.4328  0.5441
   82SOPE  H12R 7521   3.652   5.519   5.566  2.0065  1.1163 -1.1493
   82SOPE  H12S 7522   3.761   5.656   5.618 -0.2691 -0.6292 -2.0924
   82SOPE  C213 7523   3.562   5.705   5.543 -0.3182 -0.2249  0.7699
   82SOPE  H13R 7524   3.576   5.813   5.565 -1.6260  0.0760  0.1982
   82SOPE  H13S 7525   3.459   5.687   5.582 -0.6212 -0.7778 -0.2306
   82SOPE  C214 7526   3.550   5.692   5.391 -0.7698  0.3715 -0.5421
   82SOPE  H14R 7527   3.488   5.777   5.355 -0.6500  0.7631  0.1514
   82SOPE  H14S 7528   3.488   5.602   5.371 -0.2944  0.1996 -1.2622
   82SOPE  C215 7529   3.691   5.685   5.331 -1.0042  0.0707  0.0236
   82SOPE  H15R 7530   3.736   5.592   5.374  1.2980  1.9700  2.0710
   82SOPE  H15S 7531   3.752   5.774   5.358  1.6005 -1.3464 -0.7666
   82SOPE  C216 7532   3.694   5.671   5.181  0.5613  0.2187 -0.1702
   82SOPE  H16R 7533   3.633   5.754   5.138  0.3116 -0.6451 -1.5273
   82SOPE  H16S 7534   3.643   5.576   5.156  1.1611 -0.1173 -0.1305
   82SOPE  C217 7535   3.833   5.673   5.122  0.0699 -0.7124  0.0009
   82SOPE  H17R 7536   3.905   5.611   5.180  2.6895 -0.1887 -2.4703
   82SOPE  H17S 7537   3.879   5.773   5.129 -0.3986 -0.5462  0.9858
   82SOPE  C218 7538   3.827   5.618   4.976  0.3193 -0.5779  0.0594
   82SOPE  H18R 7539   3.798   5.511   4.974 -1.8245 -0.0325  0.1194
   82SOPE  H18S 7540   3.927   5.616   4.926 -1.2460  0.3614 -3.3803
   82SOPE  H18T 7541   3.750   5.675   4.921 -0.5018 -0.5234  1.2177
   82SOPE   C33 7542   3.003   6.120   6.681 -0.0510  0.0400  1.1991
   82SOPE   H3X 7543   3.079   6.062   6.624 -1.9544 -2.8712  1.3632
   82SOPE   H3Y 7544   3.029   6.227   6.688 -1.2606  0.4845 -0.3338
   82SOPE   C34 7545   2.890   6.112   6.580  0.7615 -0.0559 -0.2292
   82SOPE   H4X 7546   2.814   6.193   6.585 -1.3689 -2.0071  0.9396
   82SOPE   H4Y 7547   2.839   6.014   6.583  0.4503  0.1036 -0.2325
   82SOPE   C35 7548   2.933   6.138   6.440 -0.0707 -0.0998  0.0393
   82SOPE   H5X 7549   3.027   6.084   6.416 -0.0606 -1.3128  2.5206
   82SOPE   H5Y 7550   2.956   6.247   6.430  1.0120 -0.2177  1.0267
   82SOPE   C36 7551   2.831   6.113   6.319 -0.5371  0.3806  0.1180
   82SOPE   H6X 7552   2.732   6.159   6.342 -1.3516 -1.2143 -0.0707
   82SOPE   H6Y 7553   2.803   6.006   6.311 -3.2593  1.0959 -0.9902
   82SOPE   C37 7554   2.894   6.174   6.193 -1.1848  0.4856 -0.6674
   82SOPE   H7X 7555   2.997   6.135   6.175 -0.8691  1.7675 -1.7966
   82SOPE   H7Y 7556   2.914   6.280   6.222 -0.0061  0.5998 -1.7989
   82SOPE   C38 7557   2.811   6.167   6.062 -0.1248  0.6430  0.0540
   82SOPE   H8X 7558   2.705   6.192   6.084 -0.7816 -1.2195 -0.8139
   82SOPE   H8Y 7559   2.818   6.062   6.028  0.0235  0.8294 -0.4930
   82SOPE   C39 7560   2.863   6.263   5.956  0.1505  0.1717  0.6842
   82SOPE   H9X 7561   2.974   6.261   5.967  0.0377 -0.1688  2.0307
   82SOPE   H9Y 7562   2.820   6.366   5.955 -0.1208  0.0561  0.1847
   82SOPE  C310 7563   2.829   6.221   5.808 -0.3063  0.8429 -1.1688
   82SOPE  H10X 7564   2.721   6.195   5.804 -0.1378 -0.6811  1.7509
   82SOPE  H10Y 7565   2.887   6.127   5.797  0.7888  1.5627 -1.7193
   82SOPE  C311 7566   2.862   6.317   5.699  0.2243 -0.0585  0.3701
   82SOPE  H11X 7567   2.969   6.310   5.669  0.5663  0.8778  1.3409
   82SOPE  H11Y 7568   2.837   6.423   5.721 -4.1910 -0.3990 -1.7496
   82SOPE  C312 7569   2.778   6.294   5.568  1.1133  0.4910  0.3359
   82SOPE  H12X 7570   2.791   6.381   5.500  1.6342  0.2850  0.1724
   82SOPE  H12Y 7571   2.672   6.269   5.589  1.7515 -2.0565  0.8207
   82SOPE  C313 7572   2.830   6.168   5.490 -0.8709 -0.0606  0.0807
   82SOPE  H13X 7573   2.808   6.072   5.540 -2.6502  1.3226  2.1185
   82SOPE  H13Y 7574   2.939   6.183   5.474 -1.1503  1.7654 -0.3839
   82SOPE  C314 7575   2.778   6.160   5.349 -0.4091  0.1372  0.5151
   82SOPE  H14X 7576   2.762   6.257   5.298 -1.3104 -0.0356  0.4612
   82SOPE  H14Y 7577   2.684   6.100   5.348  0.7072 -1.7487 -1.8575
   82SOPE  C315 7578   2.875   6.075   5.259  0.5950 -0.5335 -0.0395
   82SOPE  H15X 7579   2.825   6.026   5.173  0.5713 -0.5571 -0.0124
   82SOPE  H15Y 7580   2.930   5.996   5.315 -0.2868 -0.4720  0.9354
   82SOPE  C316 7581   2.986   6.166   5.199 -0.1478 -0.4893  0.1307
   82SOPE  H16X 7582   3.016   6.246   5.271  0.6643 -1.7456  1.2482
   82SOPE  H16Y 7583   2.940   6.220   5.114 -1.2692 -2.5808 -0.6420
   82SOPE  C317 7584   3.106   6.096   5.139 -0.9561  0.2143 -0.0811
   82SOPE  H17X 7585   3.157   6.052   5.227  1.6865 -0.7799 -1.9840
   82SOPE  H17Y 7586   3.171   6.172   5.090 -2.3699  0.4708 -1.6944
   82SOPE  C318 7587   3.067   5.999   5.030  0.2761  0.7193 -0.2349
   82SOPE  H18X 7588   3.023   6.048   4.940  0.9364 -0.3871 -1.1941
   82SOPE  H18Y 7589   2.990   5.921   5.049  0.9556  0.2294  0.5899
   82SOPE  H18Z 7590   3.158   5.938   5.006  0.0487 -0.9000  2.5954
   83SOPE     N 7591   3.760   4.242   2.600  0.3394  0.0798  0.0150
   83SOPE   HN1 7592   3.759   4.212   2.500  0.3263 -2.0523  0.5897
   83SOPE   HN2 7593   3.765   4.159   2.663 -1.4632  0.1023  0.2632
   83SOPE   HN3 7594   3.670   4.286   2.629  0.6993 -0.4518  2.1368
   83SOPE   C12 7595   3.866   4.337   2.634 -0.2890  0.1148  0.3438
   83SOPE  H12A 7596   3.963   4.287   2.617 -0.9742 -0.8712 -0.8619
   83SOPE  H12B 7597   3.853   4.354   2.743  2.2613 -1.7265  1.0347
   83SOPE   C11 7598   3.867   4.461   2.546 -0.6105 -0.1925 -0.2453
   83SOPE  H11A 7599   3.952   4.527   2.573 -1.0331  0.4911 -0.5572
   83SOPE  H11B 7600   3.778   4.527   2.561 -1.2372 -0.6934 -1.6350
   83SOPE     P 7601   3.888   4.520   2.289 -0.1011 -0.1015 -0.2422
   83SOPE   O13 7602   3.819   4.447   2.179  0.3878 -0.2805  0.2975
   83SOPE   O14 7603   4.020   4.583   2.258 -0.1923 -0.5031  0.0729
   83SOPE   O12 7604   3.890   4.422   2.417  0.1039 -0.2392 -0.1360
   83SOPE   O11 7605   3.813   4.638   2.351  0.3063 -0.4078 -0.3509
   83SOPE    C1 7606   3.694   4.694   2.299  0.7496 -0.6711 -0.1740
   83SOPE    HA 7607   3.661   4.658   2.199 -2.3063 -1.3238  0.9330
   83SOPE    HB 7608   3.707   4.804   2.295 -0.4812 -0.4283  1.4077
   83SOPE    C2 7609   3.578   4.673   2.391  0.3478  0.3573 -0.3418
   83SOPE    HS 7610   3.493   4.735   2.355 -0.6004 -0.1755  0.9351
   83SOPE   O21 7611   3.616   4.724   2.524  0.4765  0.2608  0.4141
   83SOPE   C21 7612   3.563   4.835   2.570 -0.0809 -0.2094  0.0802
   83SOPE   O22 7613   3.486   4.904   2.507 -0.4047  1.0003  0.1429
   83SOPE   C22 7614   3.602   4.866   2.721  0.2071 -0.4065 -0.3336
   83SOPE   H2R 7615   3.702   4.913   2.724  0.4459 -0.7707 -1.6654
   83SOPE   H2S 7616   3.618   4.771   2.777  0.5648 -0.5674 -0.7029
   83SOPE    C3 7617   3.526   4.528   2.394  0.1521  0.3776 -0.4138
   83SOPE    HX 7618   3.603   4.454   2.425 -1.4905 -0.8550  0.9427
   83SOPE    HY 7619   3.499   4.501   2.289  2.4350  2.3722 -1.6195
   83SOPE   O31 7620   3.411   4.508   2.476 -0.0434  0.3689  0.4251
   83SOPE   C31 7621   3.416   4.422   2.575 -0.7990 -0.8496  0.0021
   83SOPE   O32 7622   3.508   4.350   2.609 -0.1653  0.5468  0.3468
   83SOPE   C32 7623   3.296   4.434   2.660  0.0772  0.3086 -0.2781
   83SOPE   H2X 7624   3.210   4.383   2.613  0.2510 -2.1523  1.8453
   83SOPE   H2Y 7625   3.267   4.541   2.664  1.2805  0.6150  2.2689
   83SOPE   C23 7626   3.496   4.966   2.783  0.4009  0.2085 -0.2071
   83SOPE   H3R 7627   3.394   4.932   2.756 -0.9295  0.7669  3.5734
   83SOPE   H3S 7628   3.513   5.065   2.734 -0.3394 -0.5567 -2.1150
   83SOPE   C24 7629   3.511   4.986   2.937  0.1278  0.2616  0.2924
   83SOPE   H4R 7630   3.612   5.021   2.968 -0.8035  2.1141  1.4338
   83SOPE   H4S 7631   3.446   5.071   2.966 -0.7627 -0.4545  0.4123
   83SOPE   C25 7632   3.483   4.855   3.009 -0.3832  0.0240 -0.2721
   83SOPE   H5R 7633   3.376   4.826   2.997 -0.5589  0.6973 -0.3845
   83SOPE   H5S 7634   3.543   4.774   2.963  2.9681  1.6090  0.9979
   83SOPE   C26 7635   3.498   4.868   3.166  0.2707  0.5644  0.1181
   83SOPE   H6R 7636   3.602   4.897   3.192  0.3706 -1.2188  1.9257
   83SOPE   H6S 7637   3.443   4.959   3.197  1.5942  1.5939 -0.4187
   83SOPE   C27 7638   3.460   4.752   3.253 -0.1330  0.2189 -0.2951
   83SOPE   H7R 7639   3.356   4.723   3.228 -0.4077 -2.0334  2.9162
   83SOPE   H7S 7640   3.532   4.670   3.234 -0.2156 -0.0599  0.5469
   83SOPE   C28 7641   3.453   4.780   3.408  0.2762 -0.1615 -0.2669
   83SOPE   H8R 7642   3.559   4.811   3.421  0.1710 -0.0997  0.4881
   83SOPE   H8S 7643   3.390   4.871   3.422  1.3338  0.4505  0.7486
   83SOPE   C29 7644   3.408   4.659   3.487 -0.3829 -0.3624  0.4378
   83SOPE   H91 7645   3.404   4.570   3.422  1.0681 -0.1986  0.0915
   83SOPE  C210 7646   3.360   4.650   3.612  0.3109  0.2353  0.3138
   83SOPE  H101 7647   3.334   4.550   3.652 -2.8673 -0.6195 -3.2734
   83SOPE  C211 7648   3.348   4.755   3.719 -0.4289 -0.1855 -0.5665
   83SOPE  H11R 7649   3.406   4.726   3.809  0.7720 -1.9756 -1.8229
   83SOPE  H11S 7650   3.245   4.765   3.759  0.9655  1.0819  3.0983
   83SOPE  C212 7651   3.393   4.910   3.704 -0.0419  0.2801 -0.1020
   83SOPE  H12R 7652   3.322   4.961   3.636 -1.2306  1.2621  1.8079
   83SOPE  H12S 7653   3.492   4.915   3.653 -0.3175  0.6235 -0.6091
   83SOPE  C213 7654   3.420   4.975   3.840  0.2813  0.3051  0.6086
   83SOPE  H13R 7655   3.470   5.074   3.835  1.5385 -0.3588 -1.8683
   83SOPE  H13S 7656   3.501   4.923   3.895  0.8781  1.6531  1.0476
   83SOPE  C214 7657   3.288   4.984   3.922  0.1332  0.5766  0.3507
   83SOPE  H14R 7658   3.216   4.934   3.854  0.6105  1.6313 -0.9763
   83SOPE  H14S 7659   3.263   5.092   3.933  1.1493  0.6826  2.0689
   83SOPE  C215 7660   3.315   4.915   4.055 -0.0808 -0.1990  0.6231
   83SOPE  H15R 7661   3.357   4.814   4.041  1.0059  0.2047  0.9012
   83SOPE  H15S 7662   3.219   4.908   4.111  0.7493 -2.7089  1.8969
   83SOPE  C216 7663   3.416   4.998   4.145  0.2971 -0.1135  0.4921
   83SOPE  H16R 7664   3.381   5.098   4.177  1.2009  0.0683  0.9171
   83SOPE  H16S 7665   3.512   5.011   4.091 -0.6116 -0.3739 -1.2624
   83SOPE  C217 7666   3.448   4.913   4.270  0.1693 -0.1895  0.3853
   83SOPE  H17R 7667   3.529   4.964   4.326  1.0638  0.5687 -1.5165
   83SOPE  H17S 7668   3.477   4.811   4.235 -3.1767 -1.1778  0.0818
   83SOPE  C218 7669   3.330   4.898   4.371 -0.2599 -0.1642 -0.4304
   83SOPE  H18R 7670   3.240   4.869   4.315 -1.2787  0.2815  0.9209
   83SOPE  H18S 7671   3.314   4.993   4.428  0.2528 -0.6426  0.5512
   83SOPE  H18T 7672   3.360   4.817   4.441 -0.7549  0.9393  1.1080
   83SOPE   C33 7673   3.307   4.373   2.803 -0.4862 -0.2870  0.8742
   83SOPE   H3X 7674   3.333   4.265   2.806  0.3849 -0.1047  0.3358
   83SOPE   H3Y 7675   3.213   4.381   2.861 -0.3527 -0.8248  1.1714
   83SOPE   C34 7676   3.412   4.440   2.889  0.0401  0.5876  0.3277
   83SOPE   H4X 7677   3.386   4.544   2.917 -1.4089  0.7199 -1.3062
   83SOPE   H4Y 7678   3.510   4.444   2.837 -0.0068  2.0196  0.2973
   83SOPE   C35 7679   3.416   4.371   3.029  0.1041  0.0186  0.9356
   83SOPE   H5X 7680   3.318   4.362   3.080  0.1125  2.8801  1.5976
   83SOPE   H5Y 7681   3.470   4.444   3.094 -2.0872  1.1010  1.6128
   83SOPE   C36 7682   3.501   4.243   3.025 -0.3639 -0.3348  0.6983
   83SOPE   H6X 7683   3.602   4.247   2.980 -0.7799 -2.9743 -0.6887
   83SOPE   H6Y 7684   3.440   4.173   2.964 -0.1305  0.6054 -0.6553
   83SOPE   C37 7685   3.515   4.185   3.168 -0.6339 -0.3705  0.3278
   83SOPE   H7X 7686   3.577   4.094   3.155 -0.2298 -0.1262  0.5083
   83SOPE   H7Y 7687   3.416   4.159   3.209 -2.0271  0.6141 -2.1992
   83SOPE   C38 7688   3.596   4.281   3.258  0.1015  0.1464  0.2354
   83SOPE   H8X 7689   3.609   4.386   3.223  1.4262  0.6172  1.9833
   83SOPE   H8Y 7690   3.699   4.240   3.245 -0.6098 -0.7569 -4.3400
   83SOPE   C39 7691   3.538   4.293   3.403 -0.9481  0.3189  0.4721
   83SOPE   H9X 7692   3.521   4.187   3.433 -1.0008  0.6556  1.6738
   83SOPE   H9Y 7693   3.439   4.345   3.401 -0.7435  0.7091  0.3294
   83SOPE  C310 7694   3.626   4.368   3.502  0.2451  0.7536  0.8099
   83SOPE  H10X 7695   3.626   4.478   3.495 -1.1836  0.7201 -0.1287
   83SOPE  H10Y 7696   3.730   4.333   3.482 -0.1425  0.9562 -1.9003
   83SOPE  C311 7697   3.605   4.314   3.636 -0.3525 -0.0045  0.1737
   83SOPE  H11X 7698   3.663   4.220   3.650 -0.1327  0.1193  0.1018
   83SOPE  H11Y 7699   3.496   4.304   3.655 -0.4900  0.8975 -0.1189
   83SOPE  C312 7700   3.639   4.409   3.758 -0.2464 -0.0101 -0.3143
   83SOPE  H12X 7701   3.574   4.496   3.739 -1.8219 -1.2533 -0.8952
   83SOPE  H12Y 7702   3.738   4.460   3.759 -0.7056  0.8980 -0.5506
   83SOPE  C313 7703   3.612   4.350   3.897  0.1621  0.3602 -0.0168
   83SOPE  H13X 7704   3.686   4.271   3.921  0.1653  0.2049 -0.5124
   83SOPE  H13Y 7705   3.520   4.288   3.898  1.7044 -2.2078 -2.1154
   83SOPE  C314 7706   3.599   4.451   4.010  0.4194  0.0978 -0.1442
   83SOPE  H14X 7707   3.520   4.528   4.003  1.3198  1.1730  0.9930
   83SOPE  H14Y 7708   3.692   4.512   4.009 -0.3371  1.2703 -0.6490
   83SOPE  C315 7709   3.581   4.376   4.141 -0.2906 -0.3872  0.9779
   83SOPE  H15X 7710   3.651   4.290   4.144  1.6530  0.8852 -2.1424
   83SOPE  H15Y 7711   3.478   4.335   4.139 -0.4616 -0.3182  3.8178
   83SOPE  C316 7712   3.588   4.462   4.262  0.4665  0.6543 -0.8348
   83SOPE  H16X 7713   3.519   4.547   4.238 -1.9146 -1.4764 -2.0731
   83SOPE  H16Y 7714   3.685   4.514   4.274  0.9107 -0.6683  1.7815
   83SOPE  C317 7715   3.535   4.398   4.386  0.4489 -1.0273  0.2603
   83SOPE  H17X 7716   3.609   4.324   4.422  1.1218 -0.6211 -0.2628
   83SOPE  H17Y 7717   3.443   4.337   4.372  0.8954 -1.4794 -0.8082
   83SOPE  C318 7718   3.513   4.494   4.503 -0.0126  0.0353 -0.0981
   83SOPE  H18X 7719   3.611   4.543   4.520 -0.1868  0.2823  0.1976
   83SOPE  H18Y 7720   3.488   4.429   4.589  2.7739 -1.3971 -0.2598
   83SOPE  H18Z 7721   3.441   4.577   4.484  0.3443  0.2758 -0.4243
   84SOPE     N 7722   2.727   2.176   2.799  0.7418  0.2954  0.4653
   84SOPE   HN1 7723   2.817   2.150   2.754  0.4977 -0.1337  0.2231
   84SOPE   HN2 7724   2.676   2.088   2.821 -0.1473 -0.1854 -2.9410
   84SOPE   HN3 7725   2.670   2.231   2.731 -1.5565 -3.6192 -1.0945
   84SOPE   C12 7726   2.757   2.250   2.928 -0.0015 -0.5022 -0.1552
   84SOPE  H12A 7727   2.804   2.175   2.994  0.8969 -1.2108 -1.5314
   84SOPE  H12B 7728   2.656   2.278   2.964  0.3719 -0.0394  0.5474
   84SOPE   C11 7729   2.858   2.365   2.901 -0.2514  0.0035 -0.7167
   84SOPE  H11A 7730   2.888   2.417   2.995  2.0093 -0.7463 -0.9541
   84SOPE  H11B 7731   2.820   2.447   2.836  0.9144  1.7925  0.7489
   84SOPE     P 7732   3.112   2.406   2.821  0.0210 -0.4183  0.1114
   84SOPE   O13 7733   3.073   2.544   2.779  0.0951  0.4855 -0.0208
   84SOPE   O14 7734   3.207   2.337   2.733  0.0125  0.1068  0.1155
   84SOPE   O12 7735   2.981   2.318   2.849  0.2447 -0.2541  0.4367
   84SOPE   O11 7736   3.168   2.423   2.961 -0.0660  0.0100  0.0467
   84SOPE    C1 7737   3.185   2.297   3.032  0.7831  0.3952  0.7738
   84SOPE    HA 7738   3.172   2.206   2.970 -1.1558  1.7547 -0.9476
   84SOPE    HB 7739   3.109   2.292   3.113  0.0526  0.8612  0.1309
   84SOPE    C2 7740   3.327   2.293   3.095 -0.3213 -0.2704  0.8254
   84SOPE    HS 7741   3.336   2.194   3.146 -3.2131 -0.0446  1.9799
   84SOPE   O21 7742   3.341   2.401   3.182  0.2582  0.0992 -0.3909
   84SOPE   C21 7743   3.296   2.377   3.311  0.2114 -0.4782 -0.1143
   84SOPE   O22 7744   3.260   2.270   3.350 -0.0646 -0.6061 -0.5902
   84SOPE   C22 7745   3.300   2.512   3.394  0.3575 -0.5990  0.5045
   84SOPE   H2R 7746   3.250   2.495   3.491 -0.6677  0.1437  0.1226
   84SOPE   H2S 7747   3.234   2.582   3.340 -0.2224 -1.6949 -0.2335
   84SOPE    C3 7748   3.442   2.312   2.986  0.3195  0.1617  0.3271
   84SOPE    HX 7749   3.433   2.410   2.936  3.1023  0.3679  0.0589
   84SOPE    HY 7750   3.424   2.235   2.908  2.6975 -2.8206  2.4754
   84SOPE   O31 7751   3.570   2.296   3.049  0.2216  0.1887 -0.0393
   84SOPE   C31 7752   3.635   2.405   3.074  0.5961  0.1499 -0.5429
   84SOPE   O32 7753   3.600   2.520   3.052 -0.3683  0.6550  0.2061
   84SOPE   C32 7754   3.759   2.367   3.135 -0.3241  0.2603  0.4723
   84SOPE   H2X 7755   3.834   2.370   3.054 -2.3645  1.9521 -1.5024
   84SOPE   H2Y 7756   3.755   2.261   3.169 -0.4097 -0.6121 -2.1013
   84SOPE   C23 7757   3.435   2.569   3.426 -0.1190 -0.5259  0.1124
   84SOPE   H3R 7758   3.424   2.666   3.480  0.7566 -0.7833  0.7665
   84SOPE   H3S 7759   3.498   2.587   3.336 -0.7451  1.8270  0.0798
   84SOPE   C24 7760   3.526   2.480   3.507  0.4663  0.4635  0.3268
   84SOPE   H4R 7761   3.548   2.379   3.466  2.5461  0.7035  0.7480
   84SOPE   H4S 7762   3.629   2.520   3.521  0.5248  2.1422 -3.4666
   84SOPE   C25 7763   3.469   2.459   3.650 -0.5711  0.8400 -0.3804
   84SOPE   H5R 7764   3.437   2.556   3.694  1.7462  1.7224 -0.4999
   84SOPE   H5S 7765   3.377   2.396   3.645 -1.7209  2.5203 -1.2068
   84SOPE   C26 7766   3.578   2.416   3.742  0.6991  0.2271  0.0132
   84SOPE   H6R 7767   3.624   2.324   3.700  0.3522  0.3426 -0.6234
   84SOPE   H6S 7768   3.652   2.497   3.758 -0.7106  1.5154  0.2280
   84SOPE   C27 7769   3.523   2.385   3.879  0.6406  0.5753 -0.3704
   84SOPE   H7R 7770   3.473   2.466   3.937  0.2983 -1.6841  2.7770
   84SOPE   H7S 7771   3.449   2.306   3.857  0.0987  1.3015 -1.2064
   84SOPE   C28 7772   3.650   2.346   3.962 -0.0438  0.3117  0.1786
   84SOPE   H8R 7773   3.719   2.301   3.887  0.2806  0.7005  0.2437
   84SOPE   H8S 7774   3.692   2.436   4.010 -1.8044  1.6406 -0.6420
   84SOPE   C29 7775   3.605   2.247   4.065 -0.7403 -0.0679 -0.0172
   84SOPE   H91 7776   3.535   2.168   4.032 -0.8577  0.7271 -1.7576
   84SOPE  C210 7777   3.637   2.238   4.196 -0.2548  0.0472  0.4210
   84SOPE  H101 7778   3.570   2.168   4.249 -2.2282  0.7617 -0.9864
   84SOPE  C211 7779   3.726   2.332   4.267  0.2071 -0.2563 -0.0134
   84SOPE  H11R 7780   3.796   2.379   4.194  1.1775 -0.4088  0.7878
   84SOPE  H11S 7781   3.778   2.280   4.350 -1.3261  2.7146  3.0223
   84SOPE  C212 7782   3.661   2.454   4.318 -0.3959 -0.4297  0.3562
   84SOPE  H12R 7783   3.599   2.515   4.249  0.0899  0.8855  1.0448
   84SOPE  H12S 7784   3.730   2.536   4.346  1.7336 -0.7187 -3.3254
   84SOPE  C213 7785   3.572   2.422   4.444  0.3113  0.0122  0.4885
   84SOPE  H13R 7786   3.498   2.344   4.417 -1.1699  1.3031  0.6701
   84SOPE  H13S 7787   3.520   2.518   4.463 -2.8804 -1.7413  1.3532
   84SOPE  C214 7788   3.651   2.381   4.574  0.2608 -0.1189  0.5209
   84SOPE  H14R 7789   3.742   2.444   4.588  0.1449  0.1559  0.0703
   84SOPE  H14S 7790   3.678   2.274   4.560 -2.8261 -0.5703 -3.4768
   84SOPE  C215 7791   3.564   2.387   4.699  0.2932  0.8374 -0.8852
   84SOPE  H15R 7792   3.482   2.314   4.683  0.3837  0.2201  1.1296
   84SOPE  H15S 7793   3.530   2.491   4.717 -0.9568  0.2222  0.5537
   84SOPE  C216 7794   3.646   2.334   4.825  0.0330 -0.0991  0.2237
   84SOPE  H16R 7795   3.683   2.234   4.794  1.3802  0.9669 -1.7895
   84SOPE  H16S 7796   3.582   2.329   4.916  0.9481 -2.3169  0.8203
   84SOPE  C217 7797   3.765   2.424   4.863 -0.6123 -0.4487 -0.3440
   84SOPE  H17R 7798   3.726   2.528   4.871 -1.0093 -0.6987  1.3099
   84SOPE  H17S 7799   3.835   2.423   4.776  0.6019 -1.8525  0.6054
   84SOPE  C218 7800   3.827   2.378   4.999  0.6891 -0.0919  0.4514
   84SOPE  H18R 7801   3.871   2.277   4.994 -0.0474 -0.3719 -0.7834
   84SOPE  H18S 7802   3.747   2.383   5.077 -0.8078 -4.0817 -0.6231
   84SOPE  H18T 7803   3.912   2.445   5.026  0.5517  0.7948 -1.1882
   84SOPE   C33 7804   3.810   2.464   3.233 -0.7930 -0.0225  0.0334
   84SOPE   H3X 7805   3.761   2.443   3.331  1.0181  1.3527  1.3201
   84SOPE   H3Y 7806   3.794   2.568   3.199 -0.8294 -0.6075 -1.8283
   84SOPE   C34 7807   3.957   2.449   3.273  0.3421 -0.2642  0.2311
   84SOPE   H4X 7808   4.020   2.458   3.181 -1.0602 -2.5603 -1.0493
   84SOPE   H4Y 7809   3.972   2.346   3.311  1.4974  0.1622  0.9908
   84SOPE   C35 7810   3.990   2.555   3.388  0.2968  0.0670 -0.2821
   84SOPE   H5X 7811   3.944   2.654   3.366 -0.2631 -0.4461 -1.4868
   84SOPE   H5Y 7812   4.101   2.565   3.387  0.4150 -1.1302 -0.2184
   84SOPE   C36 7813   3.941   2.514   3.525  0.3493  0.1995  0.3186
   84SOPE   H6X 7814   3.915   2.406   3.528  0.5807  0.1607  1.4347
   84SOPE   H6Y 7815   3.834   2.541   3.525 -0.5075 -2.7182 -1.9673
   84SOPE   C37 7816   4.022   2.565   3.648 -0.5062 -0.2130 -0.2508
   84SOPE   H7X 7817   4.024   2.676   3.645  2.0899 -0.1376  1.4887
   84SOPE   H7Y 7818   4.129   2.534   3.648 -0.8939 -1.6753  0.6545
   84SOPE   C38 7819   3.969   2.508   3.784  0.3997 -0.0075  0.5919
   84SOPE   H8X 7820   3.998   2.401   3.789  1.7410  0.2061 -1.4582
   84SOPE   H8Y 7821   3.859   2.523   3.792 -0.3027 -2.6949 -2.1534
   84SOPE   C39 7822   4.043   2.577   3.901  0.0953  0.7270  0.0673
   84SOPE   H9X 7823   4.015   2.683   3.915  1.2398  0.9805  0.5353
   84SOPE   H9Y 7824   4.153   2.579   3.889  0.1556  2.0294  0.7724
   84SOPE  C310 7825   4.013   2.519   4.034 -0.6210 -0.1219  0.0007
   84SOPE  H10X 7826   4.047   2.413   4.030 -0.6269 -0.0798 -1.7061
   84SOPE  H10Y 7827   3.902   2.522   4.044 -0.4446 -0.6611  3.3313
   84SOPE  C311 7828   4.063   2.590   4.157  0.8612  0.8663  0.3868
   84SOPE  H11X 7829   4.005   2.682   4.179  0.9099  0.8274  0.6804
   84SOPE  H11Y 7830   4.169   2.622   4.143  0.1065  2.8105 -1.4081
   84SOPE  C312 7831   4.059   2.513   4.292 -0.3447  0.5543  0.4067
   84SOPE  H12X 7832   4.138   2.436   4.283  0.5569  1.4767  0.1630
   84SOPE  H12Y 7833   3.969   2.449   4.304  0.6489 -0.3424  4.4841
   84SOPE  C313 7834   4.081   2.598   4.417 -0.2794  0.2188 -0.2305
   84SOPE  H13X 7835   4.049   2.543   4.508 -0.8706 -0.2398 -0.6993
   84SOPE  H13Y 7836   4.004   2.677   4.405  0.2927  0.5525 -1.9858
   84SOPE  C314 7837   4.214   2.674   4.430 -0.7560 -0.3189 -0.2401
   84SOPE  H14X 7838   4.199   2.769   4.485  0.0733  0.7110 -1.7304
   84SOPE  H14Y 7839   4.254   2.707   4.331  0.1186  0.3222  0.3122
   84SOPE  C315 7840   4.328   2.597   4.493 -0.6771  0.2439  0.2262
   84SOPE  H15X 7841   4.417   2.664   4.502  0.8472 -1.8217  1.4838
   84SOPE  H15Y 7842   4.355   2.514   4.424  0.3761 -0.5772  1.5759
   84SOPE  C316 7843   4.305   2.537   4.631  0.3733  0.0731  0.1474
   84SOPE  H16X 7844   4.248   2.444   4.611  2.6036 -1.0721 -1.2445
   84SOPE  H16Y 7845   4.248   2.616   4.685  1.1977  0.6308  0.2211
   84SOPE  C317 7846   4.438   2.515   4.707 -0.3865  0.6696  0.3370
   84SOPE  H17X 7847   4.486   2.613   4.723 -0.4423  1.1205 -1.9388
   84SOPE  H17Y 7848   4.510   2.459   4.644 -3.1197  0.7277 -3.1573
   84SOPE  C318 7849   4.408   2.451   4.834  0.0167  0.0493 -0.0409
   84SOPE  H18X 7850   4.499   2.432   4.895  0.0747 -0.6821 -0.3387
   84SOPE  H18Y 7851   4.350   2.359   4.810  0.9370 -0.7967  0.9035
   84SOPE  H18Z 7852   4.347   2.520   4.895  0.1827 -0.1259  0.3261
   85SOPE     N 7853   6.096   2.868   2.424  0.0975  0.2855  0.6092
   85SOPE   HN1 7854   6.135   2.774   2.402  4.2816  1.7137  1.0272
   85SOPE   HN2 7855   5.995   2.866   2.399  0.0689 -5.2622  0.0071
   85SOPE   HN3 7856   6.135   2.939   2.358 -0.6967 -0.2860 -0.5088
   85SOPE   C12 7857   6.112   2.907   2.566  0.7174 -0.2543 -0.7226
   85SOPE  H12A 7858   6.222   2.915   2.578  0.4349  1.5370  1.1864
   85SOPE  H12B 7859   6.064   2.823   2.620  2.4279 -0.8542 -0.0780
   85SOPE   C11 7860   6.060   3.043   2.601 -0.3484 -0.2128  0.0802
   85SOPE  H11A 7861   6.069   3.063   2.710  0.3436 -1.7697  0.3343
   85SOPE  H11B 7862   5.952   3.046   2.574 -0.0692 -2.5239 -1.6399
   85SOPE     P 7863   6.251   3.220   2.563 -0.0489  0.0192  0.5484
   85SOPE   O13 7864   6.239   3.359   2.508 -0.4679  0.0731 -1.0375
   85SOPE   O14 7865   6.371   3.143   2.521  0.3047  0.1691  0.2848
   85SOPE   O12 7866   6.123   3.138   2.523  1.0675 -0.2147 -0.0411
   85SOPE   O11 7867   6.257   3.236   2.716  0.2379  0.0751 -0.4057
   85SOPE    C1 7868   6.140   3.291   2.794 -0.0146 -0.1147  0.4201
   85SOPE    HA 7869   6.120   3.236   2.888  0.6823  2.0435  1.9084
   85SOPE    HB 7870   6.046   3.271   2.738  1.2712  0.5650 -2.1420
   85SOPE    C2 7871   6.160   3.449   2.820  0.7079  0.0251 -0.4166
   85SOPE    HS 7872   6.260   3.474   2.779  0.9789 -0.0400  0.2095
   85SOPE   O21 7873   6.143   3.477   2.962  0.1196  0.1835  0.4933
   85SOPE   C21 7874   6.192   3.594   2.997  0.0819  0.3352 -0.7226
   85SOPE   O22 7875   6.248   3.673   2.924  0.4310 -0.4835  1.0211
   85SOPE   C22 7876   6.187   3.601   3.148 -0.9082  0.3453 -0.5580
   85SOPE   H2R 7877   6.164   3.503   3.194  2.1243 -0.3723 -0.3302
   85SOPE   H2S 7878   6.106   3.669   3.181  0.4007  3.0831 -2.5921
   85SOPE    C3 7879   6.056   3.535   2.737 -0.7481  0.6858  0.2626
   85SOPE    HX 7880   6.068   3.499   2.632 -0.8674 -0.3998  0.6046
   85SOPE    HY 7881   6.068   3.645   2.731 -2.2842  0.8084 -1.0930
   85SOPE   O31 7882   5.920   3.506   2.775 -0.0300  0.0056  0.7914
   85SOPE   C31 7883   5.851   3.591   2.857 -0.0550  0.3741 -0.1316
   85SOPE   O32 7884   5.902   3.691   2.904  0.5236  0.2944 -0.5808
   85SOPE   C32 7885   5.712   3.552   2.880 -0.3444 -0.7630 -0.2436
   85SOPE   H2X 7886   5.721   3.458   2.938  0.1531  0.9812  2.7102
   85SOPE   H2Y 7887   5.667   3.542   2.779 -1.9183  0.1961  0.3145
   85SOPE   C23 7888   6.321   3.667   3.195 -0.0469 -0.2971  0.2015
   85SOPE   H3R 7889   6.364   3.735   3.119  2.1838 -1.3269  0.4682
   85SOPE   H3S 7890   6.398   3.591   3.220  0.9500  0.5053 -0.3606
   85SOPE   C24 7891   6.302   3.753   3.325  0.3827 -0.0109  0.2142
   85SOPE   H4R 7892   6.385   3.826   3.333  0.9712 -0.5162 -1.0910
   85SOPE   H4S 7893   6.214   3.819   3.312 -0.5161 -1.2521 -0.1996
   85SOPE   C25 7894   6.293   3.668   3.455 -0.8622  0.3356 -0.8691
   85SOPE   H5R 7895   6.208   3.600   3.435 -0.9196  0.3155 -0.5582
   85SOPE   H5S 7896   6.374   3.591   3.458 -2.3704 -1.3609 -1.8775
   85SOPE   C26 7897   6.280   3.754   3.583 -0.1510 -0.0998 -0.3393
   85SOPE   H6R 7898   6.382   3.795   3.604 -0.6772 -0.2624  3.1585
   85SOPE   H6S 7899   6.217   3.842   3.555  2.1956  1.3023 -1.5751
   85SOPE   C27 7900   6.221   3.687   3.706 -0.2151 -0.8174 -0.3126
   85SOPE   H7R 7901   6.122   3.651   3.671 -0.4855  0.6047 -1.0572
   85SOPE   H7S 7902   6.279   3.597   3.735 -1.1633 -0.6569  2.3785
   85SOPE   C28 7903   6.197   3.768   3.827  0.8163  0.9047  0.7978
   85SOPE   H8R 7904   6.298   3.794   3.864  1.6641  0.6470 -1.2151
   85SOPE   H8S 7905   6.148   3.864   3.802 -1.5031 -0.1100  1.2070
   85SOPE   C29 7906   6.119   3.689   3.928  0.4105  0.1943 -0.3319
   85SOPE   H91 7907   6.151   3.584   3.930 -2.7027 -0.9161 -2.0605
   85SOPE  C210 7908   6.028   3.719   4.027  0.7652 -1.4357  0.6234
   85SOPE  H101 7909   5.991   3.647   4.102  2.8631 -2.4377  0.7561
   85SOPE  C211 7910   5.970   3.861   4.049  0.7778  0.7895  0.1998
   85SOPE  H11R 7911   5.859   3.861   4.039  0.7357 -0.1454  0.5217
   85SOPE  H11S 7912   6.017   3.916   3.965  3.3471  0.0417  1.0459
   85SOPE  C212 7913   6.006   3.937   4.181  0.0587 -0.1400  0.3607
   85SOPE  H12R 7914   5.978   4.044   4.169  0.3134  0.5021  4.2706
   85SOPE  H12S 7915   6.116   3.931   4.194  0.1218 -0.5781 -0.2895
   85SOPE  C213 7916   5.942   3.863   4.301 -0.1928 -0.7051  0.1201
   85SOPE  H13R 7917   6.019   3.789   4.330  2.7185  1.7797 -0.6958
   85SOPE  H13S 7918   5.855   3.800   4.272 -1.7955  0.5555  1.9850
   85SOPE  C214 7919   5.911   3.947   4.422 -0.9226 -0.3482  0.4355
   85SOPE  H14R 7920   5.863   4.043   4.394 -0.7017 -0.8526 -1.7992
   85SOPE  H14S 7921   6.014   3.971   4.458 -1.2723 -0.5372  1.5975
   85SOPE  C215 7922   5.814   3.862   4.515 -0.0683 -0.1829  0.3930
   85SOPE  H15R 7923   5.842   3.755   4.507  0.0799 -0.0602 -0.8953
   85SOPE  H15S 7924   5.715   3.875   4.466  0.9205 -1.3795 -2.0601
   85SOPE  C216 7925   5.809   3.907   4.654  0.2156 -0.5006 -0.2279
   85SOPE  H16R 7926   5.756   3.827   4.710  0.2488 -3.0013 -3.5022
   85SOPE  H16S 7927   5.760   4.006   4.662 -0.4123 -0.7245 -1.2337
   85SOPE  C217 7928   5.946   3.910   4.733 -0.2345 -0.5794 -0.0911
   85SOPE  H17R 7929   5.941   3.951   4.836  0.7234 -2.7832  0.9012
   85SOPE  H17S 7930   6.018   3.980   4.685  1.4067 -0.0654  2.9294
   85SOPE  C218 7931   6.017   3.776   4.730 -0.4594  0.3248 -0.5532
   85SOPE  H18R 7932   6.014   3.722   4.633  1.8297 -1.5242  0.2778
   85SOPE  H18S 7933   5.961   3.711   4.801 -2.4905 -0.2363 -2.5730
   85SOPE  H18T 7934   6.117   3.794   4.775 -1.2756 -0.5447  1.7511
   85SOPE   C33 7935   5.633   3.656   2.960 -0.1357  0.5637  0.0670
   85SOPE   H3X 7936   5.529   3.616   2.950 -0.1171 -0.6469  3.3073
   85SOPE   H3Y 7937   5.636   3.758   2.916 -0.8281  0.8512  0.6493
   85SOPE   C34 7938   5.666   3.671   3.111  0.0353 -0.4929  0.2315
   85SOPE   H4X 7939   5.768   3.714   3.119 -0.0510 -0.1045 -0.6289
   85SOPE   H4Y 7940   5.659   3.566   3.148 -0.0712 -1.5359 -2.5457
   85SOPE   C35 7941   5.583   3.774   3.190  0.5435  0.3739  0.3161
   85SOPE   H5X 7942   5.480   3.777   3.150  0.9571  0.1848 -0.7784
   85SOPE   H5Y 7943   5.619   3.879   3.178 -0.2073  1.0879  3.3948
   85SOPE   C36 7944   5.579   3.732   3.338 -0.0006  0.1569 -0.7329
   85SOPE   H6X 7945   5.682   3.746   3.378 -0.0626 -0.6714 -0.2718
   85SOPE   H6Y 7946   5.575   3.621   3.341  2.5403  0.0147  2.3703
   85SOPE   C37 7947   5.494   3.799   3.448  0.6843 -0.8655  0.1298
   85SOPE   H7X 7948   5.389   3.783   3.416  0.1831 -0.4930  1.5391
   85SOPE   H7Y 7949   5.506   3.909   3.452  1.2699 -0.8215 -1.7633
   85SOPE   C38 7950   5.525   3.734   3.586  0.7098  0.5730  0.3709
   85SOPE   H8X 7951   5.626   3.767   3.620  0.6753  1.5386 -0.4150
   85SOPE   H8Y 7952   5.541   3.624   3.578 -3.1134 -0.1579  1.1854
   85SOPE   C39 7953   5.434   3.774   3.700  0.8713  0.6783 -0.3386
   85SOPE   H9X 7954   5.330   3.759   3.664 -0.4271 -0.8280  3.5609
   85SOPE   H9Y 7955   5.442   3.880   3.732  0.1089  0.3149  1.1530
   85SOPE  C310 7956   5.448   3.686   3.823 -0.5465  0.6162 -0.7678
   85SOPE  H10X 7957   5.459   3.580   3.790 -2.1849  0.4789 -0.9594
   85SOPE  H10Y 7958   5.363   3.705   3.892  0.7151 -0.3731  1.1248
   85SOPE  C311 7959   5.573   3.729   3.906  0.3796  0.0809 -0.1763
   85SOPE  H11X 7960   5.561   3.839   3.913 -0.7403  0.1603 -2.4543
   85SOPE  H11Y 7961   5.659   3.702   3.841 -2.0097  0.4103 -3.7948
   85SOPE  C312 7962   5.580   3.658   4.038 -0.3396  0.1694 -0.9693
   85SOPE  H12X 7963   5.680   3.678   4.083 -0.5742  1.7264 -1.0759
   85SOPE  H12Y 7964   5.585   3.548   4.021 -0.3876 -0.3309  1.8290
   85SOPE  C313 7965   5.470   3.693   4.139 -0.0496 -0.1827  0.6433
   85SOPE  H13X 7966   5.368   3.654   4.122  0.8297 -2.7343  0.7308
   85SOPE  H13Y 7967   5.465   3.804   4.131 -0.4355 -0.3403 -3.6038
   85SOPE  C314 7968   5.511   3.657   4.280 -0.1128  0.1708  0.3537
   85SOPE  H14X 7969   5.612   3.697   4.302  0.9581 -1.9449 -0.4172
   85SOPE  H14Y 7970   5.516   3.547   4.293 -1.1786  0.2499  1.7421
   85SOPE  C315 7971   5.417   3.725   4.384 -0.4359  0.5357 -0.2261
   85SOPE  H15X 7972   5.311   3.715   4.354  0.1352 -0.1061 -2.1403
   85SOPE  H15Y 7973   5.423   3.836   4.382 -0.4112  0.5267 -0.7480
   85SOPE  C316 7974   5.425   3.669   4.526  0.3525 -0.3320 -0.4580
   85SOPE  H16X 7975   5.520   3.711   4.565  0.9563  0.0241 -2.2156
   85SOPE  H16Y 7976   5.424   3.558   4.535  2.4601 -0.3708 -0.3081
   85SOPE  C317 7977   5.314   3.728   4.623 -0.5279  0.0758  0.3692
   85SOPE  H17X 7978   5.330   3.682   4.723  2.2676 -0.4423 -0.2260
   85SOPE  H17Y 7979   5.217   3.686   4.590  0.0298 -1.5840  0.6956
   85SOPE  C318 7980   5.319   3.882   4.637 -0.2221  0.0237 -0.2313
   85SOPE  H18X 7981   5.230   3.910   4.697 -1.0142 -0.2245 -1.2424
   85SOPE  H18Y 7982   5.310   3.924   4.534  1.8319 -0.2170 -0.5347
   85SOPE  H18Z 7983   5.417   3.917   4.674 -0.4840  0.4762  0.0503
   86SOPE     N 7984   6.268   5.385   2.450  0.3190  0.3400  0.1007
   86SOPE   HN1 7985   6.304   5.471   2.403  0.7577  1.6295  2.5938
   86SOPE   HN2 7986   6.295   5.306   2.388  1.3778 -0.5632  1.6413
   86SOPE   HN3 7987   6.167   5.380   2.471  0.2911 -1.1478 -0.3351
   86SOPE   C12 7988   6.348   5.360   2.576  0.5657 -0.3717  0.9898
   86SOPE  H12A 7989   6.445   5.323   2.538  0.3570  0.8618 -0.8729
   86SOPE  H12B 7990   6.292   5.284   2.635  0.1295  2.0577  3.9557
   86SOPE   C11 7991   6.371   5.494   2.653 -0.4198  0.2525  0.6790
   86SOPE  H11A 7992   6.450   5.475   2.728 -0.7414  0.9921  1.2191
   86SOPE  H11B 7993   6.278   5.523   2.706  0.1669  1.5492  1.0298
   86SOPE     P 7994   6.467   5.746   2.596  0.1814 -0.5788  0.1931
   86SOPE   O13 7995   6.431   5.829   2.477 -0.5333 -0.0117 -0.2745
   86SOPE   O14 7996   6.610   5.735   2.627 -0.7339 -0.3147  0.0769
   86SOPE   O12 7997   6.409   5.605   2.568  0.9644  0.0810 -0.4027
   86SOPE   O11 7998   6.383   5.783   2.729  0.3496 -0.3656  0.0599
   86SOPE    C1 7999   6.247   5.818   2.716  0.5949 -0.4346 -0.5889
   86SOPE    HA 8000   6.194   5.733   2.668  2.8142 -0.6080 -2.9814
   86SOPE    HB 8001   6.224   5.901   2.646  1.0203  0.6316  0.5096
   86SOPE    C2 8002   6.182   5.868   2.847  0.9077 -0.7027  0.0519
   86SOPE    HS 8003   6.212   5.975   2.852 -0.8740 -0.1750  0.1953
   86SOPE   O21 8004   6.220   5.794   2.962 -0.0751 -0.0376  0.1452
   86SOPE   C21 8005   6.341   5.838   3.005 -0.6005  0.7083  0.1952
   86SOPE   O22 8006   6.399   5.940   2.972  0.5308 -0.4764 -0.1224
   86SOPE   C22 8007   6.361   5.765   3.140 -0.4296  0.4626  0.3732
   86SOPE   H2R 8008   6.352   5.655   3.122 -0.2037  0.8034 -2.3596
   86SOPE   H2S 8009   6.272   5.792   3.201 -0.3763 -1.7149  1.5334
   86SOPE    C3 8010   6.025   5.863   2.826 -0.5859 -0.1942 -0.3195
   86SOPE    HX 8011   5.991   5.763   2.792 -0.3355 -1.5116  2.9856
   86SOPE    HY 8012   6.009   5.936   2.743  0.9833  0.4222 -0.1182
   86SOPE   O31 8013   5.951   5.917   2.938  0.3165  0.7923  0.2466
   86SOPE   C31 8014   5.886   5.830   3.017  0.4299  0.1483 -0.0292
   86SOPE   O32 8015   5.886   5.709   3.005 -0.7906  0.4001 -0.2892
   86SOPE   C32 8016   5.835   5.913   3.142  0.0395 -1.0843  0.8383
   86SOPE   H2X 8017   5.727   5.937   3.127  0.1418 -0.4924  1.0029
   86SOPE   H2Y 8018   5.889   6.009   3.125  1.3868 -2.1680 -1.4833
   86SOPE   C23 8019   6.493   5.814   3.206 -0.5168  0.3586  0.2710
   86SOPE   H3R 8020   6.502   5.924   3.201  2.3815  0.1851  0.2068
   86SOPE   H3S 8021   6.581   5.771   3.154  0.2704 -0.8733  2.4704
   86SOPE   C24 8022   6.498   5.768   3.348 -0.3829 -0.6967  0.4680
   86SOPE   H4R 8023   6.407   5.812   3.394 -0.1712  1.8941 -1.3983
   86SOPE   H4S 8024   6.484   5.658   3.363 -0.1570 -0.9800 -1.1753
   86SOPE   C25 8025   6.613   5.830   3.427  0.0761 -0.2356  0.8059
   86SOPE   H5R 8026   6.710   5.812   3.375 -0.0816  1.5975 -0.2190
   86SOPE   H5S 8027   6.594   5.939   3.439 -0.6583 -0.2386 -0.2016
   86SOPE   C26 8028   6.621   5.770   3.565  0.2397 -0.6510  0.3664
   86SOPE   H6R 8029   6.527   5.790   3.621 -1.2717 -0.8686 -1.9768
   86SOPE   H6S 8030   6.624   5.659   3.565  2.2905 -0.6631 -1.7603
   86SOPE   C27 8031   6.734   5.823   3.658 -0.2344  0.7097  0.5233
   86SOPE   H7R 8032   6.826   5.811   3.596  0.6589 -0.4392  2.0143
   86SOPE   H7S 8033   6.723   5.931   3.683  1.9897  0.4147  3.2800
   86SOPE   C28 8034   6.747   5.750   3.792  0.8579 -0.0850 -0.3889
   86SOPE   H8R 8035   6.763   5.643   3.768 -0.7325  0.0530 -2.2842
   86SOPE   H8S 8036   6.844   5.782   3.837  0.9624 -1.8704  0.7789
   86SOPE   C29 8037   6.631   5.791   3.878  0.2583  0.5856  0.1851
   86SOPE   H91 8038   6.532   5.757   3.845  0.3112  2.4214 -2.0636
   86SOPE  C210 8039   6.630   5.847   4.000  0.3502  0.3396  0.4077
   86SOPE  H101 8040   6.531   5.868   4.043  0.5889  1.2156  0.5455
   86SOPE  C211 8041   6.747   5.869   4.098 -0.1111 -0.3666  0.0850
   86SOPE  H11R 8042   6.820   5.942   4.058 -1.8032  0.7041 -1.1908
   86SOPE  H11S 8043   6.804   5.775   4.106 -1.9516 -1.6805 -1.2847
   86SOPE  C212 8044   6.705   5.916   4.240  0.2017 -0.3495  0.0935
   86SOPE  H12R 8045   6.602   5.955   4.230 -0.2821 -1.6780 -0.3004
   86SOPE  H12S 8046   6.776   5.996   4.271 -0.0966  0.5282 -1.3638
   86SOPE  C213 8047   6.709   5.800   4.340 -0.3052 -0.0405  0.2995
   86SOPE  H13R 8048   6.813   5.788   4.377 -0.3222 -1.0542  0.0478
   86SOPE  H13S 8049   6.679   5.704   4.293  1.0468 -0.9212  1.1660
   86SOPE  C214 8050   6.617   5.828   4.459 -0.4236  0.2701  0.5402
   86SOPE  H14R 8051   6.607   5.733   4.515 -0.7294  0.0246  0.0699
   86SOPE  H14S 8052   6.514   5.857   4.431 -1.3049 -2.0386  1.1842
   86SOPE  C215 8053   6.667   5.948   4.550 -0.4443  0.6057  0.0374
   86SOPE  H15R 8054   6.708   6.028   4.485  1.3007  0.4229  0.8558
   86SOPE  H15S 8055   6.761   5.906   4.594 -0.0843  0.6385 -0.6771
   86SOPE  C216 8056   6.548   6.007   4.628  0.5701 -0.1191 -0.5821
   86SOPE  H16R 8057   6.491   5.923   4.672  1.1608 -0.1570  0.1281
   86SOPE  H16S 8058   6.483   6.058   4.554 -0.6545 -1.7908 -0.7164
   86SOPE  C217 8059   6.581   6.104   4.736 -0.1923 -0.1117 -0.0550
   86SOPE  H17R 8060   6.630   6.187   4.681 -0.7176 -0.0515 -0.4383
   86SOPE  H17S 8061   6.652   6.065   4.812 -1.1485  0.9492  1.4310
   86SOPE  C218 8062   6.464   6.163   4.813  0.3738  0.9008 -0.7608
   86SOPE  H18R 8063   6.496   6.231   4.895 -1.2532 -1.2207  1.8063
   86SOPE  H18S 8064   6.420   6.076   4.867  1.7832 -0.0234 -1.0384
   86SOPE  H18T 8065   6.392   6.213   4.744  2.1757  1.9164 -1.9820
   86SOPE   C33 8066   5.874   5.861   3.281 -0.0292  1.2037  0.0400
   86SOPE   H3X 8067   5.972   5.809   3.271 -0.4178  0.8842 -2.9794
   86SOPE   H3Y 8068   5.796   5.786   3.306 -0.4394  2.0097  1.2779
   86SOPE   C34 8069   5.873   5.968   3.393 -0.4696  0.0847 -0.6088
   86SOPE   H4X 8070   5.773   6.015   3.394  0.4321  2.1759 -2.0120
   86SOPE   H4Y 8071   5.950   6.037   3.354  1.6633 -1.0668  1.3064
   86SOPE   C35 8072   5.917   5.924   3.533  0.5117  0.1589 -0.1619
   86SOPE   H5X 8073   6.017   5.877   3.533  0.8316  0.6492  2.9262
   86SOPE   H5Y 8074   5.838   5.857   3.573 -0.7736  1.3644 -0.6018
   86SOPE   C36 8075   5.923   6.041   3.630  1.0080  0.1012 -0.1460
   86SOPE   H6X 8076   5.829   6.101   3.625  0.6172 -0.4896 -0.0406
   86SOPE   H6Y 8077   6.011   6.106   3.609  1.8540  0.7262  4.2993
   86SOPE   C37 8078   5.937   6.002   3.778  0.0192 -0.5607 -0.4779
   86SOPE   H7X 8079   6.028   5.941   3.797 -0.8215 -1.3680  1.2069
   86SOPE   H7Y 8080   5.845   5.941   3.789 -0.1408 -0.3980 -0.8953
   86SOPE   C38 8081   5.938   6.119   3.872 -1.0748 -0.9342  0.2124
   86SOPE   H8X 8082   5.851   6.186   3.855 -1.8467 -2.6673 -3.6567
   86SOPE   H8Y 8083   6.029   6.179   3.849 -1.2947 -1.4786 -2.3897
   86SOPE   C39 8084   5.933   6.074   4.018  0.3107 -0.1506 -0.4984
   86SOPE   H9X 8085   6.021   6.007   4.029 -0.1912 -0.4545  2.6102
   86SOPE   H9Y 8086   5.852   5.999   4.029 -1.1770  0.9760 -2.9704
   86SOPE  C310 8087   5.918   6.194   4.125  0.0044  0.7518  0.4625
   86SOPE  H10X 8088   5.825   6.253   4.108 -0.7310 -0.2698  0.7859
   86SOPE  H10Y 8089   5.998   6.267   4.100  1.6509 -1.6188 -1.7080
   86SOPE  C311 8090   5.928   6.144   4.272  0.3592 -0.0785  0.2198
   86SOPE  H11X 8091   5.916   6.231   4.340  0.3735 -1.0971  1.5654
   86SOPE  H11Y 8092   6.031   6.104   4.288  0.7433  0.8458  0.0835
   86SOPE  C312 8093   5.831   6.030   4.310 -0.0088 -0.0106  0.4166
   86SOPE  H12X 8094   5.890   5.939   4.288 -1.1382 -0.8756  0.8262
   86SOPE  H12Y 8095   5.734   6.035   4.256  0.6899  5.6457 -1.0371
   86SOPE  C313 8096   5.785   6.038   4.453  1.1917 -0.1729 -0.2076
   86SOPE  H13X 8097   5.866   6.040   4.529 -0.4336 -2.5324  1.7768
   86SOPE  H13Y 8098   5.716   5.954   4.477 -1.9681  1.7116 -2.0201
   86SOPE  C314 8099   5.711   6.167   4.493  0.3619 -0.2164 -0.3504
   86SOPE  H14X 8100   5.611   6.178   4.447 -0.4689  0.9154  1.5921
   86SOPE  H14Y 8101   5.775   6.258   4.500 -0.6606  0.4458  0.7802
   86SOPE  C315 8102   5.686   6.153   4.646 -0.0420  0.6328  0.0731
   86SOPE  H15X 8103   5.782   6.159   4.701 -0.4927 -1.9566  1.2778
   86SOPE  H15Y 8104   5.644   6.051   4.661  0.8201  0.2896  0.2109
   86SOPE  C316 8105   5.586   6.246   4.716 -0.5172 -0.0445  0.3855
   86SOPE  H16X 8106   5.482   6.243   4.677 -1.0524  5.2817  0.6435
   86SOPE  H16Y 8107   5.625   6.347   4.692 -0.1104 -0.2996 -0.0392
   86SOPE  C317 8108   5.578   6.242   4.868  0.3344  0.5580  0.9393
   86SOPE  H17X 8109   5.683   6.268   4.892  1.5682  0.3402 -3.3564
   86SOPE  H17Y 8110   5.571   6.139   4.910  3.5875  0.6349  1.9319
   86SOPE  C318 8111   5.467   6.326   4.940 -0.4975 -0.1488  1.0233
   86SOPE  H18X 8112   5.498   6.346   5.045  1.2172 -1.3533  0.8039
   86SOPE  H18Y 8113   5.369   6.275   4.933 -0.3024 -0.3771 -0.2565
   86SOPE  H18Z 8114   5.464   6.425   4.891  0.2625 -0.2263  0.7951
   87SOPE     N 8115   0.899   0.141   2.609  0.3041  0.1454  0.8395
   87SOPE   HN1 8116   0.978   0.120   2.673  0.7898 -0.6846 -0.0221
   87SOPE   HN2 8117   0.876   0.243   2.613  1.6835  0.4172  3.4498
   87SOPE   HN3 8118   0.821   0.078   2.635  1.6706 -2.0010 -0.0596
   87SOPE   C12 8119   0.941   0.089   2.476 -0.4414 -0.2636 -0.0393
   87SOPE  H12A 8120   0.869   0.007   2.457 -0.8926  0.5764 -2.2185
   87SOPE  H12B 8121   1.046   0.053   2.484  0.9848  3.3024 -0.7871
   87SOPE   C11 8122   0.921   0.187   2.358 -0.5867 -0.5843 -0.6220
   87SOPE  H11A 8123   0.812   0.193   2.334 -0.1567  1.4861 -2.2968
   87SOPE  H11B 8124   0.970   0.136   2.273  1.3959  1.6436 -0.9076
   87SOPE     P 8125   0.890   0.444   2.415 -0.4313 -0.2088  0.2112
   87SOPE   O13 8126   0.790   0.483   2.309  0.2077  0.5994 -0.3360
   87SOPE   O14 8127   0.990   0.545   2.457  0.0342  0.4395  0.1437
   87SOPE   O12 8128   0.969   0.317   2.375 -0.4886  0.5290 -0.0783
   87SOPE   O11 8129   0.808   0.394   2.545  0.6225 -0.0232  0.8838
   87SOPE    C1 8130   0.750   0.480   2.637  0.2399  0.1161 -0.0272
   87SOPE    HA 8131   0.647   0.442   2.655 -0.3933  0.2591 -2.8820
   87SOPE    HB 8132   0.728   0.576   2.586 -0.2494 -1.1031 -2.2052
   87SOPE    C2 8133   0.825   0.486   2.767  0.3170 -0.4111 -0.1745
   87SOPE    HS 8134   0.921   0.527   2.730 -0.9303  0.4656 -2.6175
   87SOPE   O21 8135   0.845   0.355   2.823 -0.2346  0.4056 -0.6242
   87SOPE   C21 8136   0.936   0.350   2.920  0.0218 -0.4526 -0.0024
   87SOPE   O22 8137   1.030   0.422   2.941 -0.0834  0.4457 -0.0150
   87SOPE   C22 8138   0.909   0.212   2.996  0.2540 -0.3686  0.2730
   87SOPE   H2R 8139   0.956   0.125   2.945 -1.5638 -1.9524  1.1604
   87SOPE   H2S 8140   0.800   0.203   2.978  0.1414 -1.4993  1.3453
   87SOPE    C3 8141   0.766   0.592   2.867 -0.1037  0.9200 -0.2172
   87SOPE    HX 8142   0.749   0.689   2.816 -1.8946  0.9602  0.3559
   87SOPE    HY 8143   0.839   0.619   2.946  0.8111 -2.0975  0.1124
   87SOPE   O31 8144   0.639   0.535   2.923  0.2847  0.2961 -0.4027
   87SOPE   C31 8145   0.637   0.518   3.054  0.4268  0.0049  0.1115
   87SOPE   O32 8146   0.734   0.523   3.126 -0.2430  0.2081 -0.2414
   87SOPE   C32 8147   0.496   0.493   3.096  0.4199  0.1571 -0.1889
   87SOPE   H2X 8148   0.486   0.383   3.083  0.9912  0.3907 -3.9559
   87SOPE   H2Y 8149   0.432   0.547   3.023 -1.0414 -0.1105  0.8627
   87SOPE   C23 8150   0.963   0.224   3.139 -0.6999 -0.4143 -0.5132
   87SOPE   H3R 8151   0.923   0.317   3.185 -0.3292 -1.4573  2.1026
   87SOPE   H3S 8152   1.073   0.239   3.134 -0.8834  0.9556 -1.0584
   87SOPE   C24 8153   0.925   0.106   3.224 -0.0351  0.0411  0.3319
   87SOPE   H4R 8154   0.932   0.022   3.151  0.6254  1.1489 -0.9269
   87SOPE   H4S 8155   0.998   0.101   3.307  1.3946  3.0379 -0.5971
   87SOPE   C25 8156   0.787   0.125   3.287  0.4489  0.1624 -0.6341
   87SOPE   H5R 8157   0.774   0.218   3.348 -2.3268 -1.5718  1.6479
   87SOPE   H5S 8158   0.718   0.136   3.201 -0.3539 -0.6118 -0.0980
   87SOPE   C26 8159   0.740   0.013   3.380  0.1414  0.3685  0.3542
   87SOPE   H6R 8160   0.630   0.014   3.395  0.0804 -1.7081  0.2453
   87SOPE   H6S 8161   0.750  -0.082   3.323  1.7103  0.6904  0.0558
   87SOPE   C27 8162   0.818   0.012   3.515  0.3653 -0.4525 -0.8221
   87SOPE   H7R 8163   0.806  -0.093   3.550 -0.5688 -0.3424 -0.7932
   87SOPE   H7S 8164   0.919   0.057   3.513  0.4139 -0.3894  0.9647
   87SOPE   C28 8165   0.741   0.097   3.611  1.1469  0.1269 -0.3493
   87SOPE   H8R 8166   0.737   0.203   3.576  0.3981  0.9827  2.0849
   87SOPE   H8S 8167   0.637   0.059   3.619  0.3844  2.2838  1.1040
   87SOPE   C29 8168   0.814   0.101   3.739 -0.1720 -0.1023 -0.2398
   87SOPE   H91 8169   0.917   0.062   3.731 -0.0384 -0.4066  2.0891
   87SOPE  C210 8170   0.756   0.126   3.857 -0.0440 -0.0890 -0.4918
   87SOPE  H101 8171   0.822   0.136   3.945  1.2127  1.4726 -1.5718
   87SOPE  C211 8172   0.616   0.172   3.875  0.8090 -0.7941  0.2235
   87SOPE  H11R 8173   0.557   0.098   3.932  0.6153  0.1116  1.2229
   87SOPE  H11S 8174   0.567   0.190   3.777 -0.9204  1.6184  1.4243
   87SOPE  C212 8175   0.611   0.305   3.951  0.7340  0.0101  0.3653
   87SOPE  H12R 8176   0.505   0.335   3.941  1.6011  2.5600 -2.8618
   87SOPE  H12S 8177   0.657   0.382   3.885 -1.8083 -0.1325 -1.7595
   87SOPE  C213 8178   0.655   0.297   4.095  0.9428  0.1572  0.0700
   87SOPE  H13R 8179   0.762   0.275   4.115 -0.0254 -2.7213  2.8949
   87SOPE  H13S 8180   0.595   0.220   4.148  0.2068  0.4435 -0.3277
   87SOPE  C214 8181   0.614   0.424   4.168 -0.1165  0.2912 -0.4619
   87SOPE  H14R 8182   0.508   0.449   4.148 -0.5745 -0.4440  0.8406
   87SOPE  H14S 8183   0.682   0.507   4.140 -0.3753  0.5509 -0.3144
   87SOPE  C215 8184   0.619   0.397   4.321 -0.5677 -0.1457 -0.3447
   87SOPE  H15R 8185   0.720   0.353   4.336 -0.9200 -0.3976  1.6308
   87SOPE  H15S 8186   0.534   0.327   4.336 -1.0676  0.7984  1.6403
   87SOPE  C216 8187   0.600   0.508   4.424 -0.2843 -0.0115 -0.1874
   87SOPE  H16R 8188   0.662   0.596   4.395  1.9144  0.6977  5.4457
   87SOPE  H16S 8189   0.643   0.482   4.523  0.9726  3.7221  0.4402
   87SOPE  C217 8190   0.459   0.566   4.437 -0.3481  0.4362 -0.6940
   87SOPE  H17R 8191   0.406   0.593   4.343 -1.4534  0.5047 -0.0708
   87SOPE  H17S 8192   0.465   0.660   4.497  1.0621  0.0984 -0.2584
   87SOPE  C218 8193   0.376   0.477   4.532 -0.3676  0.0882 -0.5494
   87SOPE  H18R 8194   0.268   0.500   4.519 -0.4069 -0.7470 -1.8728
   87SOPE  H18S 8195   0.409   0.495   4.637 -0.2253  3.1967 -1.0333
   87SOPE  H18T 8196   0.384   0.368   4.514  1.6166  0.5559 -2.9595
   87SOPE   C33 8197   0.451   0.537   3.242 -0.4389 -0.2482 -0.3881
   87SOPE   H3X 8198   0.342   0.521   3.258 -0.4958 -1.1049 -1.5555
   87SOPE   H3Y 8199   0.471   0.646   3.243 -1.0586 -0.0989 -1.9728
   87SOPE   C34 8200   0.526   0.461   3.352 -0.0861 -1.0012  0.2013
   87SOPE   H4X 8201   0.636   0.475   3.348 -0.0851 -0.8561  0.7413
   87SOPE   H4Y 8202   0.500   0.353   3.339  2.3279 -1.8786  1.9494
   87SOPE   C35 8203   0.467   0.497   3.486 -0.6528 -0.2274 -0.8761
   87SOPE   H5X 8204   0.489   0.412   3.555 -1.3810  0.8570  0.7325
   87SOPE   H5Y 8205   0.357   0.502   3.473 -0.9198 -0.7403  0.9001
   87SOPE   C36 8206   0.518   0.620   3.546 -0.9808 -0.3627 -0.0916
   87SOPE   H6X 8207   0.475   0.716   3.511  1.3027  0.6183 -0.3870
   87SOPE   H6Y 8208   0.628   0.622   3.535 -0.9261 -0.3928  0.4007
   87SOPE   C37 8209   0.502   0.619   3.702  0.0664  0.1980 -0.2037
   87SOPE   H7X 8210   0.549   0.525   3.738 -1.3626 -0.7612 -0.7718
   87SOPE   H7Y 8211   0.393   0.629   3.717 -0.2156  0.7957 -2.2644
   87SOPE   C38 8212   0.551   0.748   3.770 -0.0050 -0.7185 -0.2887
   87SOPE   H8X 8213   0.501   0.840   3.735 -1.4925 -1.6009 -0.5693
   87SOPE   H8Y 8214   0.656   0.764   3.739 -0.6659 -0.1671 -2.4516
   87SOPE   C39 8215   0.561   0.749   3.918 -0.0632 -0.3453 -0.3040
   87SOPE   H9X 8216   0.619   0.659   3.947  0.8349  0.6206  1.0432
   87SOPE   H9Y 8217   0.468   0.724   3.972 -0.6341  1.0047 -0.6129
   87SOPE  C310 8218   0.636   0.865   3.969 -0.4903 -0.6715 -0.0455
   87SOPE  H10X 8219   0.598   0.963   3.932 -1.6651 -0.5323  1.4269
   87SOPE  H10Y 8220   0.741   0.873   3.935 -0.3335  0.3433  0.6206
   87SOPE  C311 8221   0.640   0.865   4.123  0.2443 -0.5371 -0.4134
   87SOPE  H11X 8222   0.677   0.765   4.155 -1.8159 -0.5974  2.0763
   87SOPE  H11Y 8223   0.539   0.879   4.168  0.0131 -0.6957 -0.8648
   87SOPE  C312 8224   0.739   0.964   4.179 -0.4113  0.3422 -0.0294
   87SOPE  H12X 8225   0.693   1.063   4.155 -1.7996 -0.2713  0.0226
   87SOPE  H12Y 8226   0.833   0.957   4.119 -1.1518 -0.4912 -1.1506
   87SOPE  C313 8227   0.773   0.955   4.320  0.2204 -0.2947 -0.7825
   87SOPE  H13X 8228   0.862   1.018   4.342 -0.5029  0.6963 -0.6078
   87SOPE  H13Y 8229   0.804   0.851   4.343  0.1258 -0.4598 -1.3793
   87SOPE  C314 8230   0.653   1.003   4.407 -0.3230  0.1794 -0.2398
   87SOPE  H14X 8231   0.562   0.952   4.367 -0.0796  0.3353 -1.0099
   87SOPE  H14Y 8232   0.631   1.110   4.387 -1.9209 -0.2237 -0.8044
   87SOPE  C315 8233   0.663   0.962   4.552 -0.4427  0.5391  0.7052
   87SOPE  H15X 8234   0.692   0.855   4.561 -2.6014 -0.2881 -1.2471
   87SOPE  H15Y 8235   0.562   0.955   4.597 -0.9807  0.7862 -0.4570
   87SOPE  C316 8236   0.758   1.050   4.636 -0.5569 -0.2911  0.3782
   87SOPE  H16X 8237   0.715   1.151   4.621 -0.7497 -0.7054 -2.4134
   87SOPE  H16Y 8238   0.849   1.042   4.573 -0.4636  2.3562  0.0572
   87SOPE  C317 8239   0.778   1.031   4.776  0.0257  0.4002  0.7512
   87SOPE  H17X 8240   0.807   0.926   4.795 -0.1023  0.3754  0.8081
   87SOPE  H17Y 8241   0.685   1.037   4.837  0.8112 -0.8191  2.1413
   87SOPE  C318 8242   0.884   1.125   4.838 -0.1275  0.0688 -0.1078
   87SOPE  H18X 8243   0.907   1.098   4.943  0.8806 -1.7728 -0.7412
   87SOPE  H18Y 8244   0.846   1.229   4.831  0.5354  0.3206 -0.0630
   87SOPE  H18Z 8245   0.981   1.116   4.785 -0.4568 -1.1444 -0.5367
   88SOPE     N 8246   2.958   0.707   2.976 -0.0863  0.7101 -0.2442
   88SOPE   HN1 8247   2.889   0.684   2.901 -1.9192 -0.3101  1.6303
   88SOPE   HN2 8248   2.996   0.614   3.003 -2.2150 -0.1662 -0.0512
   88SOPE   HN3 8249   2.899   0.750   3.050 -0.0307 -3.9807  3.0020
   88SOPE   C12 8250   3.069   0.803   2.930 -0.0938  0.8714 -0.4321
   88SOPE  H12A 8251   3.014   0.897   2.910 -1.0106  0.4050 -0.1265
   88SOPE  H12B 8252   3.120   0.753   2.844 -0.8994  0.1754 -0.5124
   88SOPE   C11 8253   3.169   0.829   3.049 -0.3129 -1.1180 -0.6397
   88SOPE  H11A 8254   3.106   0.893   3.114 -1.8236 -1.9521 -1.2416
   88SOPE  H11B 8255   3.251   0.895   3.011 -3.7130  2.2623 -2.8673
   88SOPE     P 8256   3.316   0.612   3.090 -0.2393 -0.6473 -0.4131
   88SOPE   O13 8257   3.372   0.647   2.955 -0.1900  0.0123  0.0303
   88SOPE   O14 8258   3.251   0.479   3.110 -0.2574 -0.0764 -0.2195
   88SOPE   O12 8259   3.203   0.717   3.129 -0.1444 -0.1943  0.0024
   88SOPE   O11 8260   3.421   0.630   3.200 -0.0940 -0.1037  0.1786
   88SOPE    C1 8261   3.420   0.736   3.292 -0.5949 -0.4256  0.4219
   88SOPE    HA 8262   3.366   0.828   3.261  0.1281 -0.4320 -0.9232
   88SOPE    HB 8263   3.526   0.763   3.309 -0.5160 -0.4157 -0.0664
   88SOPE    C2 8264   3.357   0.687   3.429  0.3634 -0.3402  0.4296
   88SOPE    HS 8265   3.248   0.706   3.422 -0.0834 -0.9678  3.7866
   88SOPE   O21 8266   3.419   0.764   3.534 -0.2935  0.0948  0.1278
   88SOPE   C21 8267   3.346   0.777   3.643 -0.0280 -0.6256  0.2953
   88SOPE   O22 8268   3.226   0.759   3.653 -0.1110 -0.1154  0.2391
   88SOPE   C22 8269   3.443   0.829   3.753  0.2038 -0.2880  0.2894
   88SOPE   H2R 8270   3.500   0.919   3.720 -0.0047 -0.6067 -1.0163
   88SOPE   H2S 8271   3.520   0.749   3.757 -0.5280 -1.0003  0.3643
   88SOPE    C3 8272   3.379   0.536   3.460 -0.3663  0.4492  0.2793
   88SOPE    HX 8273   3.488   0.519   3.471 -0.1550  0.7935 -1.0773
   88SOPE    HY 8274   3.356   0.473   3.372 -0.3905  0.9592 -0.0862
   88SOPE   O31 8275   3.321   0.488   3.585  0.5854 -0.2984  0.1803
   88SOPE   C31 8276   3.193   0.441   3.567  0.1477  0.1088 -0.6983
   88SOPE   O32 8277   3.135   0.447   3.461 -0.1118  0.6695 -0.0501
   88SOPE   C32 8278   3.135   0.388   3.691  0.2923  0.2391  0.4553
   88SOPE   H2X 8279   3.120   0.279   3.684  0.8854  0.2127 -0.5905
   88SOPE   H2Y 8280   3.034   0.432   3.708  0.4728  0.1481  1.8438
   88SOPE   C23 8281   3.370   0.839   3.891  0.1112  0.2854 -0.5092
   88SOPE   H3R 8282   3.312   0.744   3.897  0.2877  0.1213 -1.2959
   88SOPE   H3S 8283   3.293   0.919   3.885 -0.1009  0.1220 -0.0197
   88SOPE   C24 8284   3.457   0.870   4.005 -0.1869 -0.2795 -0.8008
   88SOPE   H4R 8285   3.546   0.805   4.006 -0.0800 -0.1866 -2.1704
   88SOPE   H4S 8286   3.495   0.975   4.000  0.1571 -0.4034 -0.7862
   88SOPE   C25 8287   3.394   0.851   4.139  0.2983 -0.0004 -0.7095
   88SOPE   H5R 8288   3.299   0.909   4.147  1.0461  1.1364  0.4813
   88SOPE   H5S 8289   3.367   0.747   4.165  1.1239  0.4252  2.2280
   88SOPE   C26 8290   3.488   0.894   4.262 -0.8433 -0.0113  0.4536
   88SOPE   H6R 8291   3.579   0.832   4.250 -1.1421 -0.1780 -1.2991
   88SOPE   H6S 8292   3.524   0.993   4.226  0.4366 -0.0619  1.5166
   88SOPE   C27 8293   3.438   0.893   4.403  0.7573  0.2173 -1.0162
   88SOPE   H7R 8294   3.333   0.929   4.406  1.0606  1.0888  2.4189
   88SOPE   H7S 8295   3.441   0.793   4.451 -0.5121  0.4640 -0.3866
   88SOPE   C28 8296   3.533   0.972   4.496 -0.4736 -0.2320  0.4194
   88SOPE   H8R 8297   3.628   0.916   4.494  0.5599  1.3923  1.6951
   88SOPE   H8S 8298   3.549   1.070   4.446 -1.7965 -0.4842 -0.5620
   88SOPE   C29 8299   3.474   0.984   4.638  0.5449  0.5171  1.1034
   88SOPE   H91 8300   3.400   1.066   4.643 -0.8399 -0.5304 -1.0013
   88SOPE  C210 8301   3.521   0.924   4.745  0.5407  0.3175 -0.3359
   88SOPE  H101 8302   3.477   0.949   4.843 -1.1103 -0.9865 -0.6947
   88SOPE  C211 8303   3.627   0.818   4.751 -0.4337 -0.5343 -0.4669
   88SOPE  H11R 8304   3.677   0.792   4.655 -5.5640  1.9954 -4.3291
   88SOPE  H11S 8305   3.572   0.726   4.779 -0.0704 -1.2186 -1.9046
   88SOPE  C212 8306   3.740   0.844   4.855  0.3638  0.0829  0.3341
   88SOPE  H12R 8307   3.797   0.750   4.872 -1.2832 -1.1203 -0.4853
   88SOPE  H12S 8308   3.685   0.872   4.948  1.4234  0.3324  0.8993
   88SOPE  C213 8309   3.836   0.957   4.827  0.6015  0.3962  0.2377
   88SOPE  H13R 8310   3.792   1.058   4.842 -0.8527 -0.2307  0.3542
   88SOPE  H13S 8311   3.866   0.956   4.720 -0.4115  1.5095 -0.0707
   88SOPE  C214 8312   3.965   0.947   4.918  0.6368  0.6078  0.6007
   88SOPE  H14R 8313   3.989   0.838   4.917 -0.6994  0.2503  2.3790
   88SOPE  H14S 8314   3.928   0.966   5.021  0.0873  2.0323  0.1626
   88SOPE  C215 8315   4.090   1.032   4.891  0.6004  0.2454 -0.0329
   88SOPE  H15R 8316   4.139   1.002   4.796  1.0484  1.2581 -0.1253
   88SOPE  H15S 8317   4.159   1.008   4.974  0.4951 -0.8315 -0.2329
   88SOPE  C216 8318   4.053   1.181   4.884  0.2015 -0.0836 -0.1134
   88SOPE  H16R 8319   3.975   1.210   4.958 -0.3068 -1.0635 -0.2440
   88SOPE  H16S 8320   3.995   1.189   4.789 -1.0234 -0.8607  0.5464
   88SOPE  C217 8321   4.173   1.278   4.875  0.7949  0.1466 -0.3596
   88SOPE  H17R 8322   4.134   1.366   4.819 -0.2951 -1.5044 -2.3250
   88SOPE  H17S 8323   4.254   1.249   4.805  2.5607 -0.0120  1.6547
   88SOPE  C218 8324   4.221   1.316   5.013  0.3549 -0.0133  0.5513
   88SOPE  H18R 8325   4.235   1.222   5.071  0.6769  1.6223  3.3269
   88SOPE  H18S 8326   4.153   1.388   5.064  0.8384  0.8306  0.0446
   88SOPE  H18T 8327   4.321   1.363   5.001  0.3386 -0.5636 -2.7558
   88SOPE   C33 8328   3.213   0.432   3.810 -0.3203  0.0651  0.5206
   88SOPE   H3X 8329   3.224   0.542   3.801  1.3787 -0.2523 -3.2430
   88SOPE   H3Y 8330   3.317   0.390   3.812 -0.6320 -0.7693 -0.1494
   88SOPE   C34 8331   3.145   0.400   3.943 -0.5164  0.7084 -0.2083
   88SOPE   H4X 8332   3.120   0.292   3.951 -0.2963  0.7256  0.8150
   88SOPE   H4Y 8333   3.048   0.455   3.944 -1.7026 -1.1899 -2.3241
   88SOPE   C35 8334   3.248   0.422   4.053 -0.3625  0.2900 -0.9144
   88SOPE   H5X 8335   3.287   0.525   4.066  5.1044 -1.3808 -1.7916
   88SOPE   H5Y 8336   3.334   0.355   4.037 -0.8978 -0.4233 -0.8661
   88SOPE   C36 8337   3.209   0.387   4.200  0.4589 -0.5365 -0.2634
   88SOPE   H6X 8338   3.302   0.373   4.259  0.6589 -0.5556 -0.5770
   88SOPE   H6Y 8339   3.154   0.290   4.200 -0.3554 -0.0845  1.1726
   88SOPE   C37 8340   3.127   0.486   4.289 -0.0468 -0.0943  0.1510
   88SOPE   H7X 8341   3.037   0.520   4.233  0.8855  2.7495  0.2329
   88SOPE   H7Y 8342   3.209   0.558   4.306 -0.0924 -0.2456  1.0574
   88SOPE   C38 8343   3.067   0.434   4.416 -0.0262 -0.4564  0.6036
   88SOPE   H8X 8344   3.142   0.379   4.476 -0.0401 -1.7956 -0.5577
   88SOPE   H8Y 8345   2.981   0.370   4.385 -0.6604  1.6528 -2.4696
   88SOPE   C39 8346   3.007   0.534   4.511 -0.4816  0.4388  0.3505
   88SOPE   H9X 8347   3.076   0.619   4.529 -1.8035  1.7301 -0.3905
   88SOPE   H9Y 8348   3.009   0.481   4.608 -1.9056  0.2188  0.2887
   88SOPE  C310 8349   2.865   0.587   4.470  0.3511 -0.5616  0.1613
   88SOPE  H10X 8350   2.799   0.498   4.462 -0.1665 -0.0797 -1.4430
   88SOPE  H10Y 8351   2.860   0.629   4.367 -1.4386  2.1305  1.2505
   88SOPE  C311 8352   2.792   0.699   4.551 -1.0761  0.1381  0.1866
   88SOPE  H11X 8353   2.761   0.657   4.649 -0.1246  1.2986  1.0128
   88SOPE  H11Y 8354   2.689   0.711   4.512 -1.6082 -2.3586  0.6352
   88SOPE  C312 8355   2.862   0.834   4.556 -0.5710 -0.5473 -0.0042
   88SOPE  H12X 8356   2.879   0.869   4.452 -1.4473 -3.5854 -1.2907
   88SOPE  H12Y 8357   2.965   0.811   4.589 -0.4434  0.3617  0.2566
   88SOPE  C313 8358   2.787   0.947   4.634 -0.1984  0.8882 -0.2602
   88SOPE  H13X 8359   2.795   0.913   4.740  0.0316 -0.3638 -0.6559
   88SOPE  H13Y 8360   2.679   0.941   4.607 -0.1406  1.1153 -0.5354
   88SOPE  C314 8361   2.831   1.088   4.608 -0.0844  0.0235  0.0250
   88SOPE  H14X 8362   2.762   1.156   4.664  0.6629  0.0911  0.8745
   88SOPE  H14Y 8363   2.810   1.111   4.501 -1.6658 -3.2948 -0.5046
   88SOPE  C315 8364   2.972   1.131   4.644  0.0369 -0.5037 -0.8145
   88SOPE  H15X 8365   2.961   1.241   4.657  0.2134 -0.1313 -3.2230
   88SOPE  H15Y 8366   3.050   1.131   4.565 -0.3054  1.5952 -1.2236
   88SOPE  C316 8367   3.030   1.073   4.773  0.1187 -0.5952 -0.2068
   88SOPE  H16X 8368   3.067   0.969   4.758  1.2966 -0.2113 -0.0563
   88SOPE  H16Y 8369   2.946   1.064   4.845 -0.9082  0.7429 -1.1931
   88SOPE  C317 8370   3.134   1.163   4.838  0.3399 -0.4421  0.3236
   88SOPE  H17X 8371   3.084   1.257   4.871  0.0949 -1.0077  1.6151
   88SOPE  H17Y 8372   3.214   1.196   4.768  1.5969  0.5286  2.1406
   88SOPE  C318 8373   3.202   1.106   4.960  0.1246 -0.1411 -0.2291
   88SOPE  H18X 8374   3.292   1.159   4.997 -0.0155 -0.6310  0.8548
   88SOPE  H18Y 8375   3.250   1.010   4.930  1.0008 -0.5317  2.1636
   88SOPE  H18Z 8376   3.141   1.106   5.053 -0.0036  2.1139 -0.2570
   89SAPC     N 8377   5.961   3.757   7.594 -0.2729 -1.1978 -0.3824
   89SAPC   C12 8378   5.941   3.780   7.451 -0.4033  0.0073 -0.1120
   89SAPC  H12A 8379   5.987   3.873   7.422 -3.4813  1.4762 -0.6589
   89SAPC  H12B 8380   5.836   3.805   7.444  0.0452  2.2424  0.5295
   89SAPC   C13 8381   5.903   3.872   7.678  0.0150  0.5102  0.4642
   89SAPC  H13A 8382   5.808   3.907   7.639 -0.0611 -1.7819 -1.6491
   89SAPC  H13B 8383   5.884   3.845   7.781 -2.7815 -0.3890 -0.1817
   89SAPC  H13C 8384   5.971   3.955   7.663  1.4587 -0.9928 -2.1500
   89SAPC   C14 8385   5.887   3.638   7.632 -0.6826 -0.1313 -0.8105
   89SAPC  H14A 8386   5.920   3.597   7.727  1.8355 -0.1474 -1.6029
   89SAPC  H14B 8387   5.782   3.660   7.644 -0.6766 -1.1657  1.7468
   89SAPC  H14C 8388   5.901   3.563   7.556 -0.6283  1.2057 -2.1593
   89SAPC   C15 8389   6.111   3.741   7.623  1.0410  0.6643  0.0194
   89SAPC  H15A 8390   6.125   3.710   7.726 -1.2386 -0.0339  0.1717
   89SAPC  H15B 8391   6.156   3.668   7.557 -0.0542  0.6548 -0.7289
   89SAPC  H15C 8392   6.158   3.837   7.610 -1.5113  1.8177 -1.3339
   89SAPC   C11 8393   5.981   3.675   7.339  0.0207 -0.2428  0.2030
   89SAPC  H11A 8394   5.946   3.710   7.239 -0.8070 -0.2588  0.4804
   89SAPC  H11B 8395   5.935   3.577   7.362  0.0550 -0.0661  1.0658
   89SAPC     P 8396   6.215   3.773   7.254 -0.7082 -0.5656  0.0290
   89SAPC   O13 8397   6.186   3.910   7.287 -0.0561  0.1672  0.1202
   89SAPC   O14 8398   6.353   3.736   7.292 -0.1431 -0.0233  0.2783
   89SAPC   O12 8399   6.126   3.668   7.330  0.2134 -0.4264  0.0901
   89SAPC   O11 8400   6.205   3.754   7.098  0.6612  0.1011  0.4106
   89SAPC    C1 8401   6.127   3.642   7.046 -0.3036  1.0138 -0.0960
   89SAPC    HA 8402   6.119   3.564   7.124  2.5894 -1.4314 -2.0014
   89SAPC    HB 8403   6.031   3.678   7.004 -0.9802 -1.0904 -0.5075
   89SAPC    C2 8404   6.201   3.589   6.928  0.0604 -0.2214 -0.0903
   89SAPC    HS 8405   6.307   3.569   6.957  0.2523  0.6982 -0.1396
   89SAPC   O21 8406   6.185   3.682   6.821  0.1716  0.6036 -0.4070
   89SAPC   C21 8407   6.276   3.678   6.729  0.2663 -0.6120  0.4953
   89SAPC   O22 8408   6.386   3.632   6.738 -0.1715  0.6507  0.3151
   89SAPC   C22 8409   6.220   3.747   6.605 -0.1672 -0.1750  0.1678
   89SAPC   H2R 8410   6.159   3.675   6.545 -2.6597  3.0840 -1.5528
   89SAPC   H2S 8411   6.139   3.817   6.634 -1.4644 -1.3514 -0.4705
   89SAPC    C3 8412   6.129   3.461   6.878  1.1231  0.2682 -0.2472
   89SAPC    HX 8413   6.154   3.377   6.947 -0.7707 -1.1718 -1.2186
   89SAPC    HY 8414   6.167   3.446   6.775 -1.7929  1.4710 -1.5934
   89SAPC   O31 8415   5.981   3.485   6.880 -0.4127 -0.3549  0.6042
   89SAPC   C31 8416   5.913   3.377   6.834 -0.1157  0.5708  0.2808
   89SAPC   O32 8417   5.969   3.277   6.800  0.1068 -0.0007 -0.1915
   89SAPC   C32 8418   5.762   3.414   6.830  0.0584  0.2286  0.2743
   89SAPC   H2X 8419   5.722   3.421   6.933 -1.9252  1.5968 -0.5450
   89SAPC   H2Y 8420   5.709   3.327   6.786 -0.2592 -0.0340  1.1589
   89SAPC   C23 8421   6.321   3.806   6.500  0.0961 -0.2357  0.4727
   89SAPC   H3R 8422   6.260   3.845   6.416  0.1457  0.7979  0.9107
   89SAPC   H3S 8423   6.384   3.722   6.462  0.2620  0.6517 -1.2968
   89SAPC   C24 8424   6.406   3.917   6.561 -0.5191  0.3073 -0.7223
   89SAPC   H4R 8425   6.503   3.930   6.509 -1.2749 -3.0880 -3.4102
   89SAPC   H4S 8426   6.442   3.898   6.665 -1.2151  0.0168 -0.5298
   89SAPC   C25 8427   6.330   4.046   6.558 -0.1326 -0.4989 -0.2803
   89SAPC   H5R 8428   6.270   4.060   6.649  0.2280  1.4277 -0.3039
   89SAPC   C26 8429   6.334   4.134   6.460  0.4683 -0.4071 -0.6274
   89SAPC   H6R 8430   6.261   4.217   6.459  1.3505  0.4496  1.1398
   89SAPC   C27 8431   6.412   4.114   6.330 -0.1440  0.2516 -0.3181
   89SAPC   H7R 8432   6.360   4.158   6.243 -0.9976 -2.2889 -1.1853
   89SAPC   H7S 8433   6.422   4.008   6.298  0.2943 -0.5317  2.1570
   89SAPC   C28 8434   6.545   4.183   6.334 -0.3965  0.3000 -0.6398
   89SAPC   H8R 8435   6.547   4.254   6.418 -4.1744 -0.6769  0.4650
   89SAPC   C29 8436   6.662   4.153   6.277  0.1031 -0.1926 -0.3640
   89SAPC   H9R 8437   6.748   4.221   6.276  0.6259 -0.8236  0.3118
   89SAPC  C210 8438   6.681   4.022   6.201 -0.6431  0.2059 -0.4576
   89SAPC  H10R 8439   6.586   3.979   6.162 -0.7970 -0.0967  0.2311
   89SAPC  H10S 8440   6.719   3.950   6.277 -0.2774  1.6507  0.7576
   89SAPC  C211 8441   6.786   4.033   6.090 -0.3979 -0.4259 -0.1037
   89SAPC  H11R 8442   6.890   4.005   6.114 -0.6127  0.0662  1.5017
   89SAPC  C212 8443   6.773   4.063   5.959 -0.0896  0.6904 -0.2724
   89SAPC  H12R 8444   6.865   4.065   5.899 -0.0311 -1.0224 -0.2635
   89SAPC  C213 8445   6.640   4.071   5.885 -0.0691 -0.4666 -0.0432
   89SAPC  H13R 8446   6.571   3.991   5.919 -0.2872 -0.4432 -0.4287
   89SAPC  H13S 8447   6.664   4.031   5.784 -0.6100  0.4443 -0.5509
   89SAPC  C214 8448   6.581   4.212   5.876 -0.8703 -0.3307 -0.6336
   89SAPC  H14R 8449   6.577   4.255   5.977 -0.2971  0.1189 -0.8040
   89SAPC  C215 8450   6.539   4.283   5.769 -0.6184  0.4608 -0.5700
   89SAPC  H15R 8451   6.498   4.382   5.794 -0.4676  0.1101  1.2324
   89SAPC  C216 8452   6.525   4.240   5.627 -0.2908  0.3511 -0.1469
   89SAPC  H16R 8453   6.422   4.264   5.592  0.8553  1.2864 -3.1656
   89SAPC  H16S 8454   6.542   4.131   5.618 -0.7518  0.3967 -1.8609
   89SAPC  C217 8455   6.614   4.307   5.512 -0.3505  0.3862 -0.7054
   89SAPC  H17R 8456   6.717   4.289   5.550 -0.4172  0.0603 -0.6723
   89SAPC  H17S 8457   6.600   4.417   5.513 -2.1193  0.1966 -0.3192
   89SAPC  C218 8458   6.584   4.253   5.371 -0.1900  0.3998  0.4546
   89SAPC  H18R 8459   6.476   4.269   5.351 -0.3061 -0.6465  0.1685
   89SAPC  H18S 8460   6.607   4.145   5.357  3.7261  1.1273  0.1562
   89SAPC  C219 8461   6.672   4.326   5.275 -0.1595  0.7573 -0.7500
   89SAPC  H19R 8462   6.770   4.284   5.308 -0.3524 -0.2226 -1.3814
   89SAPC  H19S 8463   6.678   4.434   5.299  1.0158  0.5238  0.0967
   89SAPC  C220 8464   6.655   4.296   5.122  0.5925  0.1146 -0.3593
   89SAPC  H20R 8465   6.735   4.330   5.052  1.3047 -0.3614  0.2168
   89SAPC  H20S 8466   6.556   4.337   5.093 -0.5726 -0.8426  2.0791
   89SAPC  H20T 8467   6.645   4.189   5.097  2.3180  0.0853 -1.1277
   89SAPC   C33 8468   5.718   3.548   6.757 -0.5226 -0.9760 -0.1939
   89SAPC   H3X 8469   5.780   3.637   6.780 -2.5627  1.3113 -2.8667
   89SAPC   H3Y 8470   5.614   3.566   6.791 -0.6944  0.1787 -1.2784
   89SAPC   C34 8471   5.716   3.548   6.607  0.0797 -0.0078  0.8707
   89SAPC   H4X 8472   5.674   3.637   6.556  1.4322  0.2877  0.2266
   89SAPC   H4Y 8473   5.655   3.465   6.565 -0.0629  0.8919 -0.7408
   89SAPC   C35 8474   5.852   3.523   6.551 -0.5774 -0.8919 -0.0242
   89SAPC   H5X 8475   5.881   3.417   6.564 -2.5294 -1.1100  4.8341
   89SAPC   H5Y 8476   5.926   3.588   6.604 -1.1257 -0.6944  0.5100
   89SAPC   C36 8477   5.862   3.562   6.397  0.1269  0.2436  0.6185
   89SAPC   H6X 8478   5.971   3.566   6.377 -0.1763 -2.0427 -2.1600
   89SAPC   H6Y 8479   5.822   3.662   6.370  2.9982  1.9383  2.1602
   89SAPC   C37 8480   5.793   3.447   6.317  0.4244 -0.2135  0.5132
   89SAPC   H7X 8481   5.690   3.475   6.287 -0.7430  0.5026  4.6954
   89SAPC   H7Y 8482   5.795   3.354   6.378  0.5094 -0.8516 -0.4267
   89SAPC   C38 8483   5.868   3.410   6.196 -1.1402 -0.7139  1.3610
   89SAPC   H8X 8484   5.847   3.306   6.163 -0.0700 -0.7227  0.6541
   89SAPC   H8Y 8485   5.978   3.417   6.208 -0.7756 -1.1647 -1.1611
   89SAPC   C39 8486   5.840   3.488   6.069  0.4998  0.2816 -0.1648
   89SAPC   H9X 8487   5.860   3.597   6.073  1.2262  0.1797 -0.7131
   89SAPC   H9Y 8488   5.733   3.469   6.048  0.1207  0.1533  1.7467
   89SAPC  C310 8489   5.918   3.431   5.950 -0.7320 -1.0728  0.1071
   89SAPC  H10X 8490   5.902   3.321   5.947  0.3137 -1.2090 -0.5464
   89SAPC  H10Y 8491   6.026   3.438   5.971 -0.1750  2.8653 -2.9546
   89SAPC  C311 8492   5.890   3.503   5.814  0.0003  0.4226 -0.4988
   89SAPC  H11X 8493   5.923   3.609   5.816 -3.9612  1.8556 -1.3001
   89SAPC  H11Y 8494   5.782   3.494   5.787 -0.0002 -0.2181 -0.3122
   89SAPC  C312 8495   5.961   3.431   5.708 -0.6727 -0.3238 -0.4386
   89SAPC  H12X 8496   5.915   3.330   5.698 -0.2556 -0.3772 -2.1818
   89SAPC  H12Y 8497   6.070   3.421   5.727 -1.0043 -1.2056  1.1609
   89SAPC  C313 8498   5.938   3.512   5.576  0.6652  0.1363  0.4197
   89SAPC  H13X 8499   5.980   3.615   5.580 -0.1382  0.5265 -0.5765
   89SAPC  H13Y 8500   5.830   3.534   5.561  0.4379 -1.6439 -0.8557
   89SAPC  C314 8501   5.972   3.429   5.448  0.6318  0.4091  0.0923
   89SAPC  H14X 8502   5.888   3.361   5.422  0.6335  0.4047  0.0991
   89SAPC  H14Y 8503   6.068   3.378   5.472 -0.3712 -1.0293  1.2562
   89SAPC  C315 8504   6.002   3.528   5.335  0.4582  0.2184  0.1909
   89SAPC  H15X 8505   6.096   3.585   5.352  1.3174 -0.7570 -1.0121
   89SAPC  H15Y 8506   5.930   3.610   5.316  2.1518  1.4527 -1.3056
   89SAPC  C316 8507   6.014   3.464   5.195  0.3682  0.1788 -0.1962
   89SAPC  H16X 8508   5.913   3.425   5.174 -0.0285  0.6746  0.7242
   89SAPC  H16Y 8509   6.085   3.378   5.197  1.1217  0.7523 -1.2970
   89SAPC  C317 8510   6.060   3.554   5.088 -0.9887 -0.4724  0.8715
   89SAPC  H17X 8511   5.978   3.628   5.074 -1.2540 -0.8492  0.4325
   89SAPC  H17Y 8512   6.085   3.494   4.998  1.8964  0.7148  0.7582
   89SAPC  C318 8513   6.198   3.625   5.123  0.3353 -0.4733 -0.0963
   89SAPC  H18X 8514   6.275   3.550   5.151 -0.4308 -0.8191  1.1495
   89SAPC  H18Y 8515   6.205   3.704   5.201 -1.7995  1.1214 -1.4303
   89SAPC  H18Z 8516   6.225   3.673   5.027 -2.1942  0.4729 -0.3973
   90SAPC     N 8517   4.105   1.370   7.393  0.5291  0.6858 -0.1250
   90SAPC   C12 8518   3.976   1.353   7.318 -0.5354  0.3215 -0.1913
   90SAPC  H12A 8519   3.949   1.444   7.267 -2.3091 -0.3570 -0.5353
   90SAPC  H12B 8520   3.898   1.339   7.392 -0.1920  0.2705  0.1676
   90SAPC   C13 8521   4.098   1.495   7.487 -0.3187  0.2282 -0.2027
   90SAPC  H13A 8522   4.190   1.526   7.535  0.7190 -2.5407 -0.2312
   90SAPC  H13B 8523   4.071   1.580   7.426 -1.6268  2.0014  2.6122
   90SAPC  H13C 8524   4.011   1.488   7.550 -0.1241  2.6691  0.4332
   90SAPC   C14 8525   4.138   1.251   7.480 -0.3423 -0.1763 -0.2100
   90SAPC  H14A 8526   4.241   1.261   7.512  0.2093 -1.8148 -1.3490
   90SAPC  H14B 8527   4.078   1.246   7.569  2.3014 -0.2927  1.6959
   90SAPC  H14C 8528   4.139   1.159   7.424  1.7839  0.3694 -1.1682
   90SAPC   C15 8529   4.211   1.398   7.287  0.4713  0.5064  0.1072
   90SAPC  H15A 8530   4.211   1.497   7.243 -1.2552 -0.0021 -1.1722
   90SAPC  H15B 8531   4.306   1.357   7.316 -0.4915 -3.0227 -1.2097
   90SAPC  H15C 8532   4.179   1.340   7.201 -2.8313  0.8783  0.9421
   90SAPC   C11 8533   3.960   1.240   7.208 -0.1616  0.3194 -0.0534
   90SAPC  H11A 8534   4.007   1.144   7.238 -0.8836 -1.2935 -3.5212
   90SAPC  H11B 8535   4.020   1.261   7.117 -0.1683 -0.3111 -0.2120
   90SAPC     P 8536   3.767   1.098   7.114  0.1886  0.6769  0.2213
   90SAPC   O13 8537   3.821   0.994   7.204  0.4208  0.1226  0.0879
   90SAPC   O14 8538   3.622   1.127   7.109  0.2889  0.0468  0.2681
   90SAPC   O12 8539   3.823   1.227   7.175  0.8956  0.0139  0.0823
   90SAPC   O11 8540   3.828   1.085   6.969  0.0857  0.1800  0.3199
   90SAPC    C1 8541   3.839   1.202   6.884  0.5989  0.1255  0.6005
   90SAPC    HA 8542   3.849   1.296   6.941  1.3442  0.9753 -0.8716
   90SAPC    HB 8543   3.935   1.200   6.829  1.7299 -0.4286  2.5080
   90SAPC    C2 8544   3.719   1.223   6.787  0.4289  0.1417 -0.1391
   90SAPC    HS 8545   3.620   1.219   6.838  0.9528 -2.1676  0.8453
   90SAPC   O21 8546   3.734   1.123   6.683 -0.0962  0.5047  0.1527
   90SAPC   C21 8547   3.665   1.012   6.711  0.1441  0.0036  0.0329
   90SAPC   O22 8548   3.589   0.993   6.804  0.1023 -0.0895  0.3743
   90SAPC   C22 8549   3.714   0.901   6.608  0.6431 -0.3875  0.0123
   90SAPC   H2R 8550   3.795   0.949   6.550  0.9493  1.2142  1.6754
   90SAPC   H2S 8551   3.747   0.819   6.675 -0.3561 -0.8513 -0.0360
   90SAPC    C3 8552   3.732   1.362   6.709  0.4693  0.4348 -0.0814
   90SAPC    HX 8553   3.821   1.354   6.642  0.2216  1.8479 -0.5940
   90SAPC    HY 8554   3.734   1.449   6.778 -1.4414  0.4047  0.0547
   90SAPC   O31 8555   3.614   1.377   6.632 -0.0111 -0.1515 -0.2220
   90SAPC   C31 8556   3.612   1.487   6.562 -0.9016 -0.1471 -0.1731
   90SAPC   O32 8557   3.692   1.578   6.561 -0.4638 -0.5171  0.0462
   90SAPC   C32 8558   3.481   1.478   6.486  0.5215 -0.0592 -0.1703
   90SAPC   H2X 8559   3.467   1.575   6.434  1.4872 -0.3164 -0.9401
   90SAPC   H2Y 8560   3.402   1.470   6.563  2.1270 -0.9005  1.4533
   90SAPC   C23 8561   3.601   0.843   6.522 -0.1617 -0.3094 -0.6740
   90SAPC   H3R 8562   3.515   0.808   6.583 -0.2089  1.6755  0.4707
   90SAPC   H3S 8563   3.654   0.761   6.469 -0.3764 -0.1286 -1.1716
   90SAPC   C24 8564   3.559   0.942   6.415  0.0544 -0.8541 -0.0943
   90SAPC   H4R 8565   3.659   0.984   6.389  0.9956 -3.4316 -0.8880
   90SAPC   H4S 8566   3.507   1.032   6.455  1.6033 -1.0095  2.4921
   90SAPC   C25 8567   3.499   0.861   6.299  0.0175  0.6789  0.1783
   90SAPC   H5R 8568   3.400   0.818   6.322  0.5678  0.4629  2.3049
   90SAPC   C26 8569   3.538   0.855   6.170 -0.2743  0.1593  0.0164
   90SAPC   H6R 8570   3.470   0.814   6.094  1.3663 -1.4378 -0.6710
   90SAPC   C27 8571   3.671   0.915   6.122 -0.1051 -0.1501  0.4715
   90SAPC   H7R 8572   3.728   0.852   6.051  0.5657 -0.5260  1.3304
   90SAPC   H7S 8573   3.739   0.913   6.210 -1.0676  1.3321  1.2850
   90SAPC   C28 8574   3.674   1.054   6.072 -0.0375 -0.1000  0.4880
   90SAPC   H8R 8575   3.700   1.123   6.153  0.4719 -1.0099  1.1009
   90SAPC   C29 8576   3.643   1.099   5.945  0.5947 -1.0433 -0.2310
   90SAPC   H9R 8577   3.658   1.205   5.919 -1.7477 -1.1175 -2.2095
   90SAPC  C210 8578   3.588   1.018   5.834 -0.2600  0.0941  0.0946
   90SAPC  H10R 8579   3.491   1.062   5.799  0.5838  1.2460 -0.8781
   90SAPC  H10S 8580   3.574   0.916   5.876  1.0658 -1.1743 -2.3080
   90SAPC  C211 8581   3.694   1.011   5.727  0.4043 -0.3502 -0.3483
   90SAPC  H11R 8582   3.793   1.045   5.759  1.8029 -3.1052 -1.4490
   90SAPC  C212 8583   3.672   0.989   5.596  0.2837  0.0265  0.9350
   90SAPC  H12R 8584   3.753   1.016   5.526  0.1195  0.1207  0.7804
   90SAPC  C213 8585   3.537   0.937   5.535 -1.0540 -0.4134  1.1448
   90SAPC  H13R 8586   3.469   0.896   5.612 -0.4765  0.0714  1.9197
   90SAPC  H13S 8587   3.568   0.863   5.458 -1.8224  2.6448 -2.4180
   90SAPC  C214 8588   3.468   1.050   5.457 -0.1545  0.2326  0.5670
   90SAPC  H14R 8589   3.467   1.148   5.506 -1.1396  0.3782  0.2807
   90SAPC  C215 8590   3.396   1.036   5.342 -0.4349 -0.4291 -0.5694
   90SAPC  H15R 8591   3.338   1.125   5.310  0.8497  1.1882  1.3754
   90SAPC  C216 8592   3.365   0.915   5.263 -0.7450 -0.0233  1.1825
   90SAPC  H16R 8593   3.423   0.826   5.296 -0.2052  0.1180  0.6279
   90SAPC  H16S 8594   3.400   0.927   5.158 -0.0976  1.3710  1.5342
   90SAPC  C217 8595   3.208   0.892   5.270  0.2736  0.3366  0.3143
   90SAPC  H17R 8596   3.161   0.981   5.223  1.0155  0.8070  0.4421
   90SAPC  H17S 8597   3.165   0.857   5.366 -2.6572  1.9065 -0.3062
   90SAPC  C218 8598   3.159   0.786   5.171 -0.1176  0.1639  0.1802
   90SAPC  H18R 8599   3.172   0.685   5.215  0.4774  0.5817  0.9797
   90SAPC  H18S 8600   3.230   0.799   5.086 -1.6906  2.5078 -0.8921
   90SAPC  C219 8601   3.016   0.789   5.117 -0.2378 -0.3125 -0.3266
   90SAPC  H19R 8602   2.998   0.892   5.081 -2.6259 -0.5433  0.0909
   90SAPC  H19S 8603   2.942   0.791   5.199  0.3869  3.1077  0.2913
   90SAPC  C220 8604   2.972   0.689   5.019  0.2559  0.7548 -0.0720
   90SAPC  H20R 8605   2.863   0.701   5.001  0.2632  1.5782  0.4165
   90SAPC  H20S 8606   2.989   0.586   5.056 -0.3545  0.5404 -0.3752
   90SAPC  H20T 8607   3.030   0.689   4.924  2.0773  0.7053  0.9938
   90SAPC   C33 8608   3.476   1.365   6.374 -0.4507 -0.1418  0.2491
   90SAPC   H3X 8609   3.466   1.266   6.423 -1.9892 -1.2385 -2.0930
   90SAPC   H3Y 8610   3.569   1.376   6.314 -0.8877  2.7072 -0.0778
   90SAPC   C34 8611   3.355   1.386   6.284  0.6478 -0.6894  0.6522
   90SAPC   H4X 8612   3.361   1.490   6.245  0.7489 -0.7800  0.4205
   90SAPC   H4Y 8613   3.253   1.374   6.326 -0.1821  2.8505 -0.0560
   90SAPC   C35 8614   3.370   1.294   6.159  0.5103  0.4498  0.4754
   90SAPC   H5X 8615   3.362   1.189   6.191 -1.8249  0.2358 -0.5614
   90SAPC   H5Y 8616   3.463   1.326   6.107 -1.2243  3.2134 -1.2764
   90SAPC   C36 8617   3.259   1.300   6.051  0.1162  0.0824 -0.3791
   90SAPC   H6X 8618   3.250   1.400   6.003 -2.0844 -0.3680 -1.0104
   90SAPC   H6Y 8619   3.162   1.279   6.102  0.7957  0.2694  1.0286
   90SAPC   C37 8620   3.272   1.192   5.938 -0.0502 -0.1053  0.6397
   90SAPC   H7X 8621   3.283   1.088   5.974  1.0477 -0.6422 -1.1275
   90SAPC   H7Y 8622   3.361   1.216   5.876 -0.3507 -0.2063  0.1628
   90SAPC   C38 8623   3.151   1.189   5.839 -0.1446  0.5210  0.8250
   90SAPC   H8X 8624   3.133   1.292   5.801 -0.4315  0.1397 -0.1014
   90SAPC   H8Y 8625   3.056   1.165   5.891 -0.0504 -0.5865  0.5059
   90SAPC   C39 8626   3.178   1.082   5.729  0.0798  0.2501  0.8033
   90SAPC   H9X 8627   3.179   0.984   5.783 -1.1094 -0.2880 -0.0924
   90SAPC   H9Y 8628   3.279   1.101   5.689  0.1360 -0.2783  0.6788
   90SAPC  C310 8629   3.082   1.090   5.605 -0.5594 -0.2387 -0.1242
   90SAPC  H10X 8630   2.979   1.070   5.641 -0.5373 -2.4622 -1.1182
   90SAPC  H10Y 8631   3.109   0.997   5.550 -0.2223  1.2181 -2.5845
   90SAPC  C311 8632   3.091   1.223   5.522  0.0066  0.0088 -0.1323
   90SAPC  H11X 8633   3.197   1.236   5.495  0.1691  3.3268  1.5598
   90SAPC  H11Y 8634   3.062   1.309   5.586 -1.5274 -1.5023  1.3252
   90SAPC  C312 8635   2.991   1.209   5.407  0.1300 -0.2029 -0.8008
   90SAPC  H12X 8636   2.892   1.203   5.456  0.7226 -0.3819  0.4316
   90SAPC  H12Y 8637   3.012   1.116   5.351 -0.0012  0.5265 -2.1039
   90SAPC  C313 8638   3.002   1.338   5.316 -0.7206  0.1572 -0.3857
   90SAPC  H13X 8639   3.109   1.345   5.290 -0.7618 -0.7825 -0.8605
   90SAPC  H13Y 8640   2.977   1.421   5.385 -1.3998  0.0716 -0.5151
   90SAPC  C314 8641   2.911   1.343   5.197  0.0485  0.7256  0.0165
   90SAPC  H14X 8642   2.810   1.378   5.227 -0.9537 -0.1558 -2.1777
   90SAPC  H14Y 8643   2.898   1.235   5.172 -0.1268  0.5530  0.7957
   90SAPC  C315 8644   2.967   1.436   5.091  0.2913 -0.3926  0.2581
   90SAPC  H15X 8645   2.892   1.428   5.010 -1.2045  1.2690  1.3858
   90SAPC  H15Y 8646   3.076   1.417   5.078  0.3546 -0.6282  1.0770
   90SAPC  C316 8647   2.961   1.581   5.136  0.2128 -0.3030  0.7152
   90SAPC  H16X 8648   3.024   1.603   5.226  2.4321  2.0150 -1.2521
   90SAPC  H16Y 8649   2.860   1.612   5.169 -0.4229 -2.4108  0.9142
   90SAPC  C317 8650   3.034   1.676   5.032  0.2167 -0.5382  0.3778
   90SAPC  H17X 8651   3.137   1.635   5.037  0.2541 -0.6754 -1.0613
   90SAPC  H17Y 8652   3.036   1.781   5.068  0.9526  0.1504 -1.5350
   90SAPC  C318 8653   2.980   1.656   4.887 -0.0923  0.2035  0.5390
   90SAPC  H18X 8654   2.990   1.550   4.856  2.0587  1.1966 -2.6995
   90SAPC  H18Y 8655   3.041   1.714   4.814  0.0991 -0.6706 -0.0162
   90SAPC  H18Z 8656   2.875   1.683   4.862  0.0597  0.5149  0.2214
   91SAPC     N 8657   1.292   0.602   7.146 -0.1542 -0.1716  0.7400
   91SAPC   C12 8658   1.396   0.630   7.042  0.4597  0.3058 -0.0452
   91SAPC  H12A 8659   1.450   0.541   7.012 -0.9369 -0.0322 -1.7158
   91SAPC  H12B 8660   1.470   0.694   7.089  0.9612  0.2429 -0.7258
   91SAPC   C13 8661   1.342   0.519   7.266  0.1065  0.4903 -0.2979
   91SAPC  H13A 8662   1.264   0.488   7.335 -0.6086  0.5620 -1.0570
   91SAPC  H13B 8663   1.388   0.429   7.230 -0.9098 -0.4150  0.5735
   91SAPC  H13C 8664   1.417   0.578   7.316  0.0157  2.3158 -2.1708
   91SAPC   C14 8665   1.226   0.728   7.201  0.1748 -0.9956 -0.4190
   91SAPC  H14A 8666   1.298   0.780   7.262 -0.6494  0.0900 -0.3487
   91SAPC  H14B 8667   1.205   0.796   7.119  0.1243 -0.7823 -0.2294
   91SAPC  H14C 8668   1.136   0.727   7.259  0.9423  3.0901  1.1540
   91SAPC   C15 8669   1.182   0.527   7.076  0.1113 -0.3326  0.2711
   91SAPC  H15A 8670   1.096   0.522   7.141  0.8638 -2.2788  1.1985
   91SAPC  H15B 8671   1.155   0.568   6.980 -1.6554 -0.8200  0.5278
   91SAPC  H15C 8672   1.210   0.423   7.066 -2.4870 -1.2662  1.8986
   91SAPC   C11 8673   1.355   0.716   6.918  0.5383  0.4181  0.3130
   91SAPC  H11A 8674   1.273   0.673   6.856 -1.3064  3.9987  0.0209
   91SAPC  H11B 8675   1.450   0.717   6.861 -0.4868  3.4485 -1.5478
   91SAPC     P 8676   1.426   0.958   6.976 -0.0139 -0.4989 -0.1133
   91SAPC   O13 8677   1.396   1.040   7.092 -0.3792 -0.3996 -0.7712
   91SAPC   O14 8678   1.556   0.896   6.979  0.7313  0.6043 -1.0098
   91SAPC   O12 8679   1.321   0.852   6.951  0.2296 -0.2064 -0.4493
   91SAPC   O11 8680   1.410   1.041   6.839 -0.2421  0.2372  0.5881
   91SAPC    C1 8681   1.292   1.069   6.773  0.7222  0.2034 -0.1205
   91SAPC    HA 8682   1.209   1.004   6.807  2.1452 -0.7723  1.6795
   91SAPC    HB 8683   1.257   1.170   6.802 -0.6905 -0.7420  1.6382
   91SAPC    C2 8684   1.304   1.048   6.616  0.3659  0.7176 -0.2656
   91SAPC    HS 8685   1.211   1.092   6.573  0.7946  0.9198 -1.0091
   91SAPC   O21 8686   1.319   0.907   6.582 -0.3518 -0.2492 -0.3001
   91SAPC   C21 8687   1.197   0.847   6.582 -0.5788 -0.3774 -0.4969
   91SAPC   O22 8688   1.094   0.907   6.589  0.7853  0.2975  0.3366
   91SAPC   C22 8689   1.210   0.702   6.558 -0.1916  0.4415  0.5197
   91SAPC   H2R 8690   1.315   0.676   6.534  0.0618  0.2341  1.7691
   91SAPC   H2S 8691   1.186   0.647   6.652  1.5878  1.4549  1.6051
   91SAPC    C3 8692   1.419   1.125   6.551 -0.5015  0.6398  0.1149
   91SAPC    HX 8693   1.513   1.095   6.600 -0.9264  0.2875  0.7216
   91SAPC    HY 8694   1.395   1.229   6.582 -0.1979  0.4767  0.9206
   91SAPC   O31 8695   1.429   1.114   6.408 -0.1382 -0.1991  0.7381
   91SAPC   C31 8696   1.472   1.219   6.343  0.2831  0.8907 -0.4222
   91SAPC   O32 8697   1.522   1.318   6.394 -0.2066  0.3252  0.7932
   91SAPC   C32 8698   1.459   1.193   6.195  0.5309 -0.0607 -0.1835
   91SAPC   H2X 8699   1.352   1.182   6.165  0.5611 -0.1754 -0.2491
   91SAPC   H2Y 8700   1.512   1.097   6.179 -1.6567 -1.1827 -1.2022
   91SAPC   C23 8701   1.126   0.649   6.437 -0.6768  0.4346  0.2426
   91SAPC   H3R 8702   1.020   0.680   6.431 -0.9731 -0.8684 -2.2526
   91SAPC   H3S 8703   1.113   0.539   6.449 -1.7830  0.3238 -1.6360
   91SAPC   C24 8704   1.203   0.671   6.303 -0.1682  0.0280 -0.1920
   91SAPC   H4R 8705   1.176   0.593   6.229 -1.2768  0.5351 -0.3427
   91SAPC   H4S 8706   1.312   0.655   6.316 -0.0037  0.5780 -0.8414
   91SAPC   C25 8707   1.203   0.812   6.258 -0.1934  0.2784  0.4654
   91SAPC   H5R 8708   1.293   0.867   6.286  1.0397 -1.2400 -0.3494
   91SAPC   C26 8709   1.099   0.883   6.214 -0.4903 -0.0373 -0.6433
   91SAPC   H6R 8710   1.115   0.987   6.185  1.2393 -0.0074  0.3428
   91SAPC   C27 8711   0.970   0.823   6.168  0.0659 -0.2751  0.4052
   91SAPC   H7R 8712   0.967   0.720   6.210  0.7177 -0.6916 -0.5315
   91SAPC   H7S 8713   0.976   0.813   6.058 -2.3844 -0.5649  0.2564
   91SAPC   C28 8714   0.849   0.904   6.218  0.6208  0.2494 -0.1483
   91SAPC   H8R 8715   0.827   0.891   6.325 -0.9983 -3.0289 -0.7497
   91SAPC   C29 8716   0.752   0.963   6.145 -0.4742 -0.1968  0.3108
   91SAPC   H9R 8717   0.673   1.025   6.190 -0.1995  1.2513 -1.0939
   91SAPC  C210 8718   0.754   0.970   5.991  0.0431 -0.5588  0.0010
   91SAPC  H10R 8719   0.843   0.925   5.943  1.0658  0.8259  0.5272
   91SAPC  H10S 8720   0.769   1.077   5.966 -0.8867 -0.4116  0.0119
   91SAPC  C211 8721   0.618   0.930   5.932 -0.1943 -1.3383 -0.2767
   91SAPC  H11R 8722   0.534   0.912   6.001  0.3820 -0.5038  0.6574
   91SAPC  C212 8723   0.597   0.920   5.800 -0.3947  0.2139 -0.8649
   91SAPC  H12R 8724   0.506   0.868   5.764 -0.7683  2.5153 -3.5981
   91SAPC  C213 8725   0.693   0.949   5.690  0.1953 -0.1114  0.2423
   91SAPC  H13R 8726   0.751   0.855   5.682  2.1575  0.9567  1.1531
   91SAPC  H13S 8727   0.764   1.029   5.720 -0.8730  0.8379  0.3147
   91SAPC  C214 8728   0.642   0.984   5.550  0.1744 -0.0228  0.5968
   91SAPC  H14R 8729   0.685   0.919   5.473 -1.3542 -0.9125  0.4443
   91SAPC  C215 8730   0.541   1.069   5.515  0.2937  0.0675  0.8135
   91SAPC  H15R 8731   0.520   1.071   5.407 -0.8564  1.8825  1.0160
   91SAPC  C216 8732   0.456   1.145   5.609  0.8261 -0.5745  0.7433
   91SAPC  H16R 8733   0.501   1.153   5.710  0.4711 -2.9316  1.1239
   91SAPC  H16S 8734   0.359   1.092   5.619  1.1413 -1.2400  0.3008
   91SAPC  C217 8735   0.414   1.288   5.564 -0.0357  0.1085 -0.1369
   91SAPC  H17R 8736   0.504   1.349   5.540  0.2557 -0.3462 -0.2089
   91SAPC  H17S 8737   0.364   1.342   5.647  0.3829  1.9476 -1.0044
   91SAPC  C218 8738   0.310   1.292   5.452 -0.1527  0.4784 -0.3432
   91SAPC  H18R 8739   0.211   1.264   5.494  0.1362 -1.8751 -1.0733
   91SAPC  H18S 8740   0.341   1.211   5.382  0.1249  0.1578  0.1460
   91SAPC  C219 8741   0.305   1.429   5.387 -0.0727  0.7109 -0.7413
   91SAPC  H19R 8742   0.407   1.463   5.361  0.4753 -0.2641  0.0740
   91SAPC  H19S 8743   0.278   1.497   5.471 -1.5789 -0.8731  0.1202
   91SAPC  C220 8744   0.217   1.425   5.270  0.8945 -0.9254  0.5478
   91SAPC  H20R 8745   0.158   1.332   5.262 -2.4756  1.1891 -1.3423
   91SAPC  H20S 8746   0.279   1.425   5.178 -0.9089 -1.7622 -0.7102
   91SAPC  H20T 8747   0.143   1.507   5.261  1.5683 -0.2028  1.4126
   91SAPC   C33 8748   1.529   1.302   6.107  0.0816  0.3477 -0.2844
   91SAPC   H3X 8749   1.639   1.306   6.126  0.2708  0.5853 -1.3422
   91SAPC   H3Y 8750   1.485   1.400   6.136 -2.0265 -0.6488  0.0169
   91SAPC   C34 8751   1.498   1.270   5.958  0.0091  0.4665 -0.7911
   91SAPC   H4X 8752   1.566   1.335   5.899  0.5952  0.1021 -0.5241
   91SAPC   H4Y 8753   1.400   1.313   5.928 -0.8642 -1.6250 -1.0588
   91SAPC   C35 8754   1.516   1.124   5.912  0.3678 -0.1466  0.1835
   91SAPC   H5X 8755   1.438   1.064   5.964  1.0475 -0.3446  0.9954
   91SAPC   H5Y 8756   1.614   1.085   5.945 -0.0022 -1.3180 -0.0445
   91SAPC   C36 8757   1.493   1.109   5.766 -0.6617 -0.8713 -0.4056
   91SAPC   H6X 8758   1.584   1.159   5.726 -0.1323 -0.3853  1.3115
   91SAPC   H6Y 8759   1.394   1.152   5.740 -0.5378 -0.1753  0.2354
   91SAPC   C37 8760   1.484   0.967   5.716  0.0283 -0.0286 -0.5901
   91SAPC   H7X 8761   1.420   0.900   5.778  0.1749  2.7203  2.8274
   91SAPC   H7Y 8762   1.588   0.932   5.733 -0.1994  0.1237  1.2379
   91SAPC   C38 8763   1.440   0.959   5.569  0.4600 -0.2177 -0.3979
   91SAPC   H8X 8764   1.507   1.019   5.504  1.7541 -1.3637 -0.1788
   91SAPC   H8Y 8765   1.346   1.016   5.554  1.1444  0.9309 -0.4324
   91SAPC   C39 8766   1.417   0.823   5.525 -0.0662  0.4824 -0.2217
   91SAPC   H9X 8767   1.383   0.821   5.419  1.6488 -0.0536 -0.7985
   91SAPC   H9Y 8768   1.335   0.764   5.571  0.0389 -0.4384 -1.1745
   91SAPC  C310 8769   1.546   0.740   5.516 -0.1750  0.6093 -0.5996
   91SAPC  H10X 8770   1.582   0.727   5.621 -1.6144  2.3600  0.1554
   91SAPC  H10Y 8771   1.618   0.803   5.459  0.7064  1.2551  1.1419
   91SAPC  C311 8772   1.540   0.603   5.452 -0.0950  0.1293  0.9254
   91SAPC  H11X 8773   1.521   0.522   5.526  1.3002 -0.4113  0.7204
   91SAPC  H11Y 8774   1.644   0.590   5.416 -0.9414 -2.3054 -0.8915
   91SAPC  C312 8775   1.460   0.600   5.318 -0.0230  0.5998 -0.1180
   91SAPC  H12X 8776   1.506   0.675   5.249  1.0263  1.4947  1.5026
   91SAPC  H12Y 8777   1.353   0.622   5.335 -0.1584 -0.8672  1.0904
   91SAPC  C313 8778   1.448   0.465   5.245  0.6892  0.2781  0.4107
   91SAPC  H13X 8779   1.388   0.390   5.300 -1.0360  0.8703 -0.5850
   91SAPC  H13Y 8780   1.553   0.428   5.249  0.3970 -0.7230 -0.5043
   91SAPC  C314 8781   1.414   0.470   5.094  0.3264 -0.1219 -0.0452
   91SAPC  H14X 8782   1.442   0.372   5.049 -1.9740 -0.6251 -0.5161
   91SAPC  H14Y 8783   1.479   0.536   5.033  2.0764 -0.6979  1.0920
   91SAPC  C315 8784   1.268   0.493   5.067  0.2046  0.2613 -1.1750
   91SAPC  H15X 8785   1.234   0.597   5.087  0.3718 -0.1170  1.4491
   91SAPC  H15Y 8786   1.214   0.426   5.137  1.7541 -0.7114 -0.8587
   91SAPC  C316 8787   1.228   0.434   4.923  0.3471  0.5097 -0.3095
   91SAPC  H16X 8788   1.270   0.333   4.906 -0.5437 -0.2539  1.7220
   91SAPC  H16Y 8789   1.267   0.501   4.843  0.8325 -0.9826 -1.3780
   91SAPC  C317 8790   1.076   0.404   4.918  0.0891  0.1250  0.5990
   91SAPC  H17X 8791   1.044   0.335   4.999 -2.0615 -0.3805 -0.6164
   91SAPC  H17Y 8792   1.056   0.367   4.815 -0.8548 -1.0323  1.1767
   91SAPC  C318 8793   0.985   0.528   4.942  0.0143 -0.2997 -0.3176
   91SAPC  H18X 8794   0.984   0.598   4.857  1.4182 -0.3280 -0.3775
   91SAPC  H18Y 8795   0.999   0.572   5.043  1.2585  0.8542 -0.9733
   91SAPC  H18Z 8796   0.879   0.494   4.947 -0.3027  0.7686  0.9818
   92SAPC     N 8797   0.599   6.734   7.263  0.3852 -0.4363 -0.5185
   92SAPC   C12 8798   0.636   6.782   7.124  0.7742 -0.5013  0.2562
   92SAPC  H12A 8799   0.561   6.756   7.050 -0.2857 -0.9642  1.4736
   92SAPC  H12B 8800   0.722   6.728   7.087  0.8114 -0.6700  0.5888
   92SAPC   C13 8801   0.481   6.798   7.327 -0.0139 -0.6957  0.0722
   92SAPC  H13A 8802   0.465   6.754   7.424 -1.0055 -0.3724  0.0607
   92SAPC  H13B 8803   0.494   6.905   7.332  1.4222 -0.9049  1.7846
   92SAPC  H13C 8804   0.394   6.789   7.264 -1.0324  0.4546  1.2614
   92SAPC   C14 8805   0.571   6.588   7.255  0.1246 -0.6921 -0.3043
   92SAPC  H14A 8806   0.491   6.571   7.185 -0.2142  0.8722 -0.3231
   92SAPC  H14B 8807   0.655   6.523   7.234 -1.5685 -3.0902 -0.0666
   92SAPC  H14C 8808   0.551   6.550   7.354  3.0266 -1.4017  0.0923
   92SAPC   C15 8809   0.722   6.758   7.344 -0.1550 -0.6681 -0.4197
   92SAPC  H15A 8810   0.782   6.839   7.303 -1.2378  0.0952 -0.5425
   92SAPC  H15B 8811   0.695   6.773   7.447  1.8240 -0.4892  0.1171
   92SAPC  H15C 8812   0.788   6.674   7.327  0.9100  0.6378 -3.6652
   92SAPC   C11 8813   0.679   6.928   7.099  0.4572 -0.7214 -0.1916
   92SAPC  H11A 8814   0.597   6.983   7.150  1.1985 -0.5235  0.8192
   92SAPC  H11B 8815   0.684   6.937   6.988 -0.1685  0.2525 -0.1471
   92SAPC     P 8816   0.905   7.059   7.093 -0.8064 -0.4074  0.6252
   92SAPC   O13 8817   0.833   7.153   6.999 -0.5330 -0.2723 -0.2086
   92SAPC   O14 8818   0.987   7.134   7.195 -0.4545  0.0091  0.6291
   92SAPC   O12 8819   0.804   6.965   7.159 -0.4988 -0.3471 -0.5367
   92SAPC   O11 8820   1.002   6.967   7.021  0.2658  0.5258 -0.0708
   92SAPC    C1 8821   0.990   6.827   6.993  0.7634 -0.2918 -0.1354
   92SAPC    HA 8822   1.026   6.765   7.078  0.0420  1.3618  1.4319
   92SAPC    HB 8823   0.883   6.799   6.984 -0.0773  2.2038  1.2456
   92SAPC    C2 8824   1.043   6.792   6.847 -0.1331  0.0942  0.1478
   92SAPC    HS 8825   1.050   6.683   6.827 -1.5888  0.0401 -0.1895
   92SAPC   O21 8826   1.167   6.849   6.825 -0.0778 -0.2981 -0.2975
   92SAPC   C21 8827   1.274   6.797   6.866 -0.9336 -0.3596  0.3898
   92SAPC   O22 8828   1.287   6.704   6.948 -0.0749 -0.5464  0.5276
   92SAPC   C22 8829   1.394   6.865   6.795  0.4484  0.6993  0.0585
   92SAPC   H2R 8830   1.373   6.973   6.783  1.2150  0.7292 -1.2007
   92SAPC   H2S 8831   1.473   6.862   6.872 -0.5208  1.9313  1.1432
   92SAPC    C3 8832   0.943   6.850   6.740  0.1977  0.2187 -0.2561
   92SAPC    HX 8833   0.950   6.958   6.767 -1.3918  0.8487 -2.1428
   92SAPC    HY 8834   0.841   6.814   6.765 -0.1133  1.9824  1.2879
   92SAPC   O31 8835   0.982   6.812   6.604 -0.1826  0.0471  0.4278
   92SAPC   C31 8836   1.070   6.894   6.549  0.1012 -0.1478  0.2917
   92SAPC   O32 8837   1.097   7.002   6.591  0.5974 -0.5052 -0.5811
   92SAPC   C32 8838   1.142   6.832   6.426  0.2703 -0.1633  0.5732
   92SAPC   H2X 8839   1.182   6.730   6.446 -0.8222 -0.8754 -0.6780
   92SAPC   H2Y 8840   1.227   6.902   6.408  1.8478 -2.2321 -0.5449
   92SAPC   C23 8841   1.435   6.807   6.657  0.3581 -0.3770  0.1055
   92SAPC   H3R 8842   1.354   6.832   6.585 -1.6882 -2.7541  1.4346
   92SAPC   H3S 8843   1.433   6.697   6.668  2.0197 -0.2427  2.4364
   92SAPC   C24 8844   1.577   6.856   6.620  0.3878 -0.3395  0.0357
   92SAPC   H4R 8845   1.576   6.965   6.639 -0.8264 -0.1174 -1.1427
   92SAPC   H4S 8846   1.563   6.839   6.511  0.2555  1.9812 -0.3468
   92SAPC   C25 8847   1.692   6.771   6.662 -0.2320 -0.0502  0.0365
   92SAPC   H5R 8848   1.689   6.756   6.771  1.0486  2.1623  0.4383
   92SAPC   C26 8849   1.786   6.708   6.581 -0.3912  0.3289 -0.3586
   92SAPC   H6R 8850   1.861   6.649   6.636  2.2017  0.2998 -3.6222
   92SAPC   C27 8851   1.776   6.689   6.433 -0.5733  0.8014 -0.8581
   92SAPC   H7R 8852   1.674   6.709   6.394 -0.8648  0.8911 -0.0586
   92SAPC   H7S 8853   1.801   6.584   6.407  1.2506  1.4315 -1.9014
   92SAPC   C28 8854   1.873   6.780   6.366 -0.5354  0.6540 -0.3240
   92SAPC   H8R 8855   1.930   6.843   6.435 -1.6462  1.6370 -0.2696
   92SAPC   C29 8856   1.883   6.800   6.233 -1.0514 -0.5637 -0.5033
   92SAPC   H9R 8857   1.966   6.863   6.199  0.3418 -0.9044  1.9766
   92SAPC  C210 8858   1.819   6.728   6.121  0.0118  0.1804  0.0954
   92SAPC  H10R 8859   1.744   6.791   6.069 -2.5681 -1.1338  2.0107
   92SAPC  H10S 8860   1.765   6.636   6.152  1.7644 -0.5373  1.1540
   92SAPC  C211 8861   1.921   6.676   6.023  0.5193  0.4345 -0.0614
   92SAPC  H11R 8862   2.007   6.625   6.069  1.1139  2.1471  0.7781
   92SAPC  C212 8863   1.919   6.667   5.890  1.0963  0.2438  0.1025
   92SAPC  H12R 8864   1.998   6.619   5.829  0.5722  2.1723 -2.2532
   92SAPC  C213 8865   1.799   6.704   5.808 -0.1962  0.2029 -0.5143
   92SAPC  H13R 8866   1.805   6.814   5.795  0.0247  0.1818 -0.5816
   92SAPC  H13S 8867   1.714   6.675   5.874  0.9696 -0.1621  0.8803
   92SAPC  C214 8868   1.786   6.632   5.674 -0.0481 -0.0717  0.2580
   92SAPC  H14R 8869   1.784   6.523   5.688  0.3596 -0.1271 -0.0845
   92SAPC  C215 8870   1.763   6.688   5.554 -0.5656 -0.5715 -0.0561
   92SAPC  H15R 8871   1.771   6.627   5.463 -0.4872  0.2662 -0.6206
   92SAPC  C216 8872   1.760   6.835   5.515 -0.1716 -0.3800 -0.1105
   92SAPC  H16R 8873   1.851   6.853   5.453 -0.0161 -2.0912 -0.4563
   92SAPC  H16S 8874   1.762   6.905   5.600 -0.1336 -2.7729  1.9785
   92SAPC  C217 8875   1.638   6.877   5.433 -0.6807  0.0951  0.1314
   92SAPC  H17R 8876   1.629   6.796   5.357  0.7561 -0.0491  0.0801
   92SAPC  H17S 8877   1.655   6.971   5.378 -0.1856 -0.6358 -0.9996
   92SAPC  C218 8878   1.510   6.883   5.513 -0.1088  0.1016 -0.1503
   92SAPC  H18R 8879   1.514   6.818   5.603 -2.3849  1.5725  1.1019
   92SAPC  H18S 8880   1.426   6.846   5.450 -0.4533  1.3232 -0.4311
   92SAPC  C219 8881   1.477   7.027   5.555  0.6432  0.1166  0.0643
   92SAPC  H19R 8882   1.487   7.088   5.463  1.7051 -1.9764 -1.2852
   92SAPC  H19S 8883   1.546   7.052   5.638 -1.9234 -0.0867  2.4059
   92SAPC  C220 8884   1.341   7.052   5.611 -0.3526 -0.8801 -0.4883
   92SAPC  H20R 8885   1.262   7.006   5.547 -0.4833  0.0290 -0.9950
   92SAPC  H20S 8886   1.320   7.161   5.612 -0.5372 -0.8192  3.0100
   92SAPC  H20T 8887   1.324   7.016   5.715 -0.4979 -3.2299 -1.2751
   92SAPC   C33 8888   1.058   6.818   6.294  0.1878  0.6983 -0.9339
   92SAPC   H3X 8889   0.959   6.776   6.321  0.5942  0.2241 -0.1384
   92SAPC   H3Y 8890   1.116   6.763   6.218  1.0241  1.5973 -0.9624
   92SAPC   C34 8891   1.045   6.958   6.229 -0.2192  0.8621  0.2398
   92SAPC   H4X 8892   1.141   7.011   6.211  0.2197  0.6417  1.7639
   92SAPC   H4Y 8893   0.989   7.014   6.307 -0.5139 -0.5420  1.0714
   92SAPC   C35 8894   0.976   6.958   6.088  0.0667  0.0215  0.2370
   92SAPC   H5X 8895   0.873   6.915   6.092  0.6846 -1.5696 -0.2057
   92SAPC   H5Y 8896   1.028   6.881   6.027  0.0082  1.0158 -1.1129
   92SAPC   C36 8897   0.979   7.092   6.024 -0.2756  0.0096  0.2729
   92SAPC   H6X 8898   1.086   7.115   6.010 -0.6989  1.6322 -0.5664
   92SAPC   H6Y 8899   0.929   7.162   6.095  0.1287 -0.8648  1.4371
   92SAPC   C37 8900   0.898   7.103   5.895 -0.2087 -0.0375 -0.1217
   92SAPC   H7X 8901   0.907   7.209   5.865  0.6779  0.1886  0.9055
   92SAPC   H7Y 8902   0.791   7.074   5.909 -0.4466  0.8356 -0.1108
   92SAPC   C38 8903   0.958   7.015   5.776  0.0762 -1.2990 -0.0952
   92SAPC   H8X 8904   0.956   6.907   5.802 -0.0399 -1.1531  0.5235
   92SAPC   H8Y 8905   1.057   7.055   5.745 -0.9544  0.9616 -0.6293
   92SAPC   C39 8906   0.866   7.031   5.656 -0.6618 -0.1498  0.7801
   92SAPC   H9X 8907   0.836   7.135   5.635 -1.1997 -0.2326  1.1366
   92SAPC   H9Y 8908   0.773   6.975   5.680 -0.3958 -2.2401 -2.3837
   92SAPC  C310 8909   0.935   6.969   5.537  0.1963  0.2292  0.5863
   92SAPC  H10X 8910   0.951   6.861   5.560  0.2305  0.3839  1.2998
   92SAPC  H10Y 8911   1.037   7.009   5.518  0.3396  0.0801  1.0225
   92SAPC  C311 8912   0.839   6.979   5.419  0.7969 -0.3754 -0.3802
   92SAPC  H11X 8913   0.837   7.089   5.410 -1.5902 -0.2921  0.4161
   92SAPC  H11Y 8914   0.734   6.946   5.433  1.6251 -3.0885  0.1041
   92SAPC  C312 8915   0.886   6.906   5.293 -0.2375 -0.8490 -0.3666
   92SAPC  H12X 8916   0.846   6.803   5.302 -1.8064 -0.2871 -0.6099
   92SAPC  H12Y 8917   0.997   6.901   5.289 -0.1947  0.1502 -0.6925
   92SAPC  C313 8918   0.843   6.981   5.168  0.8893 -0.1439 -0.1213
   92SAPC  H13X 8919   0.876   6.923   5.080 -0.7996 -2.2745  0.5348
   92SAPC  H13Y 8920   0.882   7.085   5.162 -0.2764  0.3044 -0.2963
   92SAPC  C314 8921   0.688   6.987   5.150  0.6140 -0.5719  0.4647
   92SAPC  H14X 8922   0.630   7.006   5.243  3.1149  0.8318  1.8587
   92SAPC  H14Y 8923   0.651   6.897   5.097  1.7877 -0.2494 -0.9709
   92SAPC  C315 8924   0.640   7.093   5.050 -0.5666 -0.2200 -0.2980
   92SAPC  H15X 8925   0.695   7.075   4.956 -1.9819 -1.7890 -0.8701
   92SAPC  H15Y 8926   0.672   7.193   5.089 -1.7940  0.6483 -1.4426
   92SAPC  C316 8927   0.491   7.116   5.024 -0.4745  0.4499 -0.0920
   92SAPC  H16X 8928   0.444   7.151   5.118 -0.0768 -0.5492  0.4952
   92SAPC  H16Y 8929   0.443   7.021   4.991 -0.8479  0.4834  0.3443
   92SAPC  C317 8930   0.465   7.219   4.907  0.0997  0.1628  0.5307
   92SAPC  H17X 8931   0.356   7.238   4.907  0.2383  1.7071 -2.8148
   92SAPC  H17Y 8932   0.484   7.176   4.806 -1.5085  2.2572 -0.7428
   92SAPC  C318 8933   0.537   7.346   4.922 -0.4354  0.0241  0.0005
   92SAPC  H18X 8934   0.542   7.378   5.028 -0.3368 -2.4728  0.8030
   92SAPC  H18Y 8935   0.497   7.427   4.858  0.5057 -0.6116 -1.4316
   92SAPC  H18Z 8936   0.639   7.322   4.885 -0.5800 -0.2554 -0.2238
   93SAPC     N 8937   2.278   1.801   6.993  0.7867 -0.0575 -0.1412
   93SAPC   C12 8938   2.189   1.795   6.865  0.4765 -0.3941 -0.0667
   93SAPC  H12A 8939   2.091   1.835   6.886  0.2758 -1.0550  0.2662
   93SAPC  H12B 8940   2.172   1.690   6.849  2.2154 -1.0800  2.1012
   93SAPC   C13 8941   2.413   1.743   6.972 -0.3722  0.1366 -0.2775
   93SAPC  H13A 8942   2.465   1.768   7.063 -2.0158 -1.3381  1.1432
   93SAPC  H13B 8943   2.422   1.635   6.966 -1.1853 -0.0382  1.2604
   93SAPC  H13C 8944   2.468   1.791   6.892 -1.5451  2.5973  0.2969
   93SAPC   C14 8945   2.295   1.941   7.044 -0.6970 -0.0220 -0.0411
   93SAPC  H14A 8946   2.354   1.935   7.134 -0.6598  0.9926  0.0065
   93SAPC  H14B 8947   2.349   2.000   6.971  0.5547 -0.9304  0.1130
   93SAPC  H14C 8948   2.194   1.978   7.054 -1.2223 -1.4133  0.0768
   93SAPC   C15 8949   2.208   1.719   7.093  0.2660  0.2468  0.0688
   93SAPC  H15A 8950   2.203   1.620   7.049  1.9894 -0.1152  0.6016
   93SAPC  H15B 8951   2.280   1.713   7.173  0.4123  0.4881 -0.0436
   93SAPC  H15C 8952   2.110   1.759   7.108  0.7575  2.4550 -1.9920
   93SAPC   C11 8953   2.246   1.873   6.740 -0.0651  0.9681 -0.1892
   93SAPC  H11A 8954   2.198   1.826   6.651  0.7444 -1.1543  0.4323
   93SAPC  H11B 8955   2.355   1.854   6.730 -0.0356  2.1714 -2.9789
   93SAPC     P 8956   2.096   2.080   6.730 -0.1235 -0.2836  0.1910
   93SAPC   O13 8957   1.990   1.976   6.725  0.5901 -0.0035 -0.4478
   93SAPC   O14 8958   2.090   2.184   6.833 -0.1904 -0.4110  0.0227
   93SAPC   O12 8959   2.237   2.012   6.749 -0.1971  0.0437 -0.1064
   93SAPC   O11 8960   2.116   2.154   6.588 -0.1230  0.3553 -0.0562
   93SAPC    C1 8961   2.210   2.097   6.491  0.1564 -0.5676  0.1905
   93SAPC    HA 8962   2.308   2.142   6.518 -0.4647 -0.1167  1.7598
   93SAPC    HB 8963   2.204   1.987   6.477 -0.8613 -0.5921  0.7672
   93SAPC    C2 8964   2.181   2.158   6.347  0.1698 -0.0513 -0.0997
   93SAPC    HS 8965   2.152   2.264   6.363  1.1004  0.1653  0.2202
   93SAPC   O21 8966   2.081   2.091   6.280 -0.2482  0.3499 -0.4220
   93SAPC   C21 8967   1.956   2.121   6.313  0.0059 -0.4427  0.0467
   93SAPC   O22 8968   1.928   2.208   6.396  0.1449  0.2591  0.6385
   93SAPC   C22 8969   1.853   2.029   6.248 -0.4202 -0.1316 -0.1369
   93SAPC   H2R 8970   1.898   1.933   6.215 -1.7077 -0.6183 -0.5449
   93SAPC   H2S 8971   1.781   2.009   6.331 -2.1757  0.0050 -1.5586
   93SAPC    C3 8972   2.301   2.168   6.256 -0.1246 -0.3944 -0.3149
   93SAPC    HX 8973   2.263   2.229   6.171 -2.5966  1.9630  2.2318
   93SAPC    HY 8974   2.326   2.064   6.227  0.3364 -1.2259  2.6797
   93SAPC   O31 8975   2.418   2.227   6.316 -0.6024  0.5797 -0.2846
   93SAPC   C31 8976   2.432   2.355   6.291  0.2784 -0.4000 -0.0827
   93SAPC   O32 8977   2.341   2.432   6.262  0.2558  0.0906 -0.2481
   93SAPC   C32 8978   2.565   2.401   6.339  0.0368 -0.3445 -0.5057
   93SAPC   H2X 8979   2.632   2.313   6.348 -0.3137 -0.4635  1.6052
   93SAPC   H2Y 8980   2.545   2.440   6.442 -2.0661 -1.0391 -0.6005
   93SAPC   C23 8981   1.783   2.093   6.130  0.4278 -0.0117  0.4074
   93SAPC   H3R 8982   1.712   2.172   6.165 -0.5616 -0.3570 -0.7435
   93SAPC   H3S 8983   1.712   2.024   6.081 -0.1341 -0.2971  1.5824
   93SAPC   C24 8984   1.881   2.153   6.023  0.4598  0.0864 -0.0020
   93SAPC   H4R 8985   1.946   2.234   6.064  2.1599 -1.1622 -0.0846
   93SAPC   H4S 8986   1.816   2.212   5.956 -1.2262  0.5920  1.9540
   93SAPC   C25 8987   1.961   2.043   5.957  0.4093  0.3380 -0.0337
   93SAPC   H5R 8988   2.061   2.030   5.999  0.5170 -0.6482 -0.5537
   93SAPC   C26 8989   1.912   1.960   5.859 -0.1923 -0.1782 -0.3120
   93SAPC   H6R 8990   1.988   1.889   5.824  1.2538  0.9933  0.3136
   93SAPC   C27 8991   1.778   1.950   5.779 -0.1757 -0.5277 -0.8687
   93SAPC   H7R 8992   1.693   1.926   5.846 -0.3432  0.9725 -0.5060
   93SAPC   H7S 8993   1.796   1.857   5.720  0.8026  0.8340 -2.8387
   93SAPC   C28 8994   1.743   2.064   5.688  0.1114  0.0828 -0.3166
   93SAPC   H8R 8995   1.643   2.107   5.706  1.0466  1.6410  1.6009
   93SAPC   C29 8996   1.824   2.118   5.588 -0.0655  0.4914  0.6850
   93SAPC   H9R 8997   1.805   2.216   5.541  1.3959  0.4251 -0.1057
   93SAPC  C210 8998   1.960   2.070   5.553 -0.3039 -0.1121  0.5552
   93SAPC  H10R 8999   1.970   1.959   5.550  1.6025 -0.0397  2.1894
   93SAPC  H10S 9000   2.042   2.113   5.614  0.3082  2.8589 -2.1295
   93SAPC  C211 9001   2.002   2.115   5.411  0.6018 -0.5612  0.7559
   93SAPC  H11R 9002   1.979   2.221   5.393 -0.7102 -0.7492  1.1984
   93SAPC  C212 9003   2.047   2.041   5.311  0.1213 -0.6765 -0.4630
   93SAPC  H12R 9004   2.085   2.089   5.220  1.8676  1.3871  1.2406
   93SAPC  C213 9005   2.065   1.888   5.323 -0.3780 -0.3210  0.0321
   93SAPC  H13R 9006   1.962   1.847   5.321 -1.3493  1.9591  0.5560
   93SAPC  H13S 9007   2.105   1.863   5.424 -0.9474  1.1511  0.6425
   93SAPC  C214 9008   2.152   1.816   5.218  0.4315 -0.6156 -0.3946
   93SAPC  H14R 9009   2.254   1.857   5.224 -0.0959  0.5430  2.6321
   93SAPC  C215 9010   2.134   1.717   5.134  0.0302 -0.2037 -0.2130
   93SAPC  H15R 9011   2.215   1.680   5.069 -1.3256 -1.3997 -1.3014
   93SAPC  C216 9012   2.002   1.642   5.113 -0.2995 -0.2680 -0.8404
   93SAPC  H16R 9013   1.919   1.714   5.127  1.3470  1.2883  1.9210
   93SAPC  H16S 9014   1.996   1.562   5.190 -0.2741  0.2501 -0.2936
   93SAPC  C217 9015   1.995   1.574   4.972  0.2067 -0.5397 -0.0423
   93SAPC  H17R 9016   2.078   1.500   4.965  0.5001 -0.5838  2.8464
   93SAPC  H17S 9017   2.001   1.647   4.888 -0.8562  0.1259  0.4359
   93SAPC  C218 9018   1.859   1.502   4.963 -0.1063 -0.1126  0.1723
   93SAPC  H18R 9019   1.774   1.566   4.929  0.6849  0.7071 -0.3046
   93SAPC  H18S 9020   1.830   1.456   5.060  1.6048  0.4283  0.9668
   93SAPC  C219 9021   1.856   1.379   4.871  0.3108 -0.9023  0.1125
   93SAPC  H19R 9022   1.959   1.336   4.866  0.4224 -0.5150 -2.8651
   93SAPC  H19S 9023   1.839   1.400   4.763  1.0078  1.1009  0.3571
   93SAPC  C220 9024   1.749   1.271   4.910 -0.1949 -0.7436 -0.7794
   93SAPC  H20R 9025   1.750   1.186   4.839 -2.8763 -1.5585  0.0387
   93SAPC  H20S 9026   1.650   1.322   4.913  0.0808 -0.1000 -2.1249
   93SAPC  H20T 9027   1.776   1.230   5.010  2.7793 -1.6026 -1.8314
   93SAPC   C33 9028   2.629   2.512   6.250  0.2314  0.2757 -0.0153
   93SAPC   H3X 9029   2.717   2.557   6.300 -0.6921  3.1272 -0.7766
   93SAPC   H3Y 9030   2.553   2.592   6.239  1.3764  1.2345 -1.2478
   93SAPC   C34 9031   2.683   2.457   6.118  0.1850  0.7183  0.0222
   93SAPC   H4X 9032   2.763   2.387   6.148 -0.7956 -0.6977 -0.5577
   93SAPC   H4Y 9033   2.739   2.540   6.070  1.1143  0.2896  0.3367
   93SAPC   C35 9034   2.596   2.408   6.004  0.6055 -0.4872 -0.2737
   93SAPC   H5X 9035   2.526   2.325   6.028 -0.8919  0.4229 -1.3683
   93SAPC   H5Y 9036   2.662   2.374   5.922  1.3607  1.4335 -0.5163
   93SAPC   C36 9037   2.507   2.523   5.947 -0.0259  0.2435  0.3101
   93SAPC   H6X 9038   2.584   2.588   5.900 -0.4166  0.3566 -0.1845
   93SAPC   H6Y 9039   2.455   2.586   6.022  1.1817  1.4306  0.1816
   93SAPC   C37 9040   2.418   2.457   5.838 -0.2480  0.2243 -0.3980
   93SAPC   H7X 9041   2.484   2.410   5.762 -0.6236 -3.1034  1.1659
   93SAPC   H7Y 9042   2.361   2.544   5.800  0.3664  1.2039  0.8310
   93SAPC   C38 9043   2.311   2.350   5.881 -0.4636  0.1365 -0.2390
   93SAPC   H8X 9044   2.238   2.385   5.958  0.8471 -0.2576  1.2513
   93SAPC   H8Y 9045   2.355   2.267   5.940  0.0638 -0.2900 -1.2213
   93SAPC   C39 9046   2.249   2.292   5.747  0.0477 -0.1006  0.3730
   93SAPC   H9X 9047   2.205   2.196   5.781  2.3915 -1.1391  0.6170
   93SAPC   H9Y 9048   2.335   2.268   5.682  0.8878  3.9400 -0.2886
   93SAPC  C310 9049   2.144   2.389   5.692 -0.5145  0.1914  0.1709
   93SAPC  H10X 9050   2.154   2.487   5.745 -0.6749  0.9535 -1.1500
   93SAPC  H10Y 9051   2.052   2.340   5.730  1.6792 -2.8412  2.0211
   93SAPC  C311 9052   2.151   2.418   5.542  0.8107  0.3548  0.1647
   93SAPC  H11X 9053   2.060   2.467   5.502  1.0922  0.7042 -0.0515
   93SAPC  H11Y 9054   2.150   2.322   5.486  1.5664  0.7005 -0.4546
   93SAPC  C312 9055   2.270   2.504   5.507  0.4681  0.0366 -0.1632
   93SAPC  H12X 9056   2.353   2.470   5.574  0.6703  2.2681  0.8110
   93SAPC  H12Y 9057   2.239   2.602   5.549 -2.4764 -0.8023 -0.1774
   93SAPC  C313 9058   2.304   2.511   5.358 -0.6375  1.3027  0.0783
   93SAPC  H13X 9059   2.364   2.419   5.339 -0.3736  1.7053 -1.1008
   93SAPC  H13Y 9060   2.368   2.602   5.354  0.5882  0.4519 -0.1743
   93SAPC  C314 9061   2.188   2.518   5.263  0.1300 -0.5460  1.0124
   93SAPC  H14X 9062   2.107   2.579   5.309  0.5449  0.9706 -0.1760
   93SAPC  H14Y 9063   2.164   2.412   5.240 -0.9780 -0.1498  0.3054
   93SAPC  C315 9064   2.216   2.592   5.127  0.3631 -0.2011  0.6388
   93SAPC  H15X 9065   2.301   2.538   5.082  0.0035 -1.3851  1.3242
   93SAPC  H15Y 9066   2.241   2.697   5.152 -3.3974  0.6459  1.4762
   93SAPC  C316 9067   2.100   2.601   5.030 -0.4384  0.4355 -0.2975
   93SAPC  H16X 9068   2.036   2.689   5.055 -0.2144  0.8657 -1.1944
   93SAPC  H16Y 9069   2.041   2.509   5.048 -2.6210  1.9096  0.5850
   93SAPC  C317 9070   2.142   2.605   4.881  0.2406  0.6743 -0.9421
   93SAPC  H17X 9071   2.216   2.525   4.860  0.7286  1.3584 -1.9134
   93SAPC  H17Y 9072   2.199   2.698   4.859  2.2168 -0.3830 -0.5473
   93SAPC  C318 9073   2.034   2.581   4.778 -0.0087  0.2765 -0.3552
   93SAPC  H18X 9074   2.074   2.581   4.674  0.2027 -0.1870 -0.2743
   93SAPC  H18Y 9075   1.971   2.671   4.792  1.9056  1.3032  2.4933
   93SAPC  H18Z 9076   1.977   2.489   4.802 -0.5938  0.9399  0.8750
   94SAPC     N 9077   0.297   5.897   7.066 -0.2922  0.4870  0.1961
   94SAPC   C12 9078   0.417   5.859   7.137  0.0264 -0.0121  0.2828
   94SAPC  H12A 9079   0.405   5.755   7.162  1.2979  0.0020  1.0833
   94SAPC  H12B 9080   0.423   5.897   7.238 -2.7472 -1.3263  1.0315
   94SAPC   C13 9081   0.288   6.046   7.072 -0.9320 -0.1934  0.1195
   94SAPC  H13A 9082   0.323   6.077   7.169  1.2332  0.4440 -0.7827
   94SAPC  H13B 9083   0.374   6.087   7.021  0.3585 -2.0797  0.6929
   94SAPC  H13C 9084   0.192   6.089   7.045 -1.4868 -0.2973  1.8499
   94SAPC   C14 9085   0.291   5.858   6.923  0.2165  0.3688  0.3573
   94SAPC  H14A 9086   0.209   5.904   6.869  0.9107  1.2940  0.0739
   94SAPC  H14B 9087   0.380   5.890   6.873  2.0373 -2.3989  1.5779
   94SAPC  H14C 9088   0.268   5.753   6.916 -0.0870  0.3787  1.0237
   94SAPC   C15 9089   0.173   5.847   7.140 -0.2754 -0.7117  0.0797
   94SAPC  H15A 9090   0.179   5.871   7.245  2.5795  1.2091 -0.3873
   94SAPC  H15B 9091   0.091   5.902   7.096 -0.2669 -0.2868  0.5860
   94SAPC  H15C 9092   0.157   5.743   7.117 -0.7052 -0.4302 -0.9650
   94SAPC   C11 9093   0.548   5.868   7.064 -0.1599 -0.5953  0.1497
   94SAPC  H11A 9094   0.544   5.819   6.964  1.7916  1.9370 -1.3197
   94SAPC  H11B 9095   0.627   5.815   7.122  0.6370  2.2335  1.8443
   94SAPC     P 9096   0.687   6.068   7.156  0.2112  0.0581  0.1578
   94SAPC   O13 9097   0.599   6.165   7.230  0.3953 -0.0287  0.0194
   94SAPC   O14 9098   0.747   5.968   7.240 -0.4102 -0.0975 -0.3191
   94SAPC   O12 9099   0.596   6.005   7.040  0.3811 -0.6719  0.4338
   94SAPC   O11 9100   0.797   6.154   7.074 -0.2077 -1.5363  0.0018
   94SAPC    C1 9101   0.871   6.083   6.968  0.3706  0.0471  0.5764
   94SAPC    HA 9102   0.937   6.003   7.007  0.3554 -0.1832  0.1413
   94SAPC    HB 9103   0.801   6.044   6.891  0.7044 -0.3627  0.4766
   94SAPC    C2 9104   0.962   6.190   6.901 -0.6617  0.3825 -0.3040
   94SAPC    HS 9105   1.018   6.251   6.975 -0.7902 -0.3641  0.4174
   94SAPC   O21 9106   0.884   6.289   6.830  0.1123  0.2066  0.8208
   94SAPC   C21 9107   0.955   6.397   6.787  0.5884  0.2143 -0.6655
   94SAPC   O22 9108   1.071   6.419   6.810  0.2951  0.6503 -0.2561
   94SAPC   C22 9109   0.864   6.486   6.697 -0.4635 -0.1749 -0.3970
   94SAPC   H2R 9110   0.773   6.427   6.673  0.6873 -1.3511 -2.0694
   94SAPC   H2S 9111   0.840   6.579   6.753 -0.7741  0.3486 -1.3964
   94SAPC    C3 9112   1.089   6.120   6.829 -0.2027  0.0405 -0.4209
   94SAPC    HX 9113   1.137   6.049   6.900  0.4772 -1.6816 -2.4887
   94SAPC    HY 9114   1.168   6.198   6.821 -0.3833  0.2352 -0.3092
   94SAPC   O31 9115   1.068   6.064   6.697 -0.0218  0.5262  0.3241
   94SAPC   C31 9116   1.028   5.943   6.690 -0.2229 -0.1869  1.0224
   94SAPC   O32 9117   0.998   5.867   6.779 -0.0888  0.0490  0.9615
   94SAPC   C32 9118   1.014   5.907   6.543  0.4883  0.3124  0.2285
   94SAPC   H2X 9119   1.098   5.945   6.481  1.0363 -1.4104 -0.1463
   94SAPC   H2Y 9120   0.921   5.957   6.510  0.3112  0.5913  1.1286
   94SAPC   C23 9121   0.942   6.524   6.569 -0.0473 -0.4492 -0.1971
   94SAPC   H3R 9122   1.044   6.555   6.601  0.2531 -1.3266 -0.3029
   94SAPC   H3S 9123   0.886   6.613   6.532 -2.2955 -2.1994 -1.2124
   94SAPC   C24 9124   0.948   6.418   6.462  0.4164 -0.0503  0.9633
   94SAPC   H4R 9125   0.970   6.316   6.502  2.1321  0.1228  0.5358
   94SAPC   H4S 9126   1.029   6.436   6.389 -0.0275 -4.1332 -0.7997
   94SAPC   C25 9127   0.826   6.421   6.380 -0.4444  0.4710 -0.9429
   94SAPC   H5R 9128   0.728   6.412   6.427 -1.0456 -0.3334 -2.2776
   94SAPC   C26 9129   0.814   6.426   6.246 -0.0953 -0.0981  0.7278
   94SAPC   H6R 9130   0.713   6.424   6.201  0.2823  0.8772 -0.2166
   94SAPC   C27 9131   0.920   6.436   6.140 -0.7775  0.1526  0.6386
   94SAPC   H7R 9132   1.009   6.386   6.184  0.5051  1.4630 -0.3289
   94SAPC   H7S 9133   0.951   6.542   6.126  0.6691 -0.1620  1.2318
   94SAPC   C28 9134   0.878   6.371   6.008  0.5043 -0.4799 -0.1246
   94SAPC   H8R 9135   0.792   6.304   6.018  0.3374  0.0858  3.7532
   94SAPC   C29 9136   0.936   6.398   5.886  1.0521  0.5174 -0.0137
   94SAPC   H9R 9137   0.882   6.337   5.811  1.1461 -1.0623  1.1433
   94SAPC  C210 9138   1.055   6.477   5.845  0.2147  0.2743  0.0505
   94SAPC  H10R 9139   1.142   6.443   5.905  0.1844 -1.5432 -0.8501
   94SAPC  H10S 9140   1.043   6.578   5.889 -1.8537  0.5498 -1.0282
   94SAPC  C211 9141   1.081   6.486   5.698  0.2361  0.0177 -0.3297
   94SAPC  H11R 9142   1.042   6.403   5.636  1.0808 -1.6443  1.2555
   94SAPC  C212 9143   1.154   6.582   5.642 -0.5142  0.0517 -0.1373
   94SAPC  H12R 9144   1.175   6.583   5.534  0.1937  0.7847 -0.0036
   94SAPC  C213 9145   1.219   6.700   5.711 -0.3843  0.4825  0.2085
   94SAPC  H13R 9146   1.142   6.741   5.780 -0.0255  0.5023  0.6072
   94SAPC  H13S 9147   1.228   6.770   5.626  0.4466 -3.0965 -2.8937
   94SAPC  C214 9148   1.337   6.664   5.791  0.8854 -1.1816  0.3805
   94SAPC  H14R 9149   1.378   6.566   5.761  1.4526 -0.8884  0.1898
   94SAPC  C215 9150   1.391   6.720   5.901  0.1790 -0.3220  0.1430
   94SAPC  H15R 9151   1.488   6.686   5.940  0.2554 -0.9794 -0.6074
   94SAPC  C216 9152   1.344   6.845   5.978  0.5622  0.3955  0.5203
   94SAPC  H16R 9153   1.313   6.806   6.078  1.5102 -1.9952 -0.0607
   94SAPC  H16S 9154   1.256   6.897   5.935 -1.1357 -0.7089  2.4352
   94SAPC  C217 9155   1.452   6.950   5.991  0.1839  0.1074 -0.0102
   94SAPC  H17R 9156   1.473   7.009   5.900 -0.5343  2.0713  1.0294
   94SAPC  H17S 9157   1.547   6.899   6.017  0.2386  0.1124 -0.2003
   94SAPC  C218 9158   1.418   7.056   6.099  0.0701  0.3517 -0.3615
   94SAPC  H18R 9159   1.310   7.080   6.093  0.2764  1.0745 -1.7401
   94SAPC  H18S 9160   1.484   7.144   6.085  2.2570 -0.9966  0.9124
   94SAPC  C219 9161   1.448   7.009   6.243 -0.3936 -0.5357  0.5776
   94SAPC  H19R 9162   1.542   6.950   6.237 -0.6435 -0.7721 -1.8709
   94SAPC  H19S 9163   1.365   6.940   6.268 -0.3075 -1.9262 -2.5470
   94SAPC  C220 9164   1.455   7.113   6.348  0.1473 -0.0261  0.0955
   94SAPC  H20R 9165   1.467   7.215   6.306  1.4756  0.2888  1.1469
   94SAPC  H20S 9166   1.537   7.088   6.419  1.0396 -1.6114 -1.4219
   94SAPC  H20T 9167   1.359   7.126   6.403 -0.6611 -2.3686 -0.6595
   94SAPC   C33 9168   0.973   5.756   6.513  0.0175 -0.6997 -0.9565
   94SAPC   H3X 9169   0.885   5.736   6.578 -0.7679 -1.2410 -2.1582
   94SAPC   H3Y 9170   1.052   5.682   6.541  0.0183 -0.3267  0.0673
   94SAPC   C34 9171   0.923   5.735   6.374 -0.1158 -0.1985 -0.5398
   94SAPC   H4X 9172   0.860   5.823   6.347  0.6722  0.5369 -0.0278
   94SAPC   H4Y 9173   0.855   5.647   6.376  0.7123 -0.8889 -1.6610
   94SAPC   C35 9174   1.025   5.720   6.262 -0.2598  0.2542  0.6030
   94SAPC   H5X 9175   1.082   5.624   6.269  0.4865  0.3769 -2.4279
   94SAPC   H5Y 9176   1.091   5.809   6.253 -0.5926  0.4240 -0.1999
   94SAPC   C36 9177   0.949   5.699   6.135 -0.2488 -0.0532  0.9598
   94SAPC   H6X 9178   0.883   5.785   6.111 -0.5435 -0.5942 -0.2372
   94SAPC   H6Y 9179   0.873   5.618   6.139  1.2411 -1.5658 -0.1628
   94SAPC   C37 9180   1.044   5.670   6.014 -0.2066 -0.2211  0.5743
   94SAPC   H7X 9181   1.114   5.584   6.024 -0.5781 -0.6069 -0.0587
   94SAPC   H7Y 9182   1.112   5.756   5.999  0.3501  0.1472  4.2064
   94SAPC   C38 9183   0.959   5.664   5.882  0.0308  0.0589 -0.2760
   94SAPC   H8X 9184   0.895   5.754   5.874  1.0394  0.8610  0.3164
   94SAPC   H8Y 9185   0.893   5.575   5.881 -0.2024  0.2316 -0.3524
   94SAPC   C39 9186   1.039   5.627   5.751  0.1965  0.3414 -0.2622
   94SAPC   H9X 9187   1.092   5.532   5.772 -1.4448 -0.2797  1.3536
   94SAPC   H9Y 9188   1.118   5.693   5.708 -0.0209  0.3782 -0.6118
   94SAPC  C310 9189   0.942   5.606   5.634 -0.0406 -0.6507 -0.3721
   94SAPC  H10X 9190   0.895   5.703   5.609  0.8696 -0.4903 -1.5675
   94SAPC  H10Y 9191   0.863   5.535   5.666 -1.7469  1.1469 -0.4020
   94SAPC  C311 9192   1.017   5.564   5.512 -0.0464  0.5044 -0.8868
   94SAPC  H11X 9193   1.062   5.466   5.538  1.4331  1.8227  1.8457
   94SAPC  H11Y 9194   1.104   5.630   5.494 -1.1721  2.3278  0.0795
   94SAPC  C312 9195   0.924   5.549   5.389 -0.0214  0.2818 -0.0328
   94SAPC  H12X 9196   0.869   5.644   5.372 -2.7781 -1.0985  0.4307
   94SAPC  H12Y 9197   0.838   5.482   5.413 -0.1700  0.8363  1.0670
   94SAPC  C313 9198   0.998   5.512   5.259  0.9166 -0.1692 -0.8174
   94SAPC  H13X 9199   1.042   5.410   5.256 -0.2965 -0.7548  0.1762
   94SAPC  H13Y 9200   1.086   5.580   5.255  1.6989 -0.9855  1.0928
   94SAPC  C314 9201   0.924   5.535   5.125  0.3772 -0.2584 -0.0617
   94SAPC  H14X 9202   0.873   5.633   5.136 -0.7893 -1.0079  1.7785
   94SAPC  H14Y 9203   0.846   5.457   5.110  0.1942 -0.5514  2.1126
   94SAPC  C315 9204   1.017   5.547   4.997  0.1164  0.1533  0.4191
   94SAPC  H15X 9205   1.065   5.447   4.988  1.3209  0.9064 -2.6269
   94SAPC  H15Y 9206   1.105   5.610   5.019  1.5316 -0.8317 -2.0627
   94SAPC  C316 9207   0.951   5.604   4.868  0.5105 -0.1570 -0.0399
   94SAPC  H16X 9208   0.907   5.701   4.899  0.1222 -0.1741 -0.5242
   94SAPC  H16Y 9209   0.862   5.539   4.852  1.3407 -1.5617  0.8634
   94SAPC  C317 9210   1.037   5.613   4.739 -0.6027  0.3682 -0.5469
   94SAPC  H17X 9211   1.073   5.508   4.732 -2.8659 -0.4655 -0.5576
   94SAPC  H17Y 9212   1.128   5.672   4.762  0.7766 -1.2602 -1.6675
   94SAPC  C318 9213   0.972   5.639   4.611 -0.1835 -0.7654 -0.4918
   94SAPC  H18X 9214   1.046   5.626   4.528 -0.3891  0.0858 -0.8174
   94SAPC  H18Y 9215   0.935   5.743   4.606  1.5509 -0.0320  0.6500
   94SAPC  H18Z 9216   0.883   5.578   4.585 -0.1104 -1.0710 -0.0263
   95SAPC     N 9217   5.853   0.075   2.328 -0.4907  0.3352  0.2805
   95SAPC   C12 9218   5.811   0.053   2.479 -0.2834  0.4786  0.3606
   95SAPC  H12A 9219   5.743   0.132   2.505 -0.9594 -0.0983  0.3591
   95SAPC  H12B 9220   5.891   0.065   2.551 -0.9235 -0.2909  1.2215
   95SAPC   C13 9221   5.733   0.094   2.241 -0.2906  0.2071 -0.1699
   95SAPC  H13A 9222   5.759   0.082   2.137 -1.0474  0.0173 -0.3410
   95SAPC  H13B 9223   5.650   0.029   2.262 -1.6675  1.4256 -1.6043
   95SAPC  H13C 9224   5.713   0.200   2.245  2.4166  0.8280 -0.8024
   95SAPC   C14 9225   5.941   0.194   2.313 -0.5294  0.0372 -0.1613
   95SAPC  H14A 9226   5.896   0.288   2.342  0.0427 -0.2672  1.8168
   95SAPC  H14B 9227   6.023   0.187   2.382 -2.2800  1.2084  2.1969
   95SAPC  H14C 9228   5.978   0.199   2.211 -0.8733  0.9415 -0.2519
   95SAPC   C15 9229   5.938  -0.044   2.278  0.0257 -0.2682 -0.2455
   95SAPC  H15A 9230   5.961  -0.016   2.177 -0.3985 -0.6501 -0.4514
   95SAPC  H15B 9231   6.024  -0.071   2.338 -0.7167  0.3748  1.1662
   95SAPC  H15C 9232   5.872  -0.130   2.277  0.2779 -0.4769  0.4197
   95SAPC   C11 9233   5.728  -0.069   2.523  0.4220 -0.5779 -0.3831
   95SAPC  H11A 9234   5.725  -0.078   2.633  0.5557 -1.3974 -0.4391
   95SAPC  H11B 9235   5.777  -0.159   2.481  0.6375 -0.6615  0.0468
   95SAPC     P 9236   5.495   0.027   2.557 -0.0119 -0.3754 -0.2819
   95SAPC   O13 9237   5.561   0.161   2.586  0.0582  0.4539  0.3736
   95SAPC   O14 9238   5.359   0.039   2.495  0.5777  0.3858  0.2637
   95SAPC   O12 9239   5.591  -0.061   2.475 -0.0127 -0.1773 -0.3274
   95SAPC   O11 9240   5.493  -0.050   2.693  0.0668  0.3010  0.0063
   95SAPC    C1 9241   5.376  -0.125   2.726  0.7582  0.2111 -0.0741
   95SAPC    HA 9242   5.295  -0.055   2.755 -0.5745 -1.7116  1.1453
   95SAPC    HB 9243   5.338  -0.190   2.644  2.3830 -0.0521 -0.6572
   95SAPC    C2 9244   5.417  -0.231   2.838  0.5409  0.8715  0.1782
   95SAPC    HS 9245   5.327  -0.295   2.851  0.2682  1.2225  0.0421
   95SAPC   O21 9246   5.453  -0.190   2.972 -0.3849 -0.2021  0.3803
   95SAPC   C21 9247   5.362  -0.149   3.046  0.2878  0.2003  0.4778
   95SAPC   O22 9248   5.246  -0.139   3.008  0.2297 -0.0197 -0.3583
   95SAPC   C22 9249   5.418  -0.099   3.178 -0.0098 -0.0779  0.2064
   95SAPC   H2R 9250   5.454  -0.182   3.242  1.6813  1.0233  0.7475
   95SAPC   H2S 9251   5.512  -0.049   3.146  0.2916 -0.5561  0.3348
   95SAPC    C3 9252   5.519  -0.328   2.777  0.2500  0.4089 -0.8383
   95SAPC    HX 9253   5.606  -0.265   2.749  0.1561  0.5007 -0.9190
   95SAPC    HY 9254   5.483  -0.372   2.682 -0.0104 -1.4549  0.0822
   95SAPC   O31 9255   5.557  -0.433   2.872  0.9627 -0.1683 -0.0903
   95SAPC   C31 9256   5.678  -0.456   2.893  0.0082 -0.3586  0.3451
   95SAPC   O32 9257   5.770  -0.405   2.833  0.2451 -0.2650  0.5630
   95SAPC   C32 9258   5.681  -0.561   3.007 -0.3024  0.2219 -0.2797
   95SAPC   H2X 9259   5.782  -0.606   2.999 -1.0470 -1.4798 -0.5421
   95SAPC   H2Y 9260   5.600  -0.637   3.003  0.3579 -0.8194  2.9069
   95SAPC   C23 9261   5.338   0.003   3.250 -0.1079 -0.2590 -0.2977
   95SAPC   H3R 9262   5.239  -0.047   3.260 -0.2776  0.1538  0.0960
   95SAPC   H3S 9263   5.315   0.090   3.185 -0.7971 -0.3577 -0.2021
   95SAPC   C24 9264   5.402   0.039   3.386 -1.0040 -0.1442 -0.0323
   95SAPC   H4R 9265   5.500   0.084   3.359 -0.9794 -0.8511 -1.2131
   95SAPC   H4S 9266   5.425  -0.049   3.450  1.6493  0.3391 -0.2067
   95SAPC   C25 9267   5.321   0.141   3.463  0.3657  0.2492 -0.1644
   95SAPC   H5R 9268   5.327   0.246   3.431  0.0070  0.2212 -0.3363
   95SAPC   C26 9269   5.259   0.120   3.580  0.2621 -0.7391 -0.6360
   95SAPC   H6R 9270   5.214   0.209   3.627  0.7430  0.8537 -2.9820
   95SAPC   C27 9271   5.230  -0.017   3.642 -0.2461  0.5670 -0.2203
   95SAPC   H7R 9272   5.228  -0.098   3.567  0.6722  0.6807 -0.3716
   95SAPC   H7S 9273   5.121  -0.026   3.664 -0.2742 -2.3899 -1.1939
   95SAPC   C28 9274   5.320  -0.062   3.749 -0.1743  0.0699  0.3889
   95SAPC   H8R 9275   5.422  -0.093   3.724  0.0252 -0.5006  1.8004
   95SAPC   C29 9276   5.288  -0.058   3.879 -0.0774  0.3833 -0.1005
   95SAPC   H9R 9277   5.364  -0.081   3.954 -0.3048 -0.3460 -0.0821
   95SAPC  C210 9278   5.157  -0.007   3.935 -0.5487 -0.1831 -0.2942
   95SAPC  H10R 9279   5.088   0.043   3.864  1.4035  1.0239 -1.3914
   95SAPC  H10S 9280   5.171   0.076   4.007 -1.0678 -1.2545  1.1059
   95SAPC  C211 9281   5.075  -0.108   4.009  0.2957  0.5218  0.0588
   95SAPC  H11R 9282   5.008  -0.179   3.958 -0.7763  0.0007  2.0610
   95SAPC  C212 9283   5.080  -0.121   4.143 -0.1326  0.1006 -0.5270
   95SAPC  H12R 9284   5.017  -0.203   4.179  1.4812 -1.6203 -1.4222
   95SAPC  C213 9285   5.171  -0.050   4.240 -0.0664 -0.5621 -0.0245
   95SAPC  H13R 9286   5.265  -0.013   4.194 -0.4881  1.7874  0.8794
   95SAPC  H13S 9287   5.194  -0.122   4.322  1.3602  1.8474  1.8528
   95SAPC  C214 9288   5.099   0.079   4.286 -0.5283 -0.1296 -0.1770
   95SAPC  H14R 9289   5.132   0.172   4.238  0.5337  0.9363  2.4847
   95SAPC  C215 9290   5.024   0.089   4.394  0.0533 -0.4751 -0.0710
   95SAPC  H15R 9291   4.983   0.188   4.417  2.7953  0.1197  2.9368
   95SAPC  C216 9292   4.990  -0.023   4.489  0.4157  0.3158  0.5807
   95SAPC  H16R 9293   5.009  -0.119   4.437  0.8729  0.4150  0.5599
   95SAPC  H16S 9294   4.881  -0.013   4.505 -0.3839 -0.6810 -3.2069
   95SAPC  C217 9295   5.046  -0.039   4.629 -0.2698 -0.3569  0.2410
   95SAPC  H17R 9296   5.024  -0.144   4.658 -0.2615 -0.5021 -0.2747
   95SAPC  H17S 9297   4.982   0.031   4.688 -0.6542  0.7538 -1.4363
   95SAPC  C218 9298   5.194  -0.008   4.629  0.2196  0.0249 -0.0401
   95SAPC  H18R 9299   5.226   0.088   4.583 -0.1276  0.8353  1.3310
   95SAPC  H18S 9300   5.256  -0.083   4.576  0.1380 -1.7487  2.2015
   95SAPC  C219 9301   5.249  -0.007   4.770  0.2195 -0.2656  1.0878
   95SAPC  H19R 9302   5.246  -0.108   4.815 -1.3853 -1.3685 -1.2888
   95SAPC  H19S 9303   5.198   0.059   4.844  0.3059 -0.5844  1.4348
   95SAPC  C220 9304   5.391   0.036   4.766 -0.2559  0.0649 -0.1594
   95SAPC  H20R 9305   5.392   0.145   4.742  0.2781 -0.1075 -0.9486
   95SAPC  H20S 9306   5.457  -0.001   4.684 -0.5022  1.0064 -0.8028
   95SAPC  H20T 9307   5.430   0.011   4.867 -0.9714 -3.7164 -0.6610
   95SAPC   C33 9308   5.661  -0.498   3.146 -0.3127 -0.2447 -0.3064
   95SAPC   H3X 9309   5.637  -0.575   3.223 -0.7820  1.1708  0.9964
   95SAPC   H3Y 9310   5.574  -0.429   3.143 -0.0499  0.0837 -0.2670
   95SAPC   C34 9311   5.781  -0.421   3.188  0.2123  0.4115  0.0823
   95SAPC   H4X 9312   5.795  -0.343   3.110  0.4225  0.2177 -0.0746
   95SAPC   H4Y 9313   5.872  -0.484   3.199  0.8454  1.4604  1.1264
   95SAPC   C35 9314   5.758  -0.338   3.316  0.4247 -0.2589 -0.2113
   95SAPC   H5X 9315   5.666  -0.277   3.306  1.7848  1.5911 -2.1221
   95SAPC   H5Y 9316   5.840  -0.263   3.317  1.7569 -1.6149 -1.8290
   95SAPC   C36 9317   5.745  -0.417   3.452 -0.0421 -0.3616 -0.0407
   95SAPC   H6X 9318   5.831  -0.487   3.466 -0.1815 -0.1386  2.3716
   95SAPC   H6Y 9319   5.644  -0.461   3.458  0.4271 -1.3045  1.5253
   95SAPC   C37 9320   5.761  -0.315   3.563 -0.3426  0.2884 -0.2698
   95SAPC   H7X 9321   5.672  -0.248   3.559  0.0118  0.7262 -1.6229
   95SAPC   H7Y 9322   5.843  -0.247   3.531  0.3130 -0.3385  0.0680
   95SAPC   C38 9323   5.764  -0.387   3.696 -0.3875  0.1559  0.1794
   95SAPC   H8X 9324   5.846  -0.459   3.713  0.4109  1.4118  2.0263
   95SAPC   H8Y 9325   5.676  -0.447   3.728  0.7164 -0.4989  2.0621
   95SAPC   C39 9326   5.777  -0.281   3.809  0.1356 -1.1015 -1.3599
   95SAPC   H9X 9327   5.688  -0.216   3.803  1.2668  0.5538 -0.9900
   95SAPC   H9Y 9328   5.863  -0.211   3.795 -2.7567  2.8403 -1.0301
   95SAPC  C310 9329   5.802  -0.333   3.955  0.4136  0.2697 -0.0126
   95SAPC  H10X 9330   5.892  -0.398   3.965  0.1126 -0.0518  0.6486
   95SAPC  H10Y 9331   5.712  -0.383   3.997  0.9905 -0.0491  0.8868
   95SAPC  C311 9332   5.823  -0.213   4.047 -0.3942  0.4893 -0.3501
   95SAPC  H11X 9333   5.728  -0.156   4.040 -2.2747 -2.0730  2.1882
   95SAPC  H11Y 9334   5.904  -0.141   4.022  1.2145 -1.4304 -0.8982
   95SAPC  C312 9335   5.838  -0.247   4.198  0.0498 -0.2496  0.5706
   95SAPC  H12X 9336   5.943  -0.278   4.215  0.1046 -2.6119 -3.0170
   95SAPC  H12Y 9337   5.777  -0.337   4.220 -2.1403  1.5473  2.5063
   95SAPC  C313 9338   5.787  -0.146   4.299 -0.5769 -0.0388  0.0076
   95SAPC  H13X 9339   5.686  -0.119   4.262 -0.4313 -1.6492 -1.7322
   95SAPC  H13Y 9340   5.848  -0.053   4.300 -1.1967  0.4146 -1.5596
   95SAPC  C314 9341   5.776  -0.203   4.446 -0.2269  0.4141  0.0996
   95SAPC  H14X 9342   5.875  -0.246   4.473 -0.3661  1.4190  2.4370
   95SAPC  H14Y 9343   5.692  -0.276   4.447 -1.7653  2.1391  0.3547
   95SAPC  C315 9344   5.757  -0.101   4.557  0.4745  0.1333 -0.7330
   95SAPC  H15X 9345   5.731  -0.146   4.655  1.1654  1.0827 -0.0863
   95SAPC  H15Y 9346   5.669  -0.045   4.521  0.6490  2.5374  2.1329
   95SAPC  C316 9347   5.870   0.002   4.582 -0.0075 -0.3228  0.0479
   95SAPC  H16X 9348   5.888   0.035   4.478  0.3881  0.6864  0.4250
   95SAPC  H16Y 9349   5.959  -0.054   4.619  0.4408 -0.5877 -1.4015
   95SAPC  C317 9350   5.843   0.107   4.698  0.4130 -0.0391  0.6249
   95SAPC  H17X 9351   5.741   0.147   4.680  0.8860  0.5868 -0.8156
   95SAPC  H17Y 9352   5.920   0.186   4.684  0.5623 -0.2567  0.1803
   95SAPC  C318 9353   5.854   0.036   4.832 -0.4083 -0.0304  0.1851
   95SAPC  H18X 9354   5.831   0.107   4.915  0.3299 -0.4996  0.8032
   95SAPC  H18Y 9355   5.961   0.010   4.845  0.3512  1.6602 -2.1054
   95SAPC  H18Z 9356   5.774  -0.042   4.834  1.0413 -1.6106 -0.9061
   96SAPC     N 9357   4.819   3.462   2.556  0.4255  0.4312 -0.2990
   96SAPC   C12 9358   4.874   3.343   2.633  0.2944 -0.2324  0.7163
   96SAPC  H12A 9359   4.867   3.255   2.570 -1.1477 -0.5336  1.2396
   96SAPC  H12B 9360   4.802   3.329   2.713 -1.7020 -1.4276 -1.1557
   96SAPC   C13 9361   4.882   3.476   2.421 -0.0544  0.0659 -0.5604
   96SAPC  H13A 9362   4.874   3.382   2.370 -0.6124 -0.8606  1.1309
   96SAPC  H13B 9363   4.842   3.565   2.374  0.1883  0.9827  0.8999
   96SAPC  H13C 9364   4.989   3.485   2.430  0.0437  0.2625 -1.7938
   96SAPC   C14 9365   4.678   3.443   2.531  0.7927 -0.7751 -1.0491
   96SAPC  H14A 9366   4.622   3.431   2.623  1.6724 -1.1418 -0.5504
   96SAPC  H14B 9367   4.632   3.520   2.471  0.4931 -0.4568 -0.4175
   96SAPC  H14C 9368   4.662   3.350   2.478 -0.4514 -2.1429  1.5140
   96SAPC   C15 9369   4.842   3.593   2.627  0.5321 -0.1589 -0.8367
   96SAPC  H15A 9370   4.801   3.602   2.726 -0.0655  1.5363 -1.2137
   96SAPC  H15B 9371   4.946   3.623   2.633 -0.0136  1.6286  0.5084
   96SAPC  H15C 9372   4.793   3.677   2.580  0.3247 -0.7410 -1.6944
   96SAPC   C11 9373   5.023   3.346   2.678  0.0031  0.5437  0.3565
   96SAPC  H11A 9374   5.043   3.262   2.748 -0.9412  0.6086  0.7209
   96SAPC  H11B 9375   5.036   3.433   2.745 -0.0279  1.1620 -0.4242
   96SAPC     P 9376   5.152   3.209   2.492  0.2054 -0.4381  0.1029
   96SAPC   O13 9377   5.064   3.104   2.539  0.5882  0.3134 -0.6479
   96SAPC   O14 9378   5.149   3.215   2.342  1.0451 -0.1795 -0.4673
   96SAPC   O12 9379   5.107   3.350   2.558  0.7398 -0.3240  0.0376
   96SAPC   O11 9380   5.298   3.189   2.532 -0.0070 -0.1434 -0.1384
   96SAPC    C1 9381   5.402   3.289   2.524  0.5606 -0.0252  0.6428
   96SAPC    HA 9382   5.472   3.261   2.443 -2.1361 -2.9113 -0.9096
   96SAPC    HB 9383   5.369   3.393   2.503  0.0088 -0.6174 -1.5959
   96SAPC    C2 9384   5.476   3.291   2.662  0.1718  0.0116 -0.4047
   96SAPC    HS 9385   5.555   3.369   2.660 -0.2865  0.5678  1.4073
   96SAPC   O21 9386   5.528   3.156   2.692  0.5771 -0.4848  0.3194
   96SAPC   C21 9387   5.651   3.154   2.718 -0.0946 -0.0576  0.0043
   96SAPC   O22 9388   5.735   3.241   2.705  0.2148  0.1012 -0.3389
   96SAPC   C22 9389   5.700   3.017   2.756  0.6331 -0.4093 -0.0538
   96SAPC   H2R 9390   5.628   2.932   2.749 -1.2204  1.0553  0.6010
   96SAPC   H2S 9391   5.767   2.999   2.669 -2.0570 -2.3356 -1.9087
   96SAPC    C3 9392   5.373   3.324   2.773 -0.2802  0.4117 -0.4869
   96SAPC    HX 9393   5.314   3.230   2.770 -0.6443  0.6422 -2.4352
   96SAPC    HY 9394   5.314   3.415   2.747 -0.5963  1.4389  3.2681
   96SAPC   O31 9395   5.434   3.335   2.899 -0.1204 -0.0434 -0.2351
   96SAPC   C31 9396   5.349   3.330   2.996  0.0243 -0.2928  0.1525
   96SAPC   O32 9397   5.228   3.311   2.991 -0.7659 -0.1123  0.3725
   96SAPC   C32 9398   5.419   3.337   3.132 -0.4118  0.0248  0.4604
   96SAPC   H2X 9399   5.470   3.435   3.143  0.4180 -0.6409  4.2680
   96SAPC   H2Y 9400   5.497   3.258   3.132 -0.9630 -0.5502  1.6412
   96SAPC   C23 9401   5.777   3.019   2.889  0.0451  0.7467 -0.0876
   96SAPC   H3R 9402   5.869   3.081   2.886  1.8288 -1.6811  1.2505
   96SAPC   H3S 9403   5.790   2.912   2.915 -0.2819  0.3798 -1.3468
   96SAPC   C24 9404   5.693   3.085   3.009 -0.3311 -0.0817 -0.3537
   96SAPC   H4R 9405   5.587   3.067   2.981 -0.6389 -0.1353  0.8168
   96SAPC   H4S 9406   5.696   3.194   2.990 -0.9632 -0.1362 -0.8030
   96SAPC   C25 9407   5.721   3.042   3.149 -0.9444 -0.2127  0.0042
   96SAPC   H5R 9408   5.669   2.950   3.180  1.9875 -1.7544  0.7564
   96SAPC   C26 9409   5.810   3.102   3.236  0.6327  1.4191 -0.4726
   96SAPC   H6R 9410   5.825   3.050   3.331  0.2389  1.1120 -0.5746
   96SAPC   C27 9411   5.894   3.219   3.199 -0.0820 -0.0217  0.3648
   96SAPC   H7R 9412   5.842   3.301   3.145  0.4792 -0.5818 -1.0646
   96SAPC   H7S 9413   5.958   3.179   3.118 -1.1172  2.7718 -2.0284
   96SAPC   C28 9414   5.979   3.262   3.311  0.3380  0.2645 -0.2433
   96SAPC   H8R 9415   6.063   3.194   3.326 -1.2337 -1.6825  0.1067
   96SAPC   C29 9416   5.967   3.374   3.381 -0.3917 -0.7741  0.6803
   96SAPC   H9R 9417   6.034   3.388   3.468  0.4834  4.1484 -0.4604
   96SAPC  C210 9418   5.852   3.471   3.384 -0.2400  0.0168  0.3993
   96SAPC  H10R 9419   5.768   3.434   3.320 -1.2898 -0.4810  1.9931
   96SAPC  H10S 9420   5.891   3.565   3.341  1.0719 -0.7163 -0.0457
   96SAPC  C211 9421   5.799   3.501   3.523  0.3526 -0.0357  0.7585
   96SAPC  H11R 9422   5.816   3.605   3.553  0.9129 -0.2176  1.1008
   96SAPC  C212 9423   5.718   3.426   3.596  0.0595  0.7977 -0.3358
   96SAPC  H12R 9424   5.684   3.459   3.696  0.6239 -0.1518  0.1853
   96SAPC  C213 9425   5.683   3.283   3.561  0.3117  0.5708  0.4738
   96SAPC  H13R 9426   5.688   3.262   3.452 -2.1683  0.3420  0.3536
   96SAPC  H13S 9427   5.578   3.252   3.582  0.5895 -1.5310 -0.9783
   96SAPC  C214 9428   5.782   3.206   3.643  1.1030  0.2033  0.0231
   96SAPC  H14R 9429   5.865   3.165   3.583  1.6529 -0.4988  1.2317
   96SAPC  C215 9430   5.773   3.166   3.775  0.2554  0.5892 -0.0593
   96SAPC  H15R 9431   5.844   3.093   3.815  1.6845  0.6087 -2.4201
   96SAPC  C216 9432   5.656   3.183   3.869 -0.2051 -0.3334 -0.3762
   96SAPC  H16R 9433   5.609   3.086   3.895  0.6496 -0.7937 -0.5053
   96SAPC  H16S 9434   5.585   3.249   3.815 -0.4243 -0.7179 -0.5593
   96SAPC  C217 9435   5.705   3.257   3.991 -0.2284  0.5378  0.2315
   96SAPC  H17R 9436   5.775   3.339   3.964 -1.8063  1.7155 -0.4054
   96SAPC  H17S 9437   5.764   3.188   4.056 -3.4714 -1.5366  1.1829
   96SAPC  C218 9438   5.585   3.303   4.074  0.3999  0.0269 -0.7726
   96SAPC  H18R 9439   5.510   3.357   4.013  0.0765  0.7000  0.1916
   96SAPC  H18S 9440   5.633   3.372   4.147  0.3858 -0.8048  0.0401
   96SAPC  C219 9441   5.521   3.185   4.144  0.7180 -0.0427 -0.6515
   96SAPC  H19R 9442   5.589   3.116   4.199 -0.6091  0.6198  1.9513
   96SAPC  H19S 9443   5.482   3.124   4.059 -1.0530 -0.7755  0.6360
   96SAPC  C220 9444   5.402   3.232   4.225  0.3241  0.6560 -0.2019
   96SAPC  H20R 9445   5.325   3.275   4.158  0.0072 -1.1075 -1.0324
   96SAPC  H20S 9446   5.434   3.315   4.292 -1.6597  2.8386 -1.7988
   96SAPC  H20T 9447   5.359   3.152   4.289 -0.2190  0.1219 -1.2146
   96SAPC   C33 9448   5.324   3.327   3.256 -0.7619  0.4342  0.6283
   96SAPC   H3X 9449   5.294   3.220   3.258  2.4385 -0.6247 -0.7857
   96SAPC   H3Y 9450   5.238   3.397   3.251 -0.5909  0.5889 -0.2351
   96SAPC   C34 9451   5.391   3.348   3.391 -0.4346  0.0315  0.3542
   96SAPC   H4X 9452   5.447   3.444   3.397  0.1779 -0.3943  2.6119
   96SAPC   H4Y 9453   5.468   3.267   3.394 -1.4655 -0.9679  0.4784
   96SAPC   C35 9454   5.300   3.314   3.509  0.2947 -0.6876 -0.5870
   96SAPC   H5X 9455   5.351   3.317   3.607 -0.3217 -0.8050 -0.2599
   96SAPC   H5Y 9456   5.262   3.212   3.485 -0.1008 -0.5787 -0.4241
   96SAPC   C36 9457   5.181   3.405   3.513 -0.1587 -0.1041  0.3692
   96SAPC   H6X 9458   5.107   3.382   3.434  0.0903 -2.8901  0.8606
   96SAPC   H6Y 9459   5.228   3.505   3.502 -1.1107  0.3873  0.7297
   96SAPC   C37 9460   5.107   3.392   3.648  0.3597 -0.2079 -0.2784
   96SAPC   H7X 9461   5.111   3.288   3.686  0.0109 -0.4561 -0.9052
   96SAPC   H7Y 9462   4.998   3.406   3.631  0.0550 -1.8025  0.1814
   96SAPC   C38 9463   5.174   3.481   3.758 -0.0215 -0.3608 -0.0030
   96SAPC   H8X 9464   5.148   3.589   3.748 -1.3777 -0.8071 -1.9049
   96SAPC   H8Y 9465   5.284   3.466   3.752 -0.2554 -2.3395  0.0333
   96SAPC   C39 9466   5.133   3.439   3.892 -0.6127  0.4934 -0.0985
   96SAPC   H9X 9467   5.199   3.492   3.964 -0.8483 -0.8073  1.1408
   96SAPC   H9Y 9468   5.146   3.330   3.912  1.1180  0.5695 -0.6943
   96SAPC  C310 9469   4.981   3.468   3.918 -0.0889 -0.0409  0.1807
   96SAPC  H10X 9470   4.931   3.398   3.848 -0.0875 -0.5591  0.6923
   96SAPC  H10Y 9471   4.966   3.573   3.885 -0.6214 -0.7208 -1.9356
   96SAPC  C311 9472   4.931   3.447   4.061 -0.3194  0.8612  0.2350
   96SAPC  H11X 9473   4.822   3.464   4.075 -0.7775  0.2947 -2.0868
   96SAPC  H11Y 9474   4.987   3.512   4.132  1.8415 -1.4009  0.7349
   96SAPC  C312 9475   4.965   3.312   4.111  0.0506  0.7732  0.1777
   96SAPC  H12X 9476   5.076   3.304   4.116  0.1015  0.6777 -0.9210
   96SAPC  H12Y 9477   4.915   3.238   4.045  2.2884 -0.2364 -0.4951
   96SAPC  C313 9478   4.915   3.278   4.260 -0.5291 -0.4124  0.0127
   96SAPC  H13X 9479   4.961   3.186   4.302  1.9180  0.1644 -1.1934
   96SAPC  H13Y 9480   4.804   3.266   4.258 -0.7147  1.0083  0.6433
   96SAPC  C314 9481   4.955   3.382   4.367  0.3268 -0.1899 -1.0176
   96SAPC  H14X 9482   4.886   3.468   4.350  0.7662 -0.0855 -2.3587
   96SAPC  H14Y 9483   5.065   3.397   4.362  0.3853 -0.9799 -2.8718
   96SAPC  C315 9484   4.916   3.325   4.503  0.1468 -0.0479  0.0622
   96SAPC  H15X 9485   4.996   3.266   4.552 -0.3313 -0.6274  0.1704
   96SAPC  H15Y 9486   4.828   3.257   4.494 -0.8831  0.8097  2.7695
   96SAPC  C316 9487   4.882   3.434   4.605  0.4780 -0.4168 -0.4835
   96SAPC  H16X 9488   4.965   3.508   4.603  0.9623 -0.9825 -2.0492
   96SAPC  H16Y 9489   4.883   3.380   4.703  3.2708 -1.1321 -0.8357
   96SAPC  C317 9490   4.749   3.510   4.597 -0.3242 -0.2362  0.1959
   96SAPC  H17X 9491   4.674   3.437   4.559  1.1970 -0.1194 -3.3864
   96SAPC  H17Y 9492   4.751   3.585   4.515 -0.1212 -0.5842 -0.1198
   96SAPC  C318 9493   4.714   3.570   4.734  0.2075  0.4619  0.3978
   96SAPC  H18X 9494   4.778   3.658   4.757  0.1535  0.8047 -0.6934
   96SAPC  H18Y 9495   4.718   3.490   4.812 -2.6581  0.3642  0.5598
   96SAPC  H18Z 9496   4.608   3.605   4.726 -0.9088 -1.8984  2.8973
   97SAPC     N 9497   5.002   1.303   2.283  0.5756 -0.1784  0.4210
   97SAPC   C12 9498   4.899   1.243   2.383 -0.1550 -0.0635  0.1046
   97SAPC  H12A 9499   4.951   1.185   2.458 -0.4304 -0.8945 -0.3439
   97SAPC  H12B 9500   4.847   1.167   2.327 -1.4345  1.4152 -0.8006
   97SAPC   C13 9501   5.076   1.416   2.339 -0.6624  0.2327  0.1938
   97SAPC  H13A 9502   5.150   1.460   2.274 -0.4331 -0.9706 -0.3822
   97SAPC  H13B 9503   5.006   1.490   2.375 -0.5035  0.3263  0.3141
   97SAPC  H13C 9504   5.143   1.389   2.419  1.0309 -0.5924 -1.4253
   97SAPC   C14 9505   5.106   1.200   2.248  0.7649  0.2975  0.6739
   97SAPC  H14A 9506   5.055   1.108   2.222  2.4556 -0.7649  0.9997
   97SAPC  H14B 9507   5.174   1.227   2.169  1.2136 -2.4008  0.0439
   97SAPC  H14C 9508   5.170   1.174   2.330 -0.7750 -1.1379  1.4841
   97SAPC   C15 9509   4.924   1.341   2.158 -0.2328 -0.2980  0.5406
   97SAPC  H15A 9510   4.872   1.256   2.116  2.2344 -0.6843 -2.0202
   97SAPC  H15B 9511   4.864   1.429   2.178 -0.3774 -0.2919  0.0930
   97SAPC  H15C 9512   4.999   1.364   2.084 -0.4916 -2.5486 -0.4938
   97SAPC   C11 9513   4.788   1.337   2.433 -0.3640 -0.4471  0.6324
   97SAPC  H11A 9514   4.742   1.384   2.344  2.1182 -0.7568 -0.9013
   97SAPC  H11B 9515   4.827   1.422   2.494 -2.1271 -0.2067  1.4961
   97SAPC     P 9516   4.564   1.199   2.475  0.2460  0.1675  0.2596
   97SAPC   O13 9517   4.452   1.297   2.466 -0.2998 -0.5970 -0.0657
   97SAPC   O14 9518   4.590   1.111   2.360  0.1355  0.1065  0.2208
   97SAPC   O12 9519   4.695   1.266   2.521  0.2598 -0.0153  0.6895
   97SAPC   O11 9520   4.530   1.102   2.593 -0.3180  0.3936  0.1858
   97SAPC    C1 9521   4.509   1.168   2.721 -0.1946  1.0234  0.4017
   97SAPC    HA 9522   4.584   1.250   2.735 -1.0170  2.0498 -0.9405
   97SAPC    HB 9523   4.402   1.195   2.715 -0.5618 -0.6198 -1.2404
   97SAPC    C2 9524   4.525   1.072   2.840  0.1798  0.2911  0.8085
   97SAPC    HS 9525   4.474   1.122   2.925 -0.4081 -0.9945  1.2452
   97SAPC   O21 9526   4.666   1.064   2.879  0.3533 -0.1250  0.4523
   97SAPC   C21 9527   4.692   1.042   3.005 -0.4914  0.0960 -1.0100
   97SAPC   O22 9528   4.609   1.025   3.085  0.3798  0.3629 -0.6428
   97SAPC   C22 9529   4.845   1.025   3.022 -0.1723 -0.8328 -0.3379
   97SAPC   H2R 9530   4.873   0.926   2.980 -0.5378 -0.1855 -2.1972
   97SAPC   H2S 9531   4.881   1.110   2.959 -1.8847 -0.5952 -1.0447
   97SAPC    C3 9532   4.469   0.929   2.805  0.4628 -0.3800 -0.4316
   97SAPC    HX 9533   4.520   0.891   2.714 -0.3939  0.1800 -1.1620
   97SAPC    HY 9534   4.365   0.948   2.772  0.7111 -2.0996 -2.4312
   97SAPC   O31 9535   4.469   0.844   2.921  0.6551  0.5938 -0.2808
   97SAPC   C31 9536   4.558   0.744   2.923  1.2314  0.1852  0.2313
   97SAPC   O32 9537   4.649   0.732   2.842  0.5309 -0.3866 -0.1195
   97SAPC   C32 9538   4.528   0.678   3.058  0.1505  0.5612 -0.1239
   97SAPC   H2X 9539   4.439   0.615   3.034  0.4988  0.7635 -2.1528
   97SAPC   H2Y 9540   4.505   0.758   3.131 -0.7418 -0.2849  0.5431
   97SAPC   C23 9541   4.896   1.024   3.165  0.1025 -0.1232  0.6999
   97SAPC   H3R 9542   4.837   0.951   3.225 -0.6332 -0.2878 -0.1977
   97SAPC   H3S 9543   4.893   1.125   3.209 -0.3588 -0.6219  1.8646
   97SAPC   C24 9544   5.040   0.961   3.172  0.3850 -0.0558 -0.4894
   97SAPC   H4R 9545   5.041   0.858   3.131  0.0650  0.3539 -1.5521
   97SAPC   H4S 9546   5.066   0.931   3.276 -1.3226  1.3822  0.4051
   97SAPC   C25 9547   5.144   1.050   3.106 -0.6114 -0.1797  0.6174
   97SAPC   H5R 9548   5.144   1.041   2.997 -0.3164 -1.7898  0.7270
   97SAPC   C26 9549   5.231   1.137   3.167  0.1302  0.5449 -0.0978
   97SAPC   H6R 9550   5.288   1.204   3.101  1.9627 -0.4205  0.4493
   97SAPC   C27 9551   5.242   1.160   3.315  0.1380 -0.0437 -0.1812
   97SAPC   H7R 9552   5.139   1.160   3.357 -0.0328  3.9498 -0.2008
   97SAPC   H7S 9553   5.273   1.263   3.346  1.5291 -1.0074  1.8900
   97SAPC   C28 9554   5.323   1.056   3.391  0.4655  0.1831  1.1581
   97SAPC   H8R 9555   5.349   0.970   3.327  1.9652  0.2135  1.6904
   97SAPC   C29 9556   5.390   1.067   3.503  0.2893 -0.3067  0.4342
   97SAPC   H9R 9557   5.443   0.975   3.531 -0.4586 -1.6514 -2.2081
   97SAPC  C210 9558   5.367   1.189   3.594 -0.2159 -0.1862 -0.0788
   97SAPC  H10R 9559   5.259   1.209   3.608 -0.2863 -0.8781  0.4316
   97SAPC  H10S 9560   5.413   1.276   3.542 -1.8668 -0.2146 -1.6546
   97SAPC  C211 9561   5.428   1.187   3.734 -0.9217  0.8695  0.6685
   97SAPC  H11R 9562   5.508   1.260   3.755  0.6167 -1.3553  3.2813
   97SAPC  C212 9563   5.412   1.098   3.833  0.4176 -0.3205 -0.1175
   97SAPC  H12R 9564   5.457   1.116   3.932  0.4261 -0.1733 -0.1479
   97SAPC  C213 9565   5.317   0.979   3.841 -0.2739  0.0020 -0.9438
   97SAPC  H13R 9566   5.255   0.967   3.749  0.3558  0.4051 -1.4323
   97SAPC  H13S 9567   5.246   0.987   3.926  0.9964  0.2883  0.1227
   97SAPC  C214 9568   5.393   0.846   3.853  0.5794  0.2506 -0.1288
   97SAPC  H14R 9569   5.392   0.790   3.759 -1.0679 -0.7300  0.4324
   97SAPC  C215 9570   5.435   0.785   3.969 -0.2175  0.1923  0.0686
   97SAPC  H15R 9571   5.495   0.693   3.958  0.1547  0.0690  2.5113
   97SAPC  C216 9572   5.426   0.848   4.105  0.2335  0.3769  0.0954
   97SAPC  H16R 9573   5.326   0.895   4.117  1.0381  1.8085  1.5752
   97SAPC  H16S 9574   5.508   0.923   4.116 -0.4364  1.1351 -0.0044
   97SAPC  C217 9575   5.466   0.742   4.214  0.5889 -0.1179  0.4283
   97SAPC  H17R 9576   5.561   0.701   4.174 -0.8483 -0.9810 -2.3675
   97SAPC  H17S 9577   5.392   0.662   4.233  1.4270 -0.9444  0.2960
   97SAPC  C218 9578   5.496   0.818   4.350  0.5155 -0.6611 -0.1652
   97SAPC  H18R 9579   5.578   0.890   4.328  0.3421 -0.7029 -0.9959
   97SAPC  H18S 9580   5.537   0.758   4.434  1.4801  0.3144  0.0810
   97SAPC  C219 9581   5.374   0.890   4.413 -0.7620 -0.0205 -0.6406
   97SAPC  H19R 9582   5.279   0.832   4.414 -1.4255  0.9375  2.4526
   97SAPC  H19S 9583   5.360   0.972   4.340  0.4338 -4.1352 -6.2287
   97SAPC  C220 9584   5.408   0.932   4.559 -0.2511 -0.0239  0.3564
   97SAPC  H20R 9585   5.484   1.013   4.553 -1.4250  1.0348 -1.1451
   97SAPC  H20S 9586   5.445   0.842   4.611 -0.0663 -1.1266 -1.5921
   97SAPC  H20T 9587   5.330   0.981   4.621  2.3131  2.3912  1.8936
   97SAPC   C33 9588   4.641   0.575   3.100  0.4361 -1.0691 -0.2489
   97SAPC   H3X 9589   4.661   0.509   3.012  0.1387 -1.1592 -0.2514
   97SAPC   H3Y 9590   4.607   0.509   3.183  0.5047  1.5761  2.0130
   97SAPC   C34 9591   4.777   0.635   3.138 -0.1071 -0.0251  0.0546
   97SAPC   H4X 9592   4.769   0.670   3.243 -0.9626 -0.4553  0.1401
   97SAPC   H4Y 9593   4.793   0.730   3.082 -0.3498  0.1611  0.2939
   97SAPC   C35 9594   4.888   0.539   3.125 -0.1277 -0.1820  0.3068
   97SAPC   H5X 9595   4.965   0.593   3.185 -1.8400 -0.0456  2.5059
   97SAPC   H5Y 9596   4.913   0.536   3.017 -0.4341  1.4173  0.1653
   97SAPC   C36 9597   4.871   0.400   3.195 -0.7561  0.3755 -0.3913
   97SAPC   H6X 9598   4.966   0.344   3.181  0.2706  2.3200 -1.5848
   97SAPC   H6Y 9599   4.803   0.337   3.134  0.1293  1.3322 -2.4666
   97SAPC   C37 9600   4.822   0.422   3.336 -0.1634 -0.0890  0.0311
   97SAPC   H7X 9601   4.718   0.459   3.341 -0.9553 -2.3207  1.4100
   97SAPC   H7Y 9602   4.889   0.505   3.368  1.9525 -1.9349  0.6944
   97SAPC   C38 9603   4.830   0.295   3.425 -0.3014  0.0453 -0.0540
   97SAPC   H8X 9604   4.927   0.242   3.423 -0.7545 -1.0193  2.4293
   97SAPC   H8Y 9605   4.754   0.219   3.398 -0.5188 -0.3117  1.4826
   97SAPC   C39 9606   4.809   0.334   3.574  0.3362  0.3898 -0.1105
   97SAPC   H9X 9607   4.712   0.384   3.594  1.1095  1.5995  0.7503
   97SAPC   H9Y 9608   4.892   0.404   3.595  0.6575 -0.4352  1.5309
   97SAPC  C310 9609   4.826   0.206   3.660 -0.3986  0.9529 -0.5764
   97SAPC  H10X 9610   4.929   0.168   3.675 -0.7843  0.3600  0.6864
   97SAPC  H10Y 9611   4.760   0.120   3.637  2.3128 -1.8469  1.2981
   97SAPC  C311 9612   4.777   0.251   3.803 -0.6300  0.8815 -0.2236
   97SAPC  H11X 9613   4.674   0.294   3.798 -1.3872 -0.7105  0.9716
   97SAPC  H11Y 9614   4.857   0.319   3.840 -0.9783  1.4707 -0.5303
   97SAPC  C312 9615   4.765   0.136   3.898 -0.4206 -0.5848  0.0898
   97SAPC  H12X 9616   4.863   0.084   3.901  0.5264  1.1314  0.7115
   97SAPC  H12Y 9617   4.712   0.052   3.849  2.4259 -0.9189 -2.7693
   97SAPC  C313 9618   4.703   0.166   4.036 -0.1639 -0.1308  0.7560
   97SAPC  H13X 9619   4.594   0.185   4.026  0.2814  1.8128 -1.0827
   97SAPC  H13Y 9620   4.748   0.265   4.060 -0.1770  0.2663 -0.7849
   97SAPC  C314 9621   4.733   0.065   4.142  0.4594 -0.1049  0.5856
   97SAPC  H14X 9622   4.843   0.054   4.156  0.9412  2.1905 -0.7641
   97SAPC  H14Y 9623   4.698  -0.031   4.099 -0.9755  1.3834 -1.7904
   97SAPC  C315 9624   4.661   0.086   4.276  0.2205  0.2324  0.4103
   97SAPC  H15X 9625   4.667   0.187   4.321  1.1953 -0.2351  1.3717
   97SAPC  H15Y 9626   4.712   0.018   4.347 -0.8179 -1.4548 -0.3733
   97SAPC  C316 9627   4.515   0.044   4.260  0.7141 -0.4544  0.4224
   97SAPC  H16X 9628   4.503  -0.062   4.227 -1.1719 -0.4094  0.8502
   97SAPC  H16Y 9629   4.461   0.109   4.188  0.1136  0.0211  1.2811
   97SAPC  C317 9630   4.446   0.051   4.394  0.5332  0.2860 -0.0634
   97SAPC  H17X 9631   4.336   0.037   4.388  0.6648 -2.1734  1.5784
   97SAPC  H17Y 9632   4.460   0.155   4.431  0.1257  0.5090 -0.5264
   97SAPC  C318 9633   4.492  -0.055   4.489 -0.0404 -0.2865  0.2660
   97SAPC  H18X 9634   4.437  -0.045   4.585 -0.8419 -2.3831  0.0759
   97SAPC  H18Y 9635   4.600  -0.046   4.516 -0.4591 -0.5872  2.2342
   97SAPC  H18Z 9636   4.476  -0.163   4.470  2.1405 -0.3549 -1.5404
   98SAPC     N 9637   1.613   1.953   2.903  0.5764 -0.6486  0.5434
   98SAPC   C12 9638   1.567   1.856   3.008  0.3022 -0.1649  0.7461
   98SAPC  H12A 9639   1.649   1.804   3.055 -0.9392 -2.0653  0.9498
   98SAPC  H12B 9640   1.502   1.784   2.961 -0.4127 -1.7543  3.8649
   98SAPC   C13 9641   1.680   1.886   2.793 -1.0839 -0.2649 -0.0368
   98SAPC  H13A 9642   1.614   1.806   2.763 -2.5019  1.2346 -1.1270
   98SAPC  H13B 9643   1.691   1.950   2.707 -0.7513 -0.2826 -0.0077
   98SAPC  H13C 9644   1.772   1.842   2.827 -1.8403  0.7054  3.7009
   98SAPC   C14 9645   1.495   2.019   2.846  0.9377 -0.0220 -0.1674
   98SAPC  H14A 9646   1.521   2.087   2.767  1.3694 -1.0627 -0.9368
   98SAPC  H14B 9647   1.433   1.957   2.783  0.0758 -0.5422  1.1323
   98SAPC  H14C 9648   1.438   2.071   2.922  1.0515 -0.1735  0.0209
   98SAPC   C15 9649   1.696   2.068   2.955  0.0010 -0.0904 -0.5538
   98SAPC  H15A 9650   1.799   2.039   2.965 -0.0150 -0.8954 -2.3467
   98SAPC  H15B 9651   1.699   2.150   2.884  0.0742 -0.5637 -1.1077
   98SAPC  H15C 9652   1.666   2.107   3.051  1.0618 -1.4472  0.3767
   98SAPC   C11 9653   1.479   1.910   3.126 -0.1308 -0.3131 -0.2349
   98SAPC  H11A 9654   1.525   2.001   3.169 -0.0653 -0.4913  0.0692
   98SAPC  H11B 9655   1.479   1.845   3.216 -2.5744  1.6383  1.3078
   98SAPC     P 9656   1.227   1.846   3.075  0.4260  0.0192 -0.0700
   98SAPC   O13 9657   1.139   1.885   2.964  0.7985  0.0161 -0.1078
   98SAPC   O14 9658   1.283   1.709   3.063 -0.6673  0.1339 -0.7471
   98SAPC   O12 9659   1.347   1.940   3.087 -0.1345 -0.5258 -0.0307
   98SAPC   O11 9660   1.143   1.862   3.205  0.0864 -0.5867 -0.6329
   98SAPC    C1 9661   1.179   1.952   3.317  0.0316  0.0869  0.6416
   98SAPC    HA 9662   1.238   2.037   3.277  0.4147 -0.5183 -0.1122
   98SAPC    HB 9663   1.086   1.998   3.356  0.2705  0.6185  0.5909
   98SAPC    C2 9664   1.262   1.880   3.426 -0.4018  0.0844  0.7162
   98SAPC    HS 9665   1.369   1.885   3.399 -0.9569  1.6961 -1.5148
   98SAPC   O21 9666   1.210   1.750   3.444  0.2325  0.1653  0.8180
   98SAPC   C21 9667   1.289   1.669   3.513 -0.0141  0.6511 -0.5989
   98SAPC   O22 9668   1.403   1.685   3.550 -0.2256  0.2923  0.2085
   98SAPC   C22 9669   1.211   1.541   3.547  0.2693  0.5719  0.3888
   98SAPC   H2R 9670   1.104   1.569   3.548  0.3225  0.8351  2.0336
   98SAPC   H2S 9671   1.235   1.459   3.476 -0.0066 -2.5648  3.6375
   98SAPC    C3 9672   1.251   1.963   3.559 -0.1019  0.2397  0.1653
   98SAPC    HX 9673   1.291   2.064   3.536  0.8885 -0.5223 -1.5992
   98SAPC    HY 9674   1.323   1.920   3.632 -0.1823 -0.8432 -0.3784
   98SAPC   O31 9675   1.115   1.960   3.605  0.2695 -0.3820  0.4481
   98SAPC   C31 9676   1.044   2.066   3.613 -0.0255 -0.3035 -0.4441
   98SAPC   O32 9677   1.080   2.180   3.592 -0.4942 -0.4029 -0.2140
   98SAPC   C32 9678   0.901   2.037   3.673 -0.3145 -0.6932  0.5594
   98SAPC   H2X 9679   0.870   1.934   3.648 -0.7264 -1.1703  2.8328
   98SAPC   H2Y 9680   0.835   2.116   3.632  0.1644  0.3253  1.6733
   98SAPC   C23 9681   1.255   1.493   3.685 -0.1389  0.2491  0.0336
   98SAPC   H3R 9682   1.363   1.467   3.688  0.0002  0.7532 -0.4662
   98SAPC   H3S 9683   1.199   1.400   3.709 -1.1832  0.3225 -1.9288
   98SAPC   C24 9684   1.237   1.598   3.794 -0.0411  0.4667  0.2924
   98SAPC   H4R 9685   1.308   1.683   3.781 -0.6532  1.0315  0.6289
   98SAPC   H4S 9686   1.272   1.553   3.890  2.0511 -0.6909 -0.9343
   98SAPC   C25 9687   1.098   1.644   3.809 -0.3333 -0.0759  0.0969
   98SAPC   H5R 9688   1.058   1.677   3.712 -0.0876  0.0061  0.0244
   98SAPC   C26 9689   1.021   1.657   3.924 -0.1844 -0.2613 -0.0159
   98SAPC   H6R 9690   0.929   1.716   3.913  2.1455  3.3805 -1.7455
   98SAPC   C27 9691   1.057   1.624   4.067  0.6818  0.7520  0.4709
   98SAPC   H7R 9692   1.126   1.536   4.064 -1.1643 -0.7218 -0.5705
   98SAPC   H7S 9693   0.966   1.586   4.119  0.8003 -0.3788 -0.1008
   98SAPC   C28 9694   1.121   1.729   4.160  0.2072  0.6748 -0.0278
   98SAPC   H8R 9695   1.059   1.816   4.186  1.3024  1.7585 -0.9185
   98SAPC   C29 9696   1.234   1.713   4.229  0.6585 -0.8431  0.0084
   98SAPC   H9R 9697   1.260   1.797   4.295 -0.9880  2.1116 -2.8504
   98SAPC  C210 9698   1.331   1.590   4.235 -0.4810  0.2024 -0.3477
   98SAPC  H10R 9699   1.332   1.523   4.146  0.0625  0.9129 -0.8877
   98SAPC  H10S 9700   1.288   1.537   4.323  0.9868  0.9766  0.8823
   98SAPC  C211 9701   1.475   1.636   4.256  0.1737 -0.1104  0.3512
   98SAPC  H11R 9702   1.511   1.700   4.174  1.6748  0.4887  1.4369
   98SAPC  C212 9703   1.560   1.614   4.358  0.3129  0.0933 -0.1404
   98SAPC  H12R 9704   1.662   1.648   4.339  0.8006  0.8623  3.2733
   98SAPC  C213 9705   1.537   1.538   4.488  0.3283  0.2296  0.4932
   98SAPC  H13R 9706   1.444   1.478   4.481 -0.2531  1.1920 -0.2013
   98SAPC  H13S 9707   1.515   1.610   4.570 -1.6005  0.1388  0.0880
   98SAPC  C214 9708   1.643   1.436   4.513 -0.4566  0.2942  0.3110
   98SAPC  H14R 9709   1.651   1.399   4.616  2.9198 -0.3416 -0.0721
   98SAPC  C215 9710   1.698   1.345   4.429  0.7225  1.1984 -0.0953
   98SAPC  H15R 9711   1.745   1.260   4.479 -0.2523 -1.0365 -2.7050
   98SAPC  C216 9712   1.685   1.331   4.277  0.1334  0.0935  0.0186
   98SAPC  H16R 9713   1.591   1.379   4.244  1.9242  2.7088 -1.7190
   98SAPC  H16S 9714   1.674   1.224   4.251 -0.1717 -0.1276  0.9876
   98SAPC  C217 9715   1.791   1.402   4.204  0.2604  0.9530  0.1935
   98SAPC  H17R 9716   1.888   1.352   4.224 -0.9528 -1.6232  0.1227
   98SAPC  H17S 9717   1.798   1.506   4.240  0.3947  0.9660  0.1264
   98SAPC  C218 9718   1.769   1.414   4.050 -0.1728 -0.0083  0.1503
   98SAPC  H18R 9719   1.760   1.312   4.007 -0.0532 -0.4651  1.1741
   98SAPC  H18S 9720   1.871   1.444   4.016  0.0794 -1.5331 -0.5153
   98SAPC  C219 9721   1.663   1.514   4.006 -0.1206  0.0138 -0.3420
   98SAPC  H19R 9722   1.570   1.495   4.065 -1.1612 -0.8537 -2.1838
   98SAPC  H19S 9723   1.639   1.507   3.898 -0.7182  0.2693 -0.2292
   98SAPC  C220 9724   1.713   1.660   4.028 -0.2423 -0.2866 -0.3274
   98SAPC  H20R 9725   1.805   1.677   3.968  0.4092 -1.1567  0.3975
   98SAPC  H20S 9726   1.735   1.684   4.134 -0.5605 -0.8448 -0.1260
   98SAPC  H20T 9727   1.634   1.730   3.993 -0.2764 -0.8533 -1.4355
   98SAPC   C33 9728   0.909   2.039   3.830  1.0834  0.0349  0.4493
   98SAPC   H3X 9729   0.941   2.139   3.866  1.3907  0.0922  0.0286
   98SAPC   H3Y 9730   0.990   1.966   3.853  0.3505 -0.8020  0.4098
   98SAPC   C34 9731   0.781   1.985   3.889  0.4238  0.3330  0.5111
   98SAPC   H4X 9732   0.762   1.883   3.849 -0.9143  0.5625  0.5447
   98SAPC   H4Y 9733   0.695   2.050   3.861 -0.4727 -0.0653  2.2511
   98SAPC   C35 9734   0.770   1.972   4.045 -0.3266  0.6890 -0.1795
   98SAPC   H5X 9735   0.818   2.064   4.085 -0.2222 -0.3252  2.1782
   98SAPC   H5Y 9736   0.848   1.897   4.071  1.0550  1.8182 -0.8999
   98SAPC   C36 9737   0.639   1.930   4.120 -0.3766 -0.2381 -0.4979
   98SAPC   H6X 9738   0.603   1.837   4.071 -0.5757  0.5119 -1.8220
   98SAPC   H6Y 9739   0.555   2.002   4.120  0.7775  1.1664  0.7102
   98SAPC   C37 9740   0.669   1.901   4.272  0.0850  0.3440 -0.2870
   98SAPC   H7X 9741   0.702   1.998   4.315 -0.6282 -0.2209  1.6599
   98SAPC   H7Y 9742   0.760   1.839   4.281  1.2305  2.0942  1.1038
   98SAPC   C38 9743   0.552   1.838   4.352 -0.5389 -0.0097  0.0258
   98SAPC   H8X 9744   0.517   1.739   4.315 -0.5927  0.2997 -0.7797
   98SAPC   H8Y 9745   0.471   1.913   4.347  2.1527  3.2385  1.1879
   98SAPC   C39 9746   0.592   1.837   4.498 -0.1624 -0.0893 -0.5929
   98SAPC   H9X 9747   0.630   1.936   4.531 -2.0056  0.7660 -0.8682
   98SAPC   H9Y 9748   0.677   1.766   4.507  0.7677  0.9150 -1.1611
   98SAPC  C310 9749   0.467   1.809   4.579 -0.6848 -0.0640  0.1941
   98SAPC  H10X 9750   0.416   1.725   4.527  0.3868 -0.0273 -0.9637
   98SAPC  H10Y 9751   0.402   1.898   4.573 -1.2098 -0.4414  0.2324
   98SAPC  C311 9752   0.496   1.769   4.724  0.2604  0.1223  0.4781
   98SAPC  H11X 9753   0.569   1.844   4.761  1.3768 -0.8557  0.2903
   98SAPC  H11Y 9754   0.553   1.675   4.735 -1.0303 -0.4764  2.4556
   98SAPC  C312 9755   0.367   1.747   4.809 -0.3577 -0.7199  0.3959
   98SAPC  H12X 9756   0.408   1.699   4.901 -4.2538 -1.6262  1.8448
   98SAPC  H12Y 9757   0.287   1.686   4.763 -1.5074  0.3363  0.9562
   98SAPC  C313 9758   0.301   1.879   4.862 -0.4986 -0.1644  0.7158
   98SAPC  H13X 9759   0.301   1.959   4.786 -2.4162  0.4324  1.2888
   98SAPC  H13Y 9760   0.371   1.909   4.944 -1.5967  1.9795  0.9217
   98SAPC  C314 9761   0.165   1.851   4.919  0.1867  0.7751  0.2387
   98SAPC  H14X 9762   0.101   1.784   4.858 -0.6983  0.0660  1.8781
   98SAPC  H14Y 9763   0.121   1.953   4.921  0.5226  0.9474 -0.7224
   98SAPC  C315 9764   0.167   1.797   5.065  0.4647  0.0833 -0.1460
   98SAPC  H15X 9765   0.246   1.851   5.121  1.9468  2.0164 -3.7984
   98SAPC  H15Y 9766   0.175   1.686   5.066 -2.1741 -0.1705 -0.4262
   98SAPC  C316 9767   0.037   1.818   5.140  0.3106  0.0554  0.5737
   98SAPC  H16X 9768   0.016   1.927   5.135  0.8459  0.2740  2.2482
   98SAPC  H16Y 9769   0.053   1.781   5.244  3.9134 -4.0976 -1.1434
   98SAPC  C317 9770  -0.082   1.739   5.075  0.2765 -0.0385  0.2498
   98SAPC  H17X 9771  -0.111   1.773   4.973  1.2478  1.3372  0.3952
   98SAPC  H17Y 9772  -0.179   1.764   5.123 -1.3611 -3.3970 -0.9780
   98SAPC  C318 9773  -0.073   1.587   5.084  0.5240  0.8710 -0.2956
   98SAPC  H18X 9774  -0.165   1.536   5.046  1.4630  0.2085 -1.7438
   98SAPC  H18Y 9775  -0.059   1.562   5.191  1.2943  1.6941 -0.1903
   98SAPC  H18Z 9776   0.012   1.546   5.026 -0.8816  0.3193 -2.0822
   99SAPC     N 9777   6.648   4.739   2.338 -0.0338  0.5302  0.3226
   99SAPC   C12 9778   6.663   4.886   2.293 -0.2338  0.1758  0.0358
   99SAPC  H12A 9779   6.723   4.886   2.203 -0.8848  0.5499 -0.4026
   99SAPC  H12B 9780   6.709   4.945   2.372  0.9200  0.1662 -0.6040
   99SAPC   C13 9781   6.614   4.655   2.221 -0.3661 -0.4145 -0.3152
   99SAPC  H13A 9782   6.681   4.670   2.138  0.0636  2.2194  0.4337
   99SAPC  H13B 9783   6.619   4.550   2.246 -1.2208 -0.4041 -0.0806
   99SAPC  H13C 9784   6.518   4.674   2.177  0.4592  2.5726 -1.0411
   99SAPC   C14 9785   6.776   4.688   2.398  0.0234 -0.8432  0.1111
   99SAPC  H14A 9786   6.756   4.598   2.455  1.7526  0.1184  2.4394
   99SAPC  H14B 9787   6.852   4.680   2.322  0.1457 -0.7332  0.2217
   99SAPC  H14C 9788   6.820   4.759   2.468 -0.0232 -1.3223  0.6375
   99SAPC   C15 9789   6.536   4.717   2.439  0.1468  0.4824 -0.3227
   99SAPC  H15A 9790   6.538   4.613   2.469 -1.9855  0.4642 -0.0561
   99SAPC  H15B 9791   6.552   4.779   2.526  2.1931 -1.1163  0.5237
   99SAPC  H15C 9792   6.443   4.749   2.395  0.0451 -0.2128 -0.6341
   99SAPC   C11 9793   6.524   4.948   2.256  0.1293 -0.0455  0.2433
   99SAPC  H11A 9794   6.483   4.876   2.182  1.2643 -1.8115  1.2619
   99SAPC  H11B 9795   6.546   5.044   2.204  0.7863  0.8936  2.1534
   99SAPC     P 9796   6.297   5.029   2.357 -0.2351 -0.0800  0.3175
   99SAPC   O13 9797   6.294   5.165   2.306  0.0816  0.2144  0.6244
   99SAPC   O14 9798   6.216   4.933   2.281  0.0850 -0.5699  0.3309
   99SAPC   O12 9799   6.443   4.968   2.367  0.3476 -0.1164  0.2127
   99SAPC   O11 9800   6.243   5.031   2.505  0.2679 -0.2465  1.0842
   99SAPC    C1 9801   6.289   4.944   2.605 -0.6651  0.4702  0.4495
   99SAPC    HA 9802   6.285   4.839   2.571 -0.9179  1.2288 -2.0701
   99SAPC    HB 9803   6.396   4.968   2.622 -0.8412  0.1835  2.1353
   99SAPC    C2 9804   6.211   4.965   2.743 -0.2409  0.3375 -0.1823
   99SAPC    HS 9805   6.217   5.071   2.775  0.1163 -0.0766  1.1621
   99SAPC   O21 9806   6.271   4.875   2.841 -0.1539  0.2001  0.0314
   99SAPC   C21 9807   6.385   4.914   2.891  0.2689  0.6411  0.2695
   99SAPC   O22 9808   6.447   5.015   2.859  0.2011 -0.3609 -0.2030
   99SAPC   C22 9809   6.405   4.821   3.013  0.8412  0.0407  0.0282
   99SAPC   H2R 9810   6.317   4.848   3.076  0.3043  0.2078 -0.7766
   99SAPC   H2S 9811   6.405   4.712   2.990  1.1794  0.0902 -0.2051
   99SAPC    C3 9812   6.058   4.942   2.744  0.5321  0.8933 -0.1288
   99SAPC    HX 9813   6.032   4.838   2.716 -0.6801  0.8282  1.1318
   99SAPC    HY 9814   6.005   5.010   2.674  2.3972  0.8007 -1.7375
   99SAPC   O31 9815   6.014   4.984   2.876 -0.7859  0.0973  0.5730
   99SAPC   C31 9816   5.951   4.901   2.950 -0.0588  0.4406  0.3034
   99SAPC   O32 9817   5.919   4.788   2.916  0.6047 -0.1964 -0.1334
   99SAPC   C32 9818   5.928   4.977   3.075  0.8102 -0.7315 -0.6810
   99SAPC   H2X 9819   5.859   5.062   3.057  2.1590  0.3826 -0.7869
   99SAPC   H2Y 9820   6.025   5.016   3.114 -1.3919  0.8352  3.8448
   99SAPC   C23 9821   6.533   4.859   3.082 -0.2595 -0.3060  0.2403
   99SAPC   H3R 9822   6.523   4.936   3.161 -0.1291 -0.1709  0.1257
   99SAPC   H3S 9823   6.609   4.886   3.006 -2.8661  0.9433 -2.0735
   99SAPC   C24 9824   6.578   4.737   3.169  0.2665 -0.3103 -0.3733
   99SAPC   H4R 9825   6.591   4.650   3.101  0.1367 -1.5094  1.0914
   99SAPC   H4S 9826   6.499   4.706   3.241  1.6365 -1.7529  0.5753
   99SAPC   C25 9827   6.709   4.759   3.244  0.2258 -0.3749  0.3593
   99SAPC   H5R 9828   6.788   4.729   3.173 -1.5697 -2.9980 -0.6881
   99SAPC   C26 9829   6.741   4.781   3.372 -0.3034  0.0747  0.6642
   99SAPC   H6R 9830   6.848   4.796   3.390 -0.1043 -1.7068  1.0907
   99SAPC   C27 9831   6.641   4.803   3.480  0.3049  0.0971  0.0225
   99SAPC   H7R 9832   6.551   4.747   3.448 -1.5278  1.0924  3.0603
   99SAPC   H7S 9833   6.612   4.911   3.485 -0.9325 -0.1333 -1.3071
   99SAPC   C28 9834   6.687   4.754   3.612 -0.5370  0.1066  0.0687
   99SAPC   H8R 9835   6.773   4.685   3.613  1.9619  2.9780 -0.8185
   99SAPC   C29 9836   6.647   4.790   3.738  0.3813  0.3534 -0.0877
   99SAPC   H9R 9837   6.691   4.751   3.831  0.9529 -0.2119 -0.5944
   99SAPC  C210 9838   6.533   4.881   3.773 -0.5764 -0.5047  0.3647
   99SAPC  H10R 9839   6.486   4.921   3.680 -0.3192 -1.4516 -0.1928
   99SAPC  H10S 9840   6.581   4.963   3.830  0.9305 -0.1384 -1.3245
   99SAPC  C211 9841   6.421   4.815   3.849 -0.0283 -0.4512 -0.2667
   99SAPC  H11R 9842   6.330   4.783   3.795 -0.5970  0.7099 -0.0395
   99SAPC  C212 9843   6.418   4.799   3.981  0.2073  0.2237 -0.4361
   99SAPC  H12R 9844   6.325   4.754   4.018  2.2917 -2.4827  1.9080
   99SAPC  C213 9845   6.519   4.821   4.084 -0.4799  0.2825 -0.0165
   99SAPC  H13R 9846   6.598   4.882   4.034  0.9410 -1.3537  0.1172
   99SAPC  H13S 9847   6.567   4.728   4.121  0.2206  0.0943 -1.3111
   99SAPC  C214 9848   6.461   4.893   4.203  0.1628 -0.6757  0.8549
   99SAPC  H14R 9849   6.471   5.003   4.196 -0.1631 -0.7119 -0.4189
   99SAPC  C215 9850   6.399   4.835   4.309 -1.0375 -0.1625 -0.6066
   99SAPC  H15R 9851   6.357   4.907   4.381  1.7550  1.3381 -0.3263
   99SAPC  C216 9852   6.374   4.692   4.349 -0.7621 -0.4922 -0.2392
   99SAPC  H16R 9853   6.388   4.633   4.256 -0.5993  0.1874 -0.6507
   99SAPC  H16S 9854   6.266   4.698   4.374 -0.8693  1.4374 -1.0112
   99SAPC  C217 9855   6.473   4.637   4.456  0.1087  0.0702 -0.4403
   99SAPC  H17R 9856   6.577   4.652   4.419 -0.0420 -0.2863 -1.0112
   99SAPC  H17S 9857   6.455   4.528   4.470 -0.2948  0.3103  1.0991
   99SAPC  C218 9858   6.458   4.709   4.598  0.0224  0.6618 -0.4612
   99SAPC  H18R 9859   6.360   4.670   4.633  0.9091 -0.5599  0.7870
   99SAPC  H18S 9860   6.446   4.819   4.593 -1.9157  0.7547  2.9947
   99SAPC  C219 9861   6.562   4.655   4.704 -0.2825 -0.5411 -0.0128
   99SAPC  H19R 9862   6.558   4.722   4.793  0.9225  0.8928 -1.0142
   99SAPC  H19S 9863   6.661   4.667   4.657 -0.1693  0.8623  0.5430
   99SAPC  C220 9864   6.554   4.510   4.757  0.1024  0.2645 -1.1052
   99SAPC  H20R 9865   6.470   4.486   4.826  0.5548 -1.7910 -1.2010
   99SAPC  H20S 9866   6.655   4.483   4.796 -0.3043 -0.8090 -0.7563
   99SAPC  H20T 9867   6.535   4.443   4.671  1.9629  0.1005 -1.4308
   99SAPC   C33 9868   5.866   4.894   3.195 -0.2226  0.1189  0.3815
   99SAPC   H3X 9869   5.939   4.811   3.207 -0.2207  0.1438  0.5435
   99SAPC   H3Y 9870   5.770   4.845   3.168  0.3399 -1.4924  1.1900
   99SAPC   C34 9871   5.844   4.972   3.325 -0.0086 -0.1815  0.2261
   99SAPC   H4X 9872   5.775   4.913   3.389  0.0382 -1.2605 -0.6862
   99SAPC   H4Y 9873   5.780   5.057   3.296  1.0063  0.4527 -0.2241
   99SAPC   C35 9874   5.976   5.014   3.401  0.5534  0.2051  0.3619
   99SAPC   H5X 9875   6.028   5.084   3.333 -0.0408 -0.6329 -1.0162
   99SAPC   H5Y 9876   6.036   4.921   3.403  1.6599  0.8915 -0.1129
   99SAPC   C36 9877   5.949   5.073   3.543  0.2581  0.6941 -0.1807
   99SAPC   H6X 9878   5.866   5.020   3.594 -1.4473  3.1107 -0.2673
   99SAPC   H6Y 9879   5.935   5.184   3.540 -0.6699  0.5687 -1.0013
   99SAPC   C37 9880   6.071   5.048   3.637 -0.2748 -0.4257  0.2804
   99SAPC   H7X 9881   6.167   5.068   3.584 -0.2772 -1.2943 -0.0651
   99SAPC   H7Y 9882   6.071   4.941   3.667 -3.1424 -1.3747 -2.5632
   99SAPC   C38 9883   6.049   5.136   3.759  0.4712  0.4278  0.0918
   99SAPC   H8X 9884   5.942   5.129   3.789  0.6170  0.9249  0.7327
   99SAPC   H8Y 9885   6.074   5.242   3.739  2.2085  0.3453  1.5823
   99SAPC   C39 9886   6.134   5.088   3.877 -0.4353 -0.0621 -0.1606
   99SAPC   H9X 9887   6.237   5.116   3.843 -0.3396 -0.9059 -0.5993
   99SAPC   H9Y 9888   6.121   4.978   3.886 -2.0351  0.0135 -1.2398
   99SAPC  C310 9889   6.078   5.154   3.997  0.3847  0.1969  0.0872
   99SAPC  H10X 9890   5.969   5.133   4.003  0.4530 -0.1839  0.0600
   99SAPC  H10Y 9891   6.088   5.262   3.974  0.4144  0.0712 -0.4954
   99SAPC  C311 9892   6.144   5.102   4.128 -0.0593 -0.3400 -0.1377
   99SAPC  H11X 9893   6.255   5.101   4.123  0.0652  2.7625  0.1150
   99SAPC  H11Y 9894   6.118   4.999   4.162  0.8723  0.0126  1.8351
   99SAPC  C312 9895   6.101   5.184   4.251 -0.1942 -0.2571 -0.5192
   99SAPC  H12X 9896   5.992   5.183   4.274 -0.0121 -0.1261  0.3808
   99SAPC  H12Y 9897   6.141   5.287   4.242  0.6406 -0.4517  0.7317
   99SAPC  C313 9898   6.173   5.131   4.380  0.2938  0.4991  0.5867
   99SAPC  H13X 9899   6.175   5.213   4.455 -0.5150  1.4104 -0.3605
   99SAPC  H13Y 9900   6.280   5.104   4.367 -0.2599 -1.0377 -1.2485
   99SAPC  C314 9901   6.087   5.020   4.447 -0.3311  0.0207  0.1290
   99SAPC  H14X 9902   6.068   4.933   4.381  0.4479  0.4132 -0.6351
   99SAPC  H14Y 9903   5.987   5.066   4.465 -1.2407 -1.5112 -0.8286
   99SAPC  C315 9904   6.143   4.989   4.585  0.4892 -0.0140 -0.8695
   99SAPC  H15X 9905   6.166   5.085   4.635 -0.3498 -0.7856  1.1068
   99SAPC  H15Y 9906   6.232   4.923   4.575  0.0499 -1.0152  1.2139
   99SAPC  C316 9907   6.039   4.915   4.665  0.3712 -0.0076 -0.8741
   99SAPC  H16X 9908   6.013   4.827   4.602  0.9932 -1.3242  0.6555
   99SAPC  H16Y 9909   5.952   4.979   4.691  0.1653 -0.8967  0.7132
   99SAPC  C317 9910   6.100   4.855   4.799  0.7281 -0.2349  0.0370
   99SAPC  H17X 9911   6.135   4.937   4.866  0.7266  0.8361 -1.2192
   99SAPC  H17Y 9912   6.197   4.806   4.777  0.9610 -0.5955  1.7562
   99SAPC  C318 9913   6.009   4.768   4.882 -0.5424  0.5701 -0.7776
   99SAPC  H18X 9914   6.060   4.772   4.981  0.3617  1.7246 -1.2675
   99SAPC  H18Y 9915   5.987   4.668   4.840  0.0731  1.2883 -2.8983
   99SAPC  H18Z 9916   5.905   4.805   4.892 -1.5171 -1.6585 -1.8931
  100SAPC     N 9917   3.987   6.069   2.179 -0.3688  0.0185  0.1158
  100SAPC   C12 9918   3.953   5.999   2.306 -0.6857 -0.2946  0.4903
  100SAPC  H12A 9919   4.037   5.939   2.338 -0.2541 -0.1727 -0.3864
  100SAPC  H12B 9920   3.877   5.927   2.283 -1.0017 -0.4812  2.0512
  100SAPC   C13 9921   3.864   6.107   2.094  0.3447  0.2670  1.1777
  100SAPC  H13A 9922   3.798   6.022   2.088 -1.5777  1.6381  1.7824
  100SAPC  H13B 9923   3.806   6.187   2.138  1.0149  1.1775  0.4500
  100SAPC  H13C 9924   3.887   6.136   1.993 -0.1278 -0.1631  0.9459
  100SAPC   C14 9925   4.059   6.204   2.201 -0.4090  0.2651  0.3034
  100SAPC  H14A 9926   3.996   6.277   2.248  0.1884  1.3424 -0.5231
  100SAPC  H14B 9927   4.152   6.182   2.252 -0.1118  0.6716 -0.0574
  100SAPC  H14C 9928   4.091   6.242   2.105 -3.5156  0.2096 -0.8702
  100SAPC   C15 9929   4.073   5.982   2.092  0.2624  0.2991  0.2463
  100SAPC  H15A 9930   4.017   5.900   2.049  2.9392 -1.3467 -0.3435
  100SAPC  H15B 9931   4.105   6.039   2.006 -1.1152 -0.9951 -1.1892
  100SAPC  H15C 9932   4.162   5.948   2.142  0.0558 -0.1376  0.3208
  100SAPC   C11 9933   3.919   6.091   2.421  0.0844 -0.3733  0.1367
  100SAPC  H11A 9934   4.006   6.154   2.450 -0.1848  0.4106 -0.6996
  100SAPC  H11B 9935   3.899   6.018   2.502  0.1710 -0.3620  0.1693
  100SAPC     P 9936   3.651   6.118   2.401 -0.0783  0.2135  0.0600
  100SAPC   O13 9937   3.571   6.226   2.346 -0.5598  0.4933  0.3051
  100SAPC   O14 9938   3.643   5.981   2.341  0.0258  0.0248 -0.4338
  100SAPC   O12 9939   3.804   6.170   2.389 -0.2554  0.0522  0.2227
  100SAPC   O11 9940   3.611   6.113   2.555 -0.0810  0.0065 -0.6306
  100SAPC    C1 9941   3.660   6.220   2.642 -0.8087  0.0125  0.1426
  100SAPC    HA 9942   3.767   6.206   2.667 -0.7846  0.4584  0.3085
  100SAPC    HB 9943   3.642   6.314   2.585  0.7357  0.5448  0.4937
  100SAPC    C2 9944   3.583   6.241   2.775 -0.0662 -0.7141  0.8612
  100SAPC    HS 9945   3.659   6.267   2.852  0.5228  0.1457  0.0152
  100SAPC   O21 9946   3.517   6.123   2.812 -0.2469  0.1340  0.3345
  100SAPC   C21 9947   3.592   6.024   2.853  0.0563  0.3455 -0.2578
  100SAPC   O22 9948   3.713   6.018   2.861 -0.0508 -0.4229  0.2048
  100SAPC   C22 9949   3.513   5.910   2.904 -0.0789 -0.3621 -0.9533
  100SAPC   H2R 9950   3.406   5.942   2.914  0.1319  0.3160 -0.7894
  100SAPC   H2S 9951   3.531   5.824   2.837  3.6116 -1.8871  1.7104
  100SAPC    C3 9952   3.485   6.356   2.760 -0.4726 -0.3378 -0.1886
  100SAPC    HX 9953   3.417   6.340   2.673  0.5339  1.2341 -1.3083
  100SAPC    HY 9954   3.554   6.441   2.743  0.2182 -0.3280  2.2482
  100SAPC   O31 9955   3.409   6.378   2.872  0.4513  0.0641  0.5208
  100SAPC   C31 9956   3.282   6.323   2.883  0.1108  0.0506 -0.6967
  100SAPC   O32 9957   3.221   6.273   2.793  0.0123  0.5341  0.1208
  100SAPC   C32 9958   3.230   6.333   3.030 -0.1155  0.1282  0.2551
  100SAPC   H2X 9959   3.171   6.249   3.073  1.1558  0.1508  2.2038
  100SAPC   H2Y 9960   3.169   6.425   3.038 -0.0257  0.2555 -0.4220
  100SAPC   C23 9961   3.571   5.846   3.033 -0.2256 -0.0863 -0.9589
  100SAPC   H3R 9962   3.679   5.826   3.017  0.1474  0.5788  0.5741
  100SAPC   H3S 9963   3.521   5.747   3.047  0.8972 -0.4126  1.2870
  100SAPC   C24 9964   3.542   5.925   3.162  0.4917 -1.0093 -0.5769
  100SAPC   H4R 9965   3.564   6.029   3.127 -1.5212 -1.1245 -2.4173
  100SAPC   H4S 9966   3.609   5.889   3.243  0.1725  1.1232  0.7384
  100SAPC   C25 9967   3.402   5.904   3.208  0.8059  0.3414  0.1777
  100SAPC   H5R 9968   3.327   5.892   3.129  0.0212  1.4483  0.7348
  100SAPC   C26 9969   3.362   5.888   3.333 -0.1579  0.1181 -0.6984
  100SAPC   H6R 9970   3.258   5.866   3.361 -0.5212  1.4546 -0.9268
  100SAPC   C27 9971   3.455   5.893   3.456  0.5274 -0.2827 -0.0941
  100SAPC   H7R 9972   3.411   5.976   3.516 -0.3314 -1.2370  0.6333
  100SAPC   H7S 9973   3.559   5.919   3.425 -0.5095  2.1382 -1.8802
  100SAPC   C28 9974   3.452   5.773   3.543 -1.0380 -0.3549 -0.2276
  100SAPC   H8R 9975   3.433   5.674   3.499 -0.0541 -1.2140  1.2198
  100SAPC   C29 9976   3.488   5.781   3.675  0.2519  0.7242 -0.6227
  100SAPC   H9R 9977   3.513   5.691   3.734 -0.0838 -0.3360 -2.0540
  100SAPC  C210 9978   3.526   5.901   3.755  0.8122  0.0309  0.4458
  100SAPC  H10R 9979   3.604   5.954   3.697  1.5155 -0.2137  1.1493
  100SAPC  H10S 9980   3.586   5.866   3.842 -0.9023 -2.2347  0.8264
  100SAPC  C211 9981   3.411   5.991   3.786 -0.4103  0.3669 -0.2066
  100SAPC  H11R 9982   3.390   6.075   3.719 -0.1612 -0.1412 -0.9383
  100SAPC  C212 9983   3.326   5.966   3.886  0.0547 -0.0077  0.5312
  100SAPC  H12R 9984   3.248   6.043   3.898  1.2889  1.6923 -1.4604
  100SAPC  C213 9985   3.331   5.862   3.990 -0.4497 -0.0481 -0.3412
  100SAPC  H13R 9986   3.429   5.811   3.986 -1.1154 -1.5187  1.0469
  100SAPC  H13S 9987   3.261   5.784   3.956 -1.1706 -0.0021  0.9732
  100SAPC  C214 9988   3.304   5.913   4.134  0.1034  0.2512 -0.0769
  100SAPC  H14R 9989   3.212   5.967   4.159  0.5880  0.9272  0.2866
  100SAPC  C215 9990   3.381   5.897   4.242  0.1887  0.1000  0.1097
  100SAPC  H15R 9991   3.355   5.923   4.346 -4.3225 -0.7678 -0.5998
  100SAPC  C216 9992   3.511   5.816   4.240 -0.0715  0.5863  0.2327
  100SAPC  H16R 9993   3.502   5.731   4.169  0.8724 -1.1120  2.0483
  100SAPC  H16S 9994   3.536   5.764   4.335  0.0887 -0.0468 -0.1560
  100SAPC  C217 9995   3.633   5.905   4.216 -1.0469 -0.6323  0.0154
  100SAPC  H17R 9996   3.657   5.952   4.314  2.5677 -1.5476 -0.3066
  100SAPC  H17S 9997   3.617   5.975   4.131  0.7690  0.0826  0.2187
  100SAPC  C218 9998   3.762   5.827   4.187 -0.2915 -0.6180  0.4711
  100SAPC  H18R 9999   3.741   5.802   4.081  0.3075  2.4216 -0.4356
  100SAPC  H18S10000   3.770   5.742   4.258  0.1931 -0.7222  0.2985
  100SAPC  C21910001   3.889   5.924   4.192  0.1007  0.0323 -0.6311
  100SAPC  H19R10002   3.911   5.941   4.300 -1.7892 -1.8930  0.1450
  100SAPC  H19S10003   3.864   6.017   4.137  0.2389  0.0870 -0.6017
  100SAPC  C22010004   4.016   5.869   4.124  0.5760 -0.0229  0.3386
  100SAPC  H20R10005   3.983   5.841   4.022 -2.9535  0.9238  1.0813
  100SAPC  H20S10006   4.042   5.767   4.161  2.4790  0.7458  1.2806
  100SAPC  H20T10007   4.103   5.938   4.124  0.4344  0.1731  1.2304
  100SAPC   C3310008   3.350   6.350   3.132 -0.4431 -0.2901  0.3661
  100SAPC   H3X10009   3.402   6.447   3.113 -0.9865 -0.3320 -1.4399
  100SAPC   H3Y10010   3.417   6.262   3.122 -0.6692 -1.0467  4.0302
  100SAPC   C3410011   3.305   6.345   3.283 -0.3652  0.1211 -0.1347
  100SAPC   H4X10012   3.240   6.257   3.305 -1.7834  0.9393 -0.8951
  100SAPC   H4Y10013   3.242   6.434   3.304  0.2560  0.4124  0.5020
  100SAPC   C3510014   3.426   6.353   3.379  0.9352 -0.2634  0.3088
  100SAPC   H5X10015   3.493   6.434   3.344 -0.0663  0.5427  0.1940
  100SAPC   H5Y10016   3.475   6.254   3.382  1.2221 -0.1934 -1.3219
  100SAPC   C3610017   3.387   6.373   3.531  0.0055  0.2640  0.2897
  100SAPC   H6X10018   3.328   6.284   3.561  1.4596 -0.6401  0.5494
  100SAPC   H6Y10019   3.327   6.463   3.559 -0.8205 -0.2789  0.3235
  100SAPC   C3710020   3.517   6.366   3.612  0.9952  0.7111  0.5923
  100SAPC   H7X10021   3.596   6.440   3.586  1.9673 -0.3751  0.3507
  100SAPC   H7Y10022   3.567   6.268   3.593  0.1356 -0.5867  4.1925
  100SAPC   C3810023   3.510   6.364   3.762 -0.6081 -0.0094 -0.0373
  100SAPC   H8X10024   3.445   6.284   3.804  1.1104 -0.3884  2.0978
  100SAPC   H8Y10025   3.472   6.460   3.803  1.5574 -0.0506  2.2883
  100SAPC   C3910026   3.644   6.343   3.831  0.3060  0.7652 -0.8337
  100SAPC   H9X10027   3.712   6.422   3.790  0.5669  1.2011  0.4022
  100SAPC   H9Y10028   3.688   6.242   3.821  2.9589  1.8143 -0.7732
  100SAPC  C31010029   3.650   6.384   3.980 -0.0458  0.2922  0.4900
  100SAPC  H10X10030   3.601   6.482   3.994 -0.5679  0.0472  0.4119
  100SAPC  H10Y10031   3.751   6.399   4.023  0.6903 -1.7939 -0.3806
  100SAPC  C31110032   3.581   6.281   4.071  0.2152  0.1713 -0.0011
  100SAPC  H11X10033   3.638   6.186   4.069  0.5922  0.4003 -0.2506
  100SAPC  H11Y10034   3.478   6.256   4.036 -0.2503  0.8496  0.8528
  100SAPC  C31210035   3.565   6.336   4.215 -0.2824 -0.8097  0.0946
  100SAPC  H12X10036   3.482   6.272   4.252 -1.2406 -0.4252 -1.3241
  100SAPC  H12Y10037   3.535   6.443   4.220  1.0101 -0.4034 -0.3239
  100SAPC  C31310038   3.688   6.325   4.307 -0.1034  0.3575  0.6962
  100SAPC  H13X10039   3.768   6.393   4.269 -0.5703 -0.5018 -2.0353
  100SAPC  H13Y10040   3.723   6.220   4.311 -0.7297  0.1922  2.5814
  100SAPC  C31410041   3.651   6.357   4.455 -0.2579 -0.4209  0.3773
  100SAPC  H14X10042   3.549   6.315   4.469  0.1175 -1.2352  0.7566
  100SAPC  H14Y10043   3.628   6.465   4.464 -0.3475 -0.4072  0.0127
  100SAPC  C31510044   3.737   6.293   4.566  0.6120 -0.0779  0.9946
  100SAPC  H15X10045   3.842   6.302   4.530 -0.2343  1.2313 -1.3740
  100SAPC  H15Y10046   3.716   6.186   4.588 -0.7348  0.2668  1.4855
  100SAPC  C31610047   3.722   6.357   4.707  0.0295  0.3916  0.6775
  100SAPC  H16X10048   3.759   6.461   4.708  0.2635  0.3879 -1.7253
  100SAPC  H16Y10049   3.782   6.293   4.775 -0.5032  1.2168  1.9612
  100SAPC  C31710050   3.574   6.348   4.757  0.1280  0.5618 -0.7035
  100SAPC  H17X10051   3.528   6.252   4.726 -0.9232  0.5144  0.8647
  100SAPC  H17Y10052   3.505   6.422   4.713 -1.3305 -0.0131  0.5428
  100SAPC  C31810053   3.560   6.363   4.907  0.0768  0.4949 -1.0431
  100SAPC  H18X10054   3.464   6.317   4.939  0.8046 -1.2933 -1.2946
  100SAPC  H18Y10055   3.562   6.467   4.946 -0.5058 -0.2966  1.2638
  100SAPC  H18Z10056   3.642   6.312   4.962 -2.8595 -2.0611  1.3933
  101OSM      N10057   5.980   3.158   7.351 -0.6665  0.2930  0.0619
  101OSM    C1510058   6.070   3.071   7.439 -0.1377  0.2158  0.7405
  101OSM   H15A10059   6.078   3.104   7.542 -2.3812  0.8536  0.7638
  101OSM   H15B10060   6.168   3.092   7.399 -1.6579  2.4143 -2.2259
  101OSM   H15C10061   6.044   2.967   7.424 -0.7054  0.1796  1.8916
  101OSM    C1410062   5.834   3.152   7.398 -0.2171 -0.3558  0.2633
  101OSM   H14A10063   5.792   3.055   7.377  1.3328 -0.9145 -0.4482
  101OSM   H14B10064   5.776   3.216   7.334  0.8771  0.1152 -0.2789
  101OSM   H14C10065   5.820   3.182   7.501 -0.9567  2.0687 -0.4767
  101OSM    C1310066   6.036   3.299   7.346 -0.5408 -0.0706 -0.9228
  101OSM   H13A10067   5.972   3.361   7.285 -1.4147 -0.2013 -0.1725
  101OSM   H13B10068   6.140   3.295   7.318 -0.2029  1.1426  0.0996
  101OSM   H13C10069   6.042   3.341   7.445 -2.0708  1.1408 -1.3138
  101OSM    C1210070   5.996   3.096   7.209  0.8230 -0.0913 -0.1503
  101OSM   H12A10071   5.949   3.000   7.221  0.5472  0.0837  0.1925
  101OSM   H12B10072   6.098   3.067   7.191  0.2023 -2.2432 -0.3966
  101OSM    C1110073   5.931   3.173   7.088  0.1645 -0.3138 -0.3544
  101OSM   H11A10074   5.951   3.117   6.994 -0.2055  0.7332 -1.0873
  101OSM   H11B10075   5.988   3.267   7.075 -1.2055  0.4213 -1.3988
  101OSM      P10076   5.686   3.091   7.073 -0.0406 -0.5588  0.0366
  101OSM    O1310077   5.718   2.978   7.158  0.1368 -0.5008  0.2569
  101OSM    O1410078   5.549   3.147   7.083 -0.1920 -0.0248  0.3418
  101OSM    O1110079   5.707   3.043   6.928 -0.1362 -0.1397  0.4495
  101OSM    O1210080   5.789   3.204   7.099 -0.1116 -0.0490 -0.0039
  101OSM    C1S10081   5.599   3.051   6.833  0.2245 -0.1329 -0.5089
  101OSM    H1S10082   5.525   3.131   6.853  0.8578  0.6984 -1.4383
  101OSM    H1T10083   5.531   2.963   6.842  1.6694 -1.1252  1.6059
  101OSM     NF10084   5.514   3.083   6.608  0.7132  0.1297 -0.2988
  101OSM    HNF10085   5.467   3.009   6.561 -0.0606 -0.2784  1.0513
  101OSM    C2S10086   5.642   3.072   6.681 -0.2030 -0.4600 -0.4324
  101OSM    H2S10087   5.704   3.163   6.665 -0.3822 -0.3331 -0.3967
  101OSM    C3S10088   5.726   2.946   6.635  0.4474  0.3748 -0.9409
  101OSM    H3S10089   5.655   2.862   6.651 -0.9025  1.5078 -0.7160
  101OSM     O310090   5.851   2.911   6.706  0.0137 -0.0925  0.1886
  101OSM    HO310091   5.854   2.973   6.779  0.2386 -1.8702  1.7302
  101OSM    C4S10092   5.755   2.935   6.489  0.3122 -0.7607 -0.1278
  101OSM    H4S10093   5.669   2.893   6.434 -1.3895  0.1094  1.7597
  101OSM    C5S10094   5.871   2.961   6.421  0.1434  0.5085  0.1823
  101OSM    H5S10095   5.958   3.016   6.460  0.2267  1.1639 -0.8566
  101OSM    C6S10096   5.877   2.955   6.271 -0.3070  0.5062 -0.1646
  101OSM    H6S10097   5.805   3.025   6.225 -1.2784 -1.3006 -1.4979
  101OSM    H6T10098   5.865   2.853   6.230 -0.5591  0.3650  0.2492
  101OSM    C7S10099   6.014   3.014   6.238 -0.4915  0.1136  0.3633
  101OSM    H7S10100   6.103   2.977   6.293  0.5032  1.4715 -0.2579
  101OSM    H7T10101   6.006   3.120   6.271  0.0417  0.9740 -2.0461
  101OSM    C8S10102   6.032   3.029   6.084 -0.0505  0.4153 -0.7666
  101OSM    H8S10103   5.931   3.055   6.046  0.4376  0.5610 -2.0344
  101OSM    H8T10104   6.052   2.932   6.034 -1.7227 -1.3696  1.8105
  101OSM    C9S10105   6.132   3.131   6.030  1.0412 -0.1796  0.7558
  101OSM    H9S10106   6.234   3.094   6.056  0.6333 -0.6390  1.7479
  101OSM    H9T10107   6.126   3.236   6.066 -1.6725  0.3444 -0.9287
  101OSM   C10S10108   6.129   3.141   5.868 -0.2328  0.1910 -0.0182
  101OSM   H10S10109   6.044   3.207   5.840 -0.8877  0.2227  1.9545
  101OSM   H10T10110   6.108   3.042   5.821  1.9547  0.1478 -1.0209
  101OSM   C11S10111   6.260   3.180   5.804 -0.3010  0.9326  0.4702
  101OSM   H11S10112   6.347   3.119   5.837  0.0571  1.7722  1.1192
  101OSM   H11T10113   6.291   3.281   5.838  0.7896  1.0590 -0.8349
  101OSM   C12S10114   6.247   3.193   5.649 -0.9763  0.7351 -1.4758
  101OSM   H12S10115   6.177   3.277   5.631 -2.0916  0.4780  1.1192
  101OSM   H12T10116   6.192   3.100   5.625  0.2935 -1.9195  4.2631
  101OSM   C13S10117   6.387   3.222   5.575  0.1641 -0.6047 -0.1453
  101OSM   H13S10118   6.464   3.146   5.600  2.0517  1.6847  1.5338
  101OSM   H13T10119   6.425   3.317   5.619  0.3900 -1.1259  0.8085
  101OSM   C14S10120   6.372   3.239   5.424 -0.1688 -0.0212 -0.2541
  101OSM   H14S10121   6.471   3.247   5.374 -0.6933  0.1041 -1.2998
  101OSM   H14T10122   6.317   3.332   5.399 -2.2311 -0.9774  0.4929
  101OSM   C15S10123   6.297   3.123   5.357  0.2449  0.3746  0.1546
  101OSM   H15S10124   6.199   3.110   5.408  0.5663 -0.0486  0.6892
  101OSM   H15T10125   6.344   3.027   5.389  0.6853  1.1324  1.9378
  101OSM   C16S10126   6.288   3.128   5.203  0.7635  0.2511 -0.1866
  101OSM   H16S10127   6.225   3.213   5.170  0.2313 -0.6272 -1.4782
  101OSM   H16T10128   6.244   3.032   5.170 -1.6379  1.3182 -0.3018
  101OSM   C17S10129   6.420   3.144   5.123  0.1133 -0.2020 -0.8579
  101OSM   H17S10130   6.465   3.244   5.137  1.3038 -0.9052  0.6124
  101OSM   H17T10131   6.390   3.130   5.017  0.1189 -1.8660 -0.6709
  101OSM   C18S10132   6.534   3.045   5.147  0.2153  0.0248 -0.0384
  101OSM   H18S10133   6.594   3.062   5.239 -1.3404  1.9133  0.6929
  101OSM   H18T10134   6.597   3.052   5.056  1.9051 -0.3132  1.0652
  101OSM   H18U10135   6.511   2.936   5.139 -1.6049  0.4493 -1.4749
  101OSM    C1F10136   5.446   3.202   6.620  0.8548 -0.2712  0.2439
  101OSM     OF10137   5.489   3.289   6.695  0.7152  0.3148  0.0260
  101OSM    C2F10138   5.315   3.207   6.554 -0.2696 -0.0487  0.3058
  101OSM    H2F10139   5.235   3.202   6.631  0.2235  0.0997  0.8439
  101OSM    H2G10140   5.308   3.110   6.501  1.7003 -0.4014  0.5929
  101OSM    C3F10141   5.289   3.331   6.465  0.7592  0.5490  0.0131
  101OSM    H3F10142   5.277   3.422   6.527 -1.0119 -0.1404  0.7726
  101OSM    H3G10143   5.185   3.323   6.426  1.2506 -0.5425 -1.1448
  101OSM    C4F10144   5.397   3.359   6.363  0.2998 -0.1023 -0.4499
  101OSM    H4F10145   5.498   3.383   6.403  0.2423 -0.2599 -0.2106
  101OSM    H4G10146   5.366   3.438   6.291 -1.8120 -1.3273 -0.9824
  101OSM    C5F10147   5.414   3.243   6.263  0.5378  1.3356 -0.1338
  101OSM    H5F10148   5.316   3.218   6.218  1.8064  0.8497 -2.8488
  101OSM    H5G10149   5.460   3.156   6.314 -1.8946  0.1755  0.2185
  101OSM    C6F10150   5.501   3.282   6.134 -0.3443 -0.2295 -0.3787
  101OSM    H6F10151   5.603   3.304   6.172 -0.5468  0.0967 -0.0098
  101OSM    H6G10152   5.465   3.380   6.095  1.1689  1.6686  2.6036
  101OSM    C7F10153   5.510   3.175   6.031 -0.1772 -0.4686 -0.0248
  101OSM    H7F10154   5.405   3.145   6.011 -1.4276  2.4353  1.5821
  101OSM    H7G10155   5.559   3.086   6.076  0.8187  0.5014  0.8762
  101OSM    C8F10156   5.580   3.205   5.901  0.2342  0.4723 -0.4743
  101OSM    H8F10157   5.685   3.169   5.907 -0.6667 -2.2769  0.5072
  101OSM    H8G10158   5.591   3.315   5.894  0.8323  0.4893  0.6386
  101OSM    C9F10159   5.523   3.141   5.774  0.6660 -1.3117  0.4652
  101OSM    H9F10160   5.420   3.171   5.750 -0.0431 -2.1453  2.3428
  101OSM   C10F10161   5.580   3.047   5.700  0.1983  0.7872  0.8189
  101OSM   H10F10162   5.520   3.002   5.619 -1.3332  0.1134  2.2626
  101OSM   C11F10163   5.714   2.982   5.725 -0.2641  0.1851 -0.2081
  101OSM   H11F10164   5.702   2.906   5.804 -3.4882  0.6136 -0.1435
  101OSM   H11G10165   5.786   3.056   5.765  0.7158 -1.5617  1.3863
  101OSM   C12F10166   5.774   2.919   5.597 -0.3699 -0.0525  0.9091
  101OSM   H12F10167   5.708   2.841   5.554 -1.0589  1.2199 -0.3992
  101OSM   H12G10168   5.858   2.848   5.617 -1.7414 -1.9735  0.1231
  101OSM   C13F10169   5.807   3.025   5.494  0.2434 -0.3712  0.3140
  101OSM   H13F10170   5.877   3.104   5.529 -1.8921  0.7998  2.1341
  101OSM   H13G10171   5.718   3.079   5.458  1.0024  0.8722  0.2492
  101OSM   C14F10172   5.870   2.968   5.362 -0.4102  0.0478  0.0185
  101OSM   H14F10173   5.793   2.895   5.327 -1.8995  0.9486  1.2512
  101OSM   H14G10174   5.958   2.914   5.403 -2.1034 -0.9386  2.6067
  101OSM   C15F10175   5.892   3.077   5.263  0.2548  1.0473 -0.2947
  101OSM   H15F10176   5.955   3.160   5.302  0.2098 -0.2060  2.6484
  101OSM   H15G10177   5.790   3.120   5.250  0.0155  0.5058 -0.2340
  101OSM   C16F10178   5.938   3.042   5.119 -0.3238  0.4886  0.1790
  101OSM   H16F10179   6.025   2.973   5.114 -0.9075 -0.1840 -1.7556
  101OSM   H16G10180   5.956   3.131   5.056  0.5973 -1.2338 -2.1421
  101OSM   C17F10181   5.827   2.969   5.042  0.0821  0.4240  0.6169
  101OSM   H17F10182   5.737   3.033   5.048 -1.9358 -2.1834  0.0692
  101OSM   H17G10183   5.811   2.876   5.100 -0.3781  0.6284  0.8171
  101OSM   C18F10184   5.851   2.928   4.892  0.4522 -0.6513  0.7307
  101OSM   H18F10185   5.925   2.846   4.884 -0.0751 -0.9805 -1.2992
  101OSM   H18G10186   5.887   3.019   4.840 -0.0404 -0.0934  1.3441
  101OSM   H18H10187   5.758   2.878   4.856  0.2153  0.0725  0.3239
  102OSM      N10188   6.334   1.964   7.058 -0.1688  0.2919  0.7461
  102OSM    C1510189   6.302   1.870   7.172  0.4253 -0.5313 -0.1375
  102OSM   H15A10190   6.279   1.913   7.268 -0.9874 -2.7752  0.6039
  102OSM   H15B10191   6.376   1.794   7.196 -0.5241 -1.3225  0.3795
  102OSM   H15C10192   6.208   1.821   7.153  0.5601 -1.4689  1.4488
  102OSM    C1410193   6.457   2.044   7.109  0.3141 -0.1070 -0.3477
  102OSM   H14A10194   6.469   2.126   7.039  2.9488 -0.9153 -0.9413
  102OSM   H14B10195   6.542   1.978   7.114  1.3245  1.1180 -0.9963
  102OSM   H14C10196   6.438   2.091   7.204 -0.5277 -0.3721 -0.3724
  102OSM    C1310197   6.372   1.878   6.941  0.2058  0.5107  0.9780
  102OSM   H13A10198   6.442   1.799   6.959 -1.5986 -1.5013 -0.4009
  102OSM   H13B10199   6.401   1.953   6.869 -0.3221  0.5497  0.8001
  102OSM   H13C10200   6.289   1.823   6.899  0.1511  0.0939  1.6182
  102OSM    C1210201   6.215   2.057   7.029  0.5248 -0.2456 -0.3360
  102OSM   H12A10202   6.193   2.096   7.128  1.6560  1.6020 -0.7663
  102OSM   H12B10203   6.125   2.001   7.008 -0.7212 -0.0910  3.6253
  102OSM    C1110204   6.233   2.173   6.933 -0.0189  0.9926 -0.5882
  102OSM   H11A10205   6.138   2.217   6.897  0.8647  3.0916 -0.5210
  102OSM   H11B10206   6.279   2.131   6.841 -1.9616  1.7328 -1.9575
  102OSM      P10207   6.270   2.403   7.039 -0.1933  0.1703 -0.3685
  102OSM    O1310208   6.132   2.380   7.096 -0.1365  0.1943 -0.2866
  102OSM    O1410209   6.364   2.478   7.130  0.6913 -0.1186 -0.3995
  102OSM    O1110210   6.249   2.476   6.903 -0.0484  0.5074 -0.8356
  102OSM    O1210211   6.326   2.268   6.985  0.1417  0.0440 -0.5512
  102OSM    C1S10212   6.193   2.604   6.894 -0.8314  0.4414  0.0498
  102OSM    H1S10213   6.272   2.680   6.914 -2.3976  2.3557 -0.6759
  102OSM    H1T10214   6.110   2.612   6.967 -0.0508 -3.0346  1.5338
  102OSM     NF10215   6.093   2.778   6.753 -0.1698 -0.5793  0.1430
  102OSM    HNF10216   6.001   2.814   6.753  0.9294  2.5186  0.7589
  102OSM    C2S10217   6.123   2.636   6.757  0.2292  0.2062 -0.5791
  102OSM    H2S10218   6.197   2.602   6.681  0.3836 -0.9264  0.0551
  102OSM    C3S10219   6.002   2.549   6.731  0.6083  0.2111  0.1874
  102OSM    H3S10220   5.922   2.592   6.796 -0.3840 -1.8550  0.4139
  102OSM     O310221   6.017   2.412   6.768  0.3726  0.2833 -0.0997
  102OSM    HO310222   6.108   2.411   6.799  0.4090 -4.0570  0.1879
  102OSM    C4S10223   5.943   2.571   6.596 -0.3918 -0.3989  0.2718
  102OSM    H4S10224   5.877   2.659   6.594 -1.3747 -1.0966  0.6429
  102OSM    C5S10225   5.960   2.492   6.485 -0.2025  0.6899 -0.2668
  102OSM    H5S10226   6.023   2.402   6.492 -0.4360  0.5741  0.4581
  102OSM    C6S10227   5.900   2.527   6.349  0.2272 -0.1890 -0.1931
  102OSM    H6S10228   5.857   2.629   6.343 -0.0039 -0.2115  0.9492
  102OSM    H6T10229   5.807   2.467   6.334 -1.9433  1.6293  4.3061
  102OSM    C7S10230   5.998   2.498   6.239  0.3204  0.7586  0.0785
  102OSM    H7S10231   6.001   2.389   6.218 -1.8045  0.2469  2.0670
  102OSM    H7T10232   6.102   2.530   6.263 -0.4186  0.3429  4.8927
  102OSM    C8S10233   5.965   2.568   6.107 -0.8439 -0.5262 -0.2849
  102OSM    H8S10234   5.973   2.678   6.115  2.4484 -0.7037  0.3106
  102OSM    H8T10235   5.857   2.545   6.093 -0.3754 -2.2477 -1.5066
  102OSM    C9S10236   6.024   2.516   5.983 -0.2362 -0.1809  0.3974
  102OSM    H9S10237   6.026   2.405   5.990 -0.6931 -0.3034 -1.1072
  102OSM    H9T10238   6.133   2.537   5.970 -0.2925 -0.5390 -0.7641
  102OSM   C10S10239   5.957   2.565   5.851 -0.3221  0.0598 -0.3053
  102OSM   H10S10240   5.964   2.675   5.865  2.6164  0.0225 -0.8770
  102OSM   H10T10241   5.851   2.531   5.849 -0.7005  1.1821 -0.0739
  102OSM   C11S10242   6.037   2.503   5.729  0.1413 -0.0457 -0.5130
  102OSM   H11S10243   5.998   2.399   5.719 -1.1598  0.3964 -0.1841
  102OSM   H11T10244   6.148   2.506   5.735  0.1094  2.8592 -0.0816
  102OSM   C12S10245   5.996   2.576   5.604  0.0011 -1.2219  0.6657
  102OSM   H12S10246   5.999   2.684   5.630 -0.2212 -0.4008 -2.3305
  102OSM   H12T10247   5.890   2.563   5.573 -0.5907  0.6123  1.7754
  102OSM   C13S10248   6.089   2.547   5.488 -0.5848  0.0894  0.3000
  102OSM   H13S10249   6.062   2.447   5.450 -1.2386  0.4869 -0.3070
  102OSM   H13T10250   6.193   2.532   5.525 -0.3277 -0.0512 -0.4628
  102OSM   C14S10251   6.072   2.645   5.371 -0.2379  0.2882  0.1342
  102OSM   H14S10252   6.108   2.737   5.422 -1.6634 -0.2346  2.2282
  102OSM   H14T10253   5.966   2.651   5.341 -0.1562  0.9376 -0.0420
  102OSM   C15S10254   6.155   2.597   5.251  0.3076 -0.3102  0.0884
  102OSM   H15S10255   6.140   2.489   5.229 -0.1582  0.2119 -2.5736
  102OSM   H15T10256   6.259   2.608   5.286  0.3787  1.0159 -0.4704
  102OSM   C16S10257   6.130   2.683   5.128 -0.4605 -0.0338  0.4192
  102OSM   H16S10258   6.140   2.787   5.166  3.6997 -0.4961  0.9833
  102OSM   H16T10259   6.027   2.664   5.090 -0.6652  0.1523  0.8685
  102OSM   C17S10260   6.221   2.673   5.002  0.0219  0.5240 -0.3210
  102OSM   H17S10261   6.161   2.683   4.909 -1.2340  1.5654  0.5799
  102OSM   H17T10262   6.267   2.572   5.008 -1.0724  0.1074  1.9607
  102OSM   C18S10263   6.333   2.784   4.994  0.0013  0.2877 -0.3057
  102OSM   H18S10264   6.385   2.762   4.898 -0.8479 -1.5154 -0.3989
  102OSM   H18T10265   6.405   2.756   5.074  1.2835 -0.8593 -1.7886
  102OSM   H18U10266   6.277   2.879   4.999 -1.9443 -0.7800 -0.6327
  102OSM    C1F10267   6.200   2.856   6.732  0.7776  0.1113  0.2869
  102OSM     OF10268   6.313   2.819   6.725  0.4986 -0.6580 -0.5307
  102OSM    C2F10269   6.170   3.009   6.707  0.7062  0.9658 -0.3000
  102OSM    H2F10270   6.173   3.067   6.801  2.1728 -0.4784  0.5913
  102OSM    H2G10271   6.065   3.024   6.674  0.1285 -2.1044 -0.1676
  102OSM    C3F10272   6.269   3.065   6.601 -0.2788  0.1152  0.3421
  102OSM    H3F10273   6.238   3.012   6.508 -1.9995  1.0418  0.3520
  102OSM    H3G10274   6.378   3.047   6.613  0.8304  3.3783 -2.8422
  102OSM    C4F10275   6.249   3.213   6.585  0.2554  0.1925 -0.0099
  102OSM    H4F10276   6.283   3.268   6.675 -1.6869  1.1289  0.2102
  102OSM    H4G10277   6.138   3.215   6.577  0.2801 -1.9814 -1.8719
  102OSM    C5F10278   6.321   3.267   6.460 -0.3092  0.1377  0.3524
  102OSM    H5F10279   6.328   3.191   6.380  2.4418  0.2189  0.4261
  102OSM    H5G10280   6.431   3.267   6.475 -0.3557 -3.1152  1.6741
  102OSM    C6F10281   6.278   3.409   6.417 -0.5206  0.5191  0.6206
  102OSM    H6F10282   6.254   3.473   6.505 -3.3989  0.8347 -0.2857
  102OSM    H6G10283   6.193   3.388   6.349  1.3543 -1.7402 -1.1977
  102OSM    C7F10284   6.384   3.466   6.325  0.6067 -0.1324  1.1996
  102OSM    H7F10285   6.428   3.386   6.262  0.0158  1.1987 -1.0270
  102OSM    H7G10286   6.466   3.513   6.384  0.5115  1.5208  0.0839
  102OSM    C8F10287   6.315   3.558   6.226  0.1566  0.1021  0.3611
  102OSM    H8F10288   6.250   3.628   6.282  1.5464  0.9982  0.8979
  102OSM    H8G10289   6.257   3.492   6.158  2.7171 -3.2428  1.1164
  102OSM    C9F10290   6.414   3.650   6.162 -0.9272 -0.8846 -0.5015
  102OSM    H9F10291   6.429   3.738   6.226 -1.5725 -0.8460 -0.3888
  102OSM   C10F10292   6.478   3.653   6.038  0.0333  0.6498  0.0020
  102OSM   H10F10293   6.537   3.744   6.020  0.9579  0.4922  2.0057
  102OSM   C11F10294   6.462   3.544   5.925  0.0557  0.8734  0.3022
  102OSM   H11F10295   6.429   3.446   5.966  3.2605 -0.6141 -0.3390
  102OSM   H11G10296   6.566   3.525   5.891  0.1603 -1.5618  1.7406
  102OSM   C12F10297   6.376   3.578   5.801  0.4223  0.4010  0.3289
  102OSM   H12F10298   6.275   3.618   5.825  0.8822  3.3012 -2.0079
  102OSM   H12G10299   6.371   3.483   5.743  1.7569  0.7229 -0.3357
  102OSM   C13F10300   6.443   3.674   5.701 -0.2052 -1.3070 -0.2382
  102OSM   H13F10301   6.488   3.748   5.772  1.6277 -1.1107 -1.5398
  102OSM   H13G10302   6.368   3.715   5.630  0.2981 -2.9408 -1.7651
  102OSM   C14F10303   6.544   3.608   5.598  0.9951  0.3704 -0.5297
  102OSM   H14F10304   6.480   3.548   5.530 -0.9430  1.0436  0.6359
  102OSM   H14G10305   6.609   3.535   5.650 -1.0236 -2.1882 -1.4170
  102OSM   C15F10306   6.632   3.711   5.536  0.4733 -0.2168 -0.7179
  102OSM   H15F10307   6.705   3.652   5.475 -0.5610 -1.6261 -0.6441
  102OSM   H15G10308   6.685   3.773   5.612  1.6753 -2.1722  0.1325
  102OSM   C16F10309   6.589   3.812   5.434  0.6298 -0.3873  0.3477
  102OSM   H16F10310   6.685   3.834   5.383  0.2427 -0.3135 -0.3622
  102OSM   H16G10311   6.559   3.911   5.475 -1.2467 -1.2549  1.1960
  102OSM   C17F10312   6.489   3.749   5.327 -0.7945  0.3105 -0.7119
  102OSM   H17F10313   6.456   3.824   5.253 -0.5987 -0.9606 -2.1500
  102OSM   H17G10314   6.389   3.712   5.358 -1.3915  1.1582 -1.5748
  102OSM   C18F10315   6.565   3.649   5.239 -0.3346  0.2425 -0.2484
  102OSM   H18F10316   6.600   3.564   5.302  0.0502  0.1657 -0.5655
  102OSM   H18G10317   6.652   3.695   5.188  0.4427  0.4450  1.2102
  102OSM   H18H10318   6.489   3.612   5.167 -1.1238  2.8654 -0.8822
  103OSM      N10319   3.913   3.273   7.244 -0.3496  0.3643  0.6009
  103OSM    C1510320   4.040   3.203   7.285 -0.0798 -0.1014 -0.5082
  103OSM   H15A10321   4.124   3.236   7.225 -1.5016  3.2245 -0.8910
  103OSM   H15B10322   4.036   3.096   7.303  3.5256  0.0867  2.8571
  103OSM   H15C10323   4.067   3.242   7.383  0.2365 -0.3277 -0.5030
  103OSM    C1410324   3.881   3.237   7.104 -0.0132  0.1444 -0.6650
  103OSM   H14A10325   3.830   3.142   7.095 -1.3465  0.8281 -0.5913
  103OSM   H14B10326   3.970   3.234   7.043  0.3312  1.3144 -0.2528
  103OSM   H14C10327   3.815   3.316   7.072  0.8068  1.0749 -0.1358
  103OSM    C1310328   3.800   3.235   7.339  0.0072  0.6578  0.0623
  103OSM   H13A10329   3.814   3.289   7.431 -3.3576  1.4015  0.2861
  103OSM   H13B10330   3.801   3.129   7.361  1.5559  0.3758 -1.2105
  103OSM   H13C10331   3.702   3.260   7.301 -0.6462 -1.8974 -0.1454
  103OSM    C1210332   3.945   3.423   7.252 -0.7676  0.1677  1.2394
  103OSM   H12A10333   3.948   3.456   7.355 -2.4628  1.0623  1.0450
  103OSM   H12B10334   3.862   3.475   7.205 -2.4596 -2.0992  1.5661
  103OSM    C1110335   4.066   3.472   7.177  0.0187  1.1402  0.0524
  103OSM   H11A10336   4.056   3.582   7.169  1.4479  1.2918  0.1254
  103OSM   H11B10337   4.063   3.427   7.076  0.7843  0.2801  0.3972
  103OSM      P10338   4.321   3.482   7.171 -0.3694 -0.2447 -0.3980
  103OSM    O1310339   4.379   3.606   7.232  1.0646  0.2003  0.3140
  103OSM    O1410340   4.409   3.364   7.177  0.3119 -0.5742 -0.0200
  103OSM    O1110341   4.276   3.518   7.019  0.4392  0.1544 -0.0698
  103OSM    O1210342   4.184   3.449   7.248 -0.2137 -0.0808  0.4010
  103OSM    C1S10343   4.366   3.530   6.909  0.5399  0.5512  0.0190
  103OSM    H1S10344   4.380   3.425   6.874 -1.8947 -0.7017  2.4669
  103OSM    H1T10345   4.465   3.575   6.933 -0.2265  2.2554  0.1719
  103OSM     NF10346   4.400   3.629   6.678  0.4612  0.3203 -0.2014
  103OSM    HNF10347   4.471   3.699   6.674  0.6406  0.0979 -1.1000
  103OSM    C2S10348   4.318   3.630   6.799  0.2024 -0.0622 -0.0616
  103OSM    H2S10349   4.216   3.607   6.762  0.8116 -0.6639 -1.4466
  103OSM    C3S10350   4.304   3.776   6.861 -0.3679  0.7949  0.8295
  103OSM    H3S10351   4.408   3.811   6.878 -0.2339  0.4893  0.6525
  103OSM     O310352   4.227   3.781   6.986 -0.1097  0.3385 -0.2970
  103OSM    HO310353   4.228   3.691   7.018  1.4259  0.1548 -0.7735
  103OSM    C4S10354   4.235   3.867   6.773 -0.1574 -0.5351  0.3468
  103OSM    H4S10355   4.131   3.834   6.761  0.2748 -1.4626 -1.0164
  103OSM    C5S10356   4.275   3.974   6.698  0.1230 -0.6101 -0.1898
  103OSM    H5S10357   4.377   4.014   6.701  0.2563 -0.9616  0.0265
  103OSM    C6S10358   4.187   4.042   6.590  0.2450  0.3217  0.1204
  103OSM    H6S10359   4.169   4.150   6.611  0.3628  0.1891  0.9644
  103OSM    H6T10360   4.083   4.003   6.592 -0.9898  3.2392 -1.1469
  103OSM    C7S10361   4.246   4.025   6.444 -0.0070  0.3511 -0.2204
  103OSM    H7S10362   4.172   4.065   6.372  1.3146  3.3220 -0.0759
  103OSM    H7T10363   4.254   3.916   6.426 -0.4544  0.0153  1.4191
  103OSM    C8S10364   4.371   4.100   6.412  0.3888  0.0755  0.6832
  103OSM    H8S10365   4.441   4.046   6.479 -1.2739 -1.0977  1.5568
  103OSM    H8T10366   4.351   4.205   6.442 -0.0092  0.4716 -0.8522
  103OSM    C9S10367   4.412   4.099   6.267 -0.3451  0.3836  0.0902
  103OSM    H9S10368   4.496   4.170   6.249  1.2904 -1.3266  0.5971
  103OSM    H9T10369   4.329   4.135   6.203  0.6783  2.4726 -0.1349
  103OSM   C10S10370   4.441   3.960   6.210 -0.3618 -0.1103 -0.7819
  103OSM   H10S10371   4.381   3.877   6.252 -0.5261 -0.6267 -1.9947
  103OSM   H10T10372   4.549   3.940   6.224 -0.3730  0.8614  0.9812
  103OSM   C11S10373   4.427   3.968   6.055 -0.3760 -0.3104 -0.1463
  103OSM   H11S10374   4.336   4.026   6.028 -0.5910 -0.8628 -0.6316
  103OSM   H11T10375   4.398   3.875   6.002 -1.6053  1.5271 -2.9024
  103OSM   C12S10376   4.552   4.022   5.989 -0.6253 -0.3304 -0.0735
  103OSM   H12S10377   4.635   3.948   5.995  0.9110  1.3665  0.4214
  103OSM   H12T10378   4.575   4.119   6.039 -0.6150 -1.2015  1.6897
  103OSM   C13S10379   4.528   4.047   5.837 -0.3079  0.0972 -0.0175
  103OSM   H13S10380   4.419   4.048   5.816 -0.2192 -1.4249 -0.7185
  103OSM   H13T10381   4.567   3.955   5.787 -0.1610  0.8783 -1.3879
  103OSM   C14S10382   4.598   4.165   5.769 -0.9549 -0.2761 -0.5586
  103OSM   H14S10383   4.705   4.136   5.775 -0.9879 -0.2227  0.3721
  103OSM   H14T10384   4.595   4.258   5.830  0.0040 -0.3045 -0.4529
  103OSM   C15S10385   4.564   4.194   5.624 -0.2215  0.1488  0.1266
  103OSM   H15S10386   4.625   4.272   5.574 -1.7856  1.3982  0.1096
  103OSM   H15T10387   4.462   4.237   5.629 -1.3406 -2.2592 -0.2264
  103OSM   C16S10388   4.564   4.081   5.518 -1.2800 -0.1650  0.3068
  103OSM   H16S10389   4.497   4.000   5.552 -1.8511 -0.4532 -1.3925
  103OSM   H16T10390   4.665   4.034   5.523 -0.4310  1.7328  2.9204
  103OSM   C17S10391   4.564   4.132   5.375 -0.2366  0.0812 -0.4211
  103OSM   H17S10392   4.563   4.044   5.307 -0.6349 -0.2556  0.0163
  103OSM   H17T10393   4.661   4.185   5.365  1.0531 -2.3565 -1.4732
  103OSM   C18S10394   4.442   4.218   5.336 -0.3526  0.0166 -0.0728
  103OSM   H18S10395   4.349   4.158   5.347 -1.6671  1.8320 -0.8322
  103OSM   H18T10396   4.445   4.256   5.232  2.0519  1.6187  0.5162
  103OSM   H18U10397   4.434   4.300   5.411  0.6740 -2.7003  3.3056
  103OSM    C1F10398   4.398   3.529   6.592  0.0873  0.8841 -0.4854
  103OSM     OF10399   4.320   3.432   6.597 -0.8082  0.4410  0.4067
  103OSM    C2F10400   4.502   3.524   6.489 -0.1328 -0.3723  0.4254
  103OSM    H2F10401   4.518   3.417   6.467  2.5168 -0.2416  1.3775
  103OSM    H2G10402   4.596   3.566   6.531 -0.4441  0.2411  0.5344
  103OSM    C3F10403   4.455   3.608   6.370 -0.3119 -0.2295 -0.0443
  103OSM    H3F10404   4.501   3.706   6.397  1.8761 -1.5711  1.3283
  103OSM    H3G10405   4.345   3.613   6.351 -0.4846 -1.8348  0.3846
  103OSM    C4F10406   4.525   3.551   6.243 -0.3596  0.0791 -0.1945
  103OSM    H4F10407   4.459   3.469   6.208  0.3677 -0.0222 -1.4060
  103OSM    H4G10408   4.626   3.509   6.259  0.9337  2.7958 -0.5491
  103OSM    C5F10409   4.532   3.650   6.119  0.4855 -0.4310 -0.4651
  103OSM    H5F10410   4.604   3.731   6.144  0.7450 -0.5906 -0.6939
  103OSM    H5G10411   4.433   3.694   6.093  2.3318  3.1158 -2.2342
  103OSM    C6F10412   4.593   3.582   5.999  0.1062 -0.1672  0.4464
  103OSM    H6F10413   4.515   3.508   5.971  1.6122 -2.7021  2.5002
  103OSM    H6G10414   4.675   3.514   6.033  1.1986  0.7418 -0.2739
  103OSM    C7F10415   4.642   3.667   5.879 -0.1826 -0.4790  0.7577
  103OSM    H7F10416   4.713   3.737   5.927 -0.9444  0.5219  0.4655
  103OSM    H7G10417   4.559   3.720   5.827  1.4769  1.0910 -0.4394
  103OSM    C8F10418   4.717   3.580   5.773 -0.2692 -0.3071 -0.1435
  103OSM    H8F10419   4.796   3.522   5.825  1.4759  1.1560 -1.0402
  103OSM    H8G10420   4.783   3.649   5.716  0.2799 -0.6303  0.0932
  103OSM    C9F10421   4.634   3.491   5.676  0.6934 -0.3918 -0.2078
  103OSM    H9F10422   4.579   3.413   5.730 -4.1296  1.9164 -1.2118
  103OSM   C10F10423   4.616   3.508   5.547 -0.6470 -0.4177  0.2905
  103OSM   H10F10424   4.548   3.436   5.499 -0.9184  0.7203 -1.0657
  103OSM   C11F10425   4.682   3.614   5.464 -0.3378  0.4818 -0.1831
  103OSM   H11F10426   4.722   3.697   5.526 -1.2993  0.8391 -0.0211
  103OSM   H11G10427   4.604   3.662   5.401  0.1577  1.3010 -0.1865
  103OSM   C12F10428   4.782   3.545   5.371 -0.2240  0.4313 -0.7492
  103OSM   H12F10429   4.869   3.518   5.435 -0.0103  0.4726 -1.0197
  103OSM   H12G10430   4.826   3.622   5.303  1.4023  1.5998  1.4820
  103OSM   C13F10431   4.741   3.420   5.294  0.1693 -0.9461 -0.6342
  103OSM   H13F10432   4.641   3.428   5.247 -0.6536  2.9423  1.3658
  103OSM   H13G10433   4.724   3.339   5.367  0.9971 -0.9938 -0.4767
  103OSM   C14F10434   4.835   3.385   5.176 -0.1024  0.6196  0.2115
  103OSM   H14F10435   4.820   3.465   5.101  0.5591  1.4208  0.9219
  103OSM   H14G10436   4.817   3.283   5.135  1.7319 -0.2474  1.4319
  103OSM   C15F10437   4.987   3.384   5.209 -0.2994 -0.1016  0.4646
  103OSM   H15F10438   5.005   3.327   5.303  1.7175  1.8077  1.3097
  103OSM   H15G10439   5.029   3.486   5.210 -0.2868 -0.0854 -0.4849
  103OSM   C16F10440   5.083   3.309   5.111 -0.1894 -0.6071  0.2752
  103OSM   H16F10441   5.068   3.199   5.107  0.6131 -0.7020 -0.4677
  103OSM   H16G10442   5.184   3.320   5.156  0.6185  1.1711 -1.8044
  103OSM   C17F10443   5.084   3.362   4.967  0.0745  0.1396  0.2497
  103OSM   H17F10444   4.982   3.352   4.924  1.5395 -1.9381 -3.1474
  103OSM   H17G10445   5.139   3.295   4.897  0.0118 -1.8645  2.0287
  103OSM   C18F10446   5.131   3.503   4.950 -0.4002 -1.0630 -0.0374
  103OSM   H18F10447   5.056   3.567   5.001  0.5776 -0.8134  1.1196
  103OSM   H18G10448   5.149   3.519   4.841 -3.5697  3.1149 -0.1812
  103OSM   H18H10449   5.233   3.512   4.993  0.9804 -0.1899 -3.1874
  104OSM      N10450   5.967   5.240   7.449  0.5892  0.3071  0.1697
  104OSM    C1510451   6.015   5.346   7.358  0.1851 -0.2941  0.3623
  104OSM   H15A10452   6.090   5.315   7.287  0.2740 -3.2797  1.6479
  104OSM   H15B10453   6.055   5.425   7.421 -1.1901  0.0377  0.8639
  104OSM   H15C10454   5.940   5.395   7.297  1.7983 -1.6046 -2.8718
  104OSM    C1410455   6.095   5.175   7.489  0.2855 -0.3284 -0.0512
  104OSM   H14A10456   6.154   5.257   7.530 -1.1187  0.7563 -0.1412
  104OSM   H14B10457   6.145   5.137   7.401  1.0127  1.1536 -0.3166
  104OSM   H14C10458   6.084   5.098   7.564  0.8796  0.3366  0.7454
  104OSM    C1310459   5.902   5.307   7.566 -0.1308 -0.1770 -0.0425
  104OSM   H13A10460   5.871   5.237   7.642 -1.5791  0.2684 -0.1839
  104OSM   H13B10461   5.814   5.360   7.533  1.0519  1.5224 -0.5992
  104OSM   H13C10462   5.966   5.381   7.611  0.1679 -0.4453 -0.0264
  104OSM    C1210463   5.874   5.149   7.366  0.0061  0.4971  0.4704
  104OSM   H12A10464   5.801   5.223   7.336 -0.8729 -0.3973  0.3577
  104OSM   H12B10465   5.836   5.072   7.431 -0.3513  0.0636 -0.2404
  104OSM    C1110466   5.928   5.074   7.237 -0.0276 -1.1919  0.1952
  104OSM   H11A10467   5.970   5.151   7.168  2.1739 -1.0246  1.6450
  104OSM   H11B10468   5.842   5.031   7.182 -0.2657 -1.4305  0.7470
  104OSM      P10469   5.968   4.832   7.325 -0.1103 -0.1066  0.5591
  104OSM    O1310470   6.090   4.763   7.372 -0.6677 -0.4512  0.0175
  104OSM    O1410471   5.854   4.833   7.418 -0.5483  0.1403 -0.0711
  104OSM    O1110472   5.922   4.757   7.196 -0.7296 -0.4452  0.2238
  104OSM    O1210473   6.020   4.975   7.274 -0.3797  0.1749  0.2145
  104OSM    C1S10474   5.987   4.778   7.074 -0.0132 -0.9703  0.1771
  104OSM    H1S10475   6.097   4.789   7.087 -0.0172  2.5339 -1.5487
  104OSM    H1T10476   5.952   4.874   7.029  0.3882 -0.6091  0.6192
  104OSM     NF10477   6.016   4.737   6.843  0.3440 -0.3392 -0.1389
  104OSM    HNF10478   5.952   4.792   6.789  2.6076  0.6637 -1.9295
  104OSM    C2S10479   5.968   4.673   6.970 -0.4174 -0.2181  0.3486
  104OSM    H2S10480   6.035   4.586   6.985  0.3835 -0.2971 -2.8926
  104OSM    C3S10481   5.823   4.623   6.961  0.2723 -0.1335 -0.3247
  104OSM    H3S10482   5.753   4.706   6.939 -3.2420 -2.6920  0.3641
  104OSM     O310483   5.767   4.579   7.091  0.3692  0.2988  0.2674
  104OSM    HO310484   5.811   4.633   7.157 -2.5998  0.3191  2.4390
  104OSM    C4S10485   5.814   4.517   6.850  0.5627  0.0896 -0.8007
  104OSM    H4S10486   5.857   4.421   6.881 -2.7686 -1.6540 -1.0479
  104OSM    C5S10487   5.748   4.519   6.736 -0.4353 -0.3540 -0.5832
  104OSM    H5S10488   5.695   4.612   6.711 -0.3321  0.0422  0.6212
  104OSM    C6S10489   5.751   4.406   6.635 -0.4020  0.2504  0.1971
  104OSM    H6S10490   5.656   4.360   6.602 -1.2936  2.5921 -0.7355
  104OSM    H6T10491   5.826   4.326   6.652 -1.2613 -1.3892 -2.9736
  104OSM    C7S10492   5.810   4.468   6.501 -0.2319 -0.0786 -0.4866
  104OSM    H7S10493   5.916   4.495   6.521 -0.5316  0.0761  1.0049
  104OSM    H7T10494   5.771   4.565   6.466  2.1354  0.5289 -1.6291
  104OSM    C8S10495   5.833   4.359   6.396 -0.1689  0.4021 -0.9132
  104OSM    H8S10496   5.745   4.291   6.391 -0.6040  0.9514 -0.9344
  104OSM    H8T10497   5.923   4.306   6.432 -0.1948  0.6225 -0.5123
  104OSM    C9S10498   5.864   4.416   6.256 -1.0038  0.1949 -0.3631
  104OSM    H9S10499   5.958   4.475   6.255 -0.4924 -0.6017 -0.9578
  104OSM    H9T10500   5.790   4.491   6.224  1.5641  2.3847 -1.5152
  104OSM   C10S10501   5.880   4.314   6.147  0.0777 -0.0221 -0.1564
  104OSM   H10S10502   5.782   4.262   6.141 -1.5419  2.7282  0.3313
  104OSM   H10T10503   5.966   4.244   6.155  1.1699  1.2665 -0.2612
  104OSM   C11S10504   5.892   4.391   6.009 -0.3512  0.2636 -0.2907
  104OSM   H11S10505   5.944   4.489   6.016  0.7502 -0.2801 -0.5315
  104OSM   H11T10506   5.790   4.408   5.969 -0.6710  0.2778  0.5185
  104OSM   C12S10507   5.982   4.319   5.914 -0.1693 -0.0648  0.1832
  104OSM   H12S10508   5.935   4.219   5.909  0.4195 -0.4458  1.6641
  104OSM   H12T10509   6.079   4.302   5.966 -0.2723 -0.4424  0.2536
  104OSM   C13S10510   6.000   4.390   5.775  0.1061 -0.1637  0.3282
  104OSM   H13S10511   6.076   4.335   5.716 -0.8062  0.0069 -1.0506
  104OSM   H13T10512   6.032   4.496   5.790 -0.1308 -0.0744  0.2024
  104OSM   C14S10513   5.863   4.402   5.705  0.6443 -0.0559 -0.0466
  104OSM   H14S10514   5.786   4.462   5.758  1.8518  1.4861  0.0146
  104OSM   H14T10515   5.819   4.301   5.688 -0.8207  0.6624 -0.6446
  104OSM   C15S10516   5.880   4.477   5.573  0.1448 -0.6386  0.4622
  104OSM   H15S10517   5.978   4.456   5.525 -0.9073 -2.3862 -1.0797
  104OSM   H15T10518   5.871   4.586   5.591 -2.6696 -0.6825 -0.1067
  104OSM   C16S10519   5.766   4.444   5.481  0.4190  0.5607 -0.1447
  104OSM   H16S10520   5.667   4.474   5.521 -0.3993 -0.3829 -1.3442
  104OSM   H16T10521   5.759   4.336   5.456 -2.7545  1.1933 -2.7565
  104OSM   C17S10522   5.769   4.520   5.348 -0.1010  0.2504 -0.1000
  104OSM   H17S10523   5.748   4.628   5.364  1.1587  0.2289  2.0161
  104OSM   H17T10524   5.691   4.484   5.277 -0.2271  1.2845 -0.5130
  104OSM   C18S10525   5.909   4.506   5.275  0.7089  0.8943  0.4000
  104OSM   H18S10526   5.928   4.397   5.266  1.3010  1.0837 -0.6752
  104OSM   H18T10527   5.994   4.551   5.329 -0.6324  2.3523  1.3965
  104OSM   H18U10528   5.902   4.562   5.180 -2.2808 -0.3645 -0.2498
  104OSM    C1F10529   6.143   4.763   6.813  0.6607 -0.0927 -0.6010
  104OSM     OF10530   6.235   4.738   6.891 -0.0321  0.1282 -0.0647
  104OSM    C2F10531   6.166   4.846   6.695 -0.4756  0.0026  0.4842
  104OSM    H2F10532   6.123   4.948   6.701 -1.3715 -0.2630 -0.9222
  104OSM    H2G10533   6.139   4.798   6.598  1.9821  0.9713 -0.7835
  104OSM    C3F10534   6.316   4.889   6.685 -0.2024 -0.2321 -0.1274
  104OSM    H3F10535   6.386   4.806   6.661 -0.3282 -0.2953 -0.2799
  104OSM    H3G10536   6.348   4.921   6.787 -3.6497  2.0342  0.4013
  104OSM    C4F10537   6.328   4.979   6.570 -0.5319 -0.3301  0.4423
  104OSM    H4F10538   6.427   5.029   6.575 -0.2818 -0.8714  4.5916
  104OSM    H4G10539   6.241   5.048   6.567  0.6191  1.1390 -1.6266
  104OSM    C5F10540   6.315   4.914   6.429 -0.2940  0.3246  0.3502
  104OSM    H5F10541   6.214   4.878   6.400  0.6350 -0.1536 -2.6359
  104OSM    H5G10542   6.381   4.825   6.435 -0.5256  0.2192  1.8223
  104OSM    C6F10543   6.363   5.001   6.311  0.0951  0.9191  0.7322
  104OSM    H6F10544   6.339   4.946   6.218  0.7358 -0.3295  1.2818
  104OSM    H6G10545   6.473   5.014   6.303  0.3142  0.5704  2.6376
  104OSM    C7F10546   6.291   5.136   6.309  0.3881 -0.0364 -0.0820
  104OSM    H7F10547   6.353   5.205   6.369  0.3645 -0.0023 -0.0970
  104OSM    H7G10548   6.191   5.126   6.355  0.8896  1.1743  1.3208
  104OSM    C8F10549   6.273   5.185   6.170  0.6531 -0.1669 -0.0430
  104OSM    H8F10550   6.371   5.180   6.117  0.5928 -0.6564 -0.1181
  104OSM    H8G10551   6.249   5.293   6.168  1.7324  0.0770 -0.8545
  104OSM    C9F10552   6.170   5.099   6.093 -0.7046 -0.4800 -0.3004
  104OSM    H9F10553   6.155   4.999   6.137 -3.2470  0.4379  1.1537
  104OSM   C10F10554   6.091   5.131   5.989 -0.7531  0.9888  0.4996
  104OSM   H10F10555   6.020   5.063   5.940  1.0760 -0.8285  0.2440
  104OSM   C11F10556   6.101   5.260   5.914 -0.0121 -0.4070  0.1320
  104OSM   H11F10557   6.207   5.294   5.914 -0.2735  0.4124  0.7575
  104OSM   H11G10558   6.039   5.336   5.966  1.0583 -0.7731  2.0509
  104OSM   C12F10559   6.053   5.253   5.768 -0.1180  0.3531  0.4306
  104OSM   H12F10560   6.081   5.347   5.714  0.8761 -0.6781 -0.9224
  104OSM   H12G10561   5.943   5.237   5.767  0.0071 -0.5638  0.5966
  104OSM   C13F10562   6.122   5.144   5.682 -0.1627  0.2938  0.0678
  104OSM   H13F10563   6.071   5.048   5.705 -0.9864  0.0743 -2.3616
  104OSM   H13G10564   6.226   5.139   5.718  0.1047  0.0847 -0.7084
  104OSM   C14F10565   6.123   5.182   5.531  0.1767 -0.0470 -0.6780
  104OSM   H14F10566   6.211   5.245   5.508 -0.4769  2.2773  2.5007
  104OSM   H14G10567   6.028   5.238   5.520 -1.4604 -2.8365 -1.8843
  104OSM   C15F10568   6.099   5.057   5.437  0.2109 -0.3473  0.2915
  104OSM   H15F10569   6.172   4.978   5.465 -1.1600 -1.6413  0.3313
  104OSM   H15G10570   6.123   5.094   5.336 -1.7332 -2.1117 -0.9054
  104OSM   C16F10571   5.956   4.996   5.438 -0.1691 -0.3212 -0.5555
  104OSM   H16F10572   5.896   5.076   5.389  0.1297  1.1276  1.3421
  104OSM   H16G10573   5.924   4.994   5.544  0.0152  1.1056 -0.4588
  104OSM   C17F10574   5.938   4.865   5.362 -0.0990 -0.1282  0.2589
  104OSM   H17F10575   5.833   4.831   5.378 -0.8862  2.4217  1.0848
  104OSM   H17G10576   6.000   4.789   5.416 -0.7196  1.2916  3.1943
  104OSM   C18F10577   5.971   4.881   5.215 -0.0044 -0.2901 -0.1963
  104OSM   H18F10578   5.903   4.953   5.165 -0.7333 -0.9603 -0.1894
  104OSM   H18G10579   5.962   4.785   5.159 -0.5595 -0.1682 -0.3174
  104OSM   H18H10580   6.072   4.926   5.206  0.3865 -1.0840  0.1012
  105OSM      N10581   0.815   5.515   7.518  0.2214 -0.1308  0.3682
  105OSM    C1510582   0.943   5.482   7.592 -0.1722  0.2873 -0.4904
  105OSM   H15A10583   1.033   5.505   7.537  0.0037 -0.2786 -0.4556
  105OSM   H15B10584   0.950   5.381   7.630  0.6339  0.7051  0.5303
  105OSM   H15C10585   0.963   5.558   7.666  1.0965  0.1152 -0.6213
  105OSM    C1410586   0.695   5.518   7.602 -0.0657  0.4632  0.2249
  105OSM   H14A10587   0.686   5.610   7.658  0.5447  0.6508  0.0212
  105OSM   H14B10588   0.704   5.439   7.675  1.1610 -1.1354 -1.5516
  105OSM   H14C10589   0.605   5.510   7.542 -0.7230 -1.4161  1.3966
  105OSM    C1310590   0.826   5.648   7.455 -0.5740  0.6626 -0.2902
  105OSM   H13A10591   0.727   5.686   7.432 -0.8575  0.5086  0.6513
  105OSM   H13B10592   0.895   5.638   7.372  0.5586 -1.5188  0.8458
  105OSM   H13C10593   0.873   5.718   7.523  1.5355 -1.4227  0.4995
  105OSM    C1210594   0.788   5.405   7.419 -0.0031  0.0629  0.3907
  105OSM   H12A10595   0.739   5.318   7.459  0.9811 -1.8833 -2.2877
  105OSM   H12B10596   0.875   5.360   7.372  1.1266  2.3125  0.2083
  105OSM    C1110597   0.685   5.449   7.310  0.8205 -0.2791  0.4481
  105OSM   H11A10598   0.701   5.373   7.231 -1.8353  0.5402 -1.0141
  105OSM   H11B10599   0.705   5.551   7.271  3.6254 -1.5740 -1.8693
  105OSM      P10600   0.429   5.500   7.284 -0.0590  0.6444  0.1373
  105OSM    O1310601   0.310   5.413   7.299 -0.2696 -0.2651 -0.3115
  105OSM    O1410602   0.424   5.646   7.317 -0.5224  0.5083  0.4340
  105OSM    O1110603   0.472   5.496   7.139 -0.2041 -0.0192  0.1485
  105OSM    O1210604   0.553   5.437   7.365  0.5248  0.4093 -0.2790
  105OSM    C1S10605   0.454   5.376   7.061  0.7469 -0.1764 -0.5652
  105OSM    H1S10606   0.358   5.327   7.087  0.1357  2.1854  2.0741
  105OSM    H1T10607   0.540   5.310   7.086  0.1455 -1.1458 -0.9779
  105OSM     NF10608   0.437   5.265   6.849 -0.0344  0.0339  0.1109
  105OSM    HNF10609   0.515   5.203   6.840  1.3648  1.6926  0.3101
  105OSM    C2S10610   0.459   5.399   6.908  0.1846  0.1934 -0.1904
  105OSM    H2S10611   0.374   5.460   6.870 -1.8034 -1.7754  0.8310
  105OSM    C3S10612   0.594   5.460   6.861 -0.5357 -0.4530 -0.0899
  105OSM    H3S10613   0.677   5.386   6.864  0.1688  0.2638 -1.2827
  105OSM     O310614   0.644   5.563   6.941  0.2030  0.0643 -0.4804
  105OSM    HO310615   0.580   5.566   7.012  0.4916  0.4933 -0.2275
  105OSM    C4S10616   0.581   5.505   6.720 -0.7165 -1.4795 -0.4915
  105OSM    H4S10617   0.571   5.417   6.655 -0.9010 -1.2012 -0.8395
  105OSM    C5S10618   0.572   5.631   6.664  1.2095  1.2871 -0.2587
  105OSM    H5S10619   0.565   5.722   6.725  0.8448  0.2248  1.3380
  105OSM    C6S10620   0.557   5.653   6.519  0.1823 -0.0528 -0.4137
  105OSM    H6S10621   0.643   5.715   6.486  0.3921 -0.8400 -1.3970
  105OSM    H6T10622   0.461   5.707   6.508  0.4171  0.3809 -0.3450
  105OSM    C7S10623   0.556   5.532   6.431 -0.4143 -0.0439  0.0686
  105OSM    H7S10624   0.464   5.477   6.459  1.0335 -1.7126  1.8004
  105OSM    H7T10625   0.632   5.453   6.447 -0.3924 -0.3329 -1.2781
  105OSM    C8S10626   0.559   5.561   6.283  0.4081 -0.6963  0.1404
  105OSM    H8S10627   0.649   5.620   6.256 -1.4156  1.6367 -1.2545
  105OSM    H8T10628   0.478   5.632   6.256  0.8679 -0.6154 -1.0959
  105OSM    C9S10629   0.538   5.427   6.203  0.5256 -0.1711 -1.0583
  105OSM    H9S10630   0.435   5.388   6.218  0.7276 -0.0541  1.0556
  105OSM    H9T10631   0.606   5.354   6.251  0.5714  0.1031 -0.7002
  105OSM   C10S10632   0.589   5.427   6.059  0.2801  0.1971 -0.6143
  105OSM   H10S10633   0.604   5.322   6.025  2.1215  0.5957 -1.1227
  105OSM   H10T10634   0.692   5.469   6.052 -0.3480  1.8201 -0.4346
  105OSM   C11S10635   0.506   5.505   5.963 -0.4027  0.0078  0.0057
  105OSM   H11S10636   0.453   5.587   6.017  1.5174  0.6980  0.9817
  105OSM   H11T10637   0.435   5.428   5.927 -2.2929  0.6253  2.1835
  105OSM   C12S10638   0.592   5.570   5.857 -0.3144 -0.4143  0.9608
  105OSM   H12S10639   0.676   5.508   5.820 -0.0759  0.7270 -0.5430
  105OSM   H12T10640   0.625   5.671   5.889  0.5426  0.1780 -1.5211
  105OSM   C13S10641   0.517   5.601   5.721  0.4007  0.9198 -0.6219
  105OSM   H13S10642   0.572   5.680   5.666  2.2856  0.4753  0.5432
  105OSM   H13T10643   0.420   5.653   5.736 -0.7289 -1.1689 -0.2630
  105OSM   C14S10644   0.509   5.479   5.630  0.0671  0.7113 -0.4519
  105OSM   H14S10645   0.608   5.428   5.631 -1.3889 -2.3496  2.0855
  105OSM   H14T10646   0.484   5.498   5.524 -2.9297 -0.6741 -0.0747
  105OSM   C15S10647   0.420   5.362   5.667 -0.5812  0.5335 -0.4740
  105OSM   H15S10648   0.329   5.406   5.714  0.1303  3.2072 -1.4495
  105OSM   H15T10649   0.469   5.291   5.736 -1.3261  0.7001  0.2521
  105OSM   C16S10650   0.374   5.279   5.545  0.5250 -0.2813  0.1460
  105OSM   H16S10651   0.445   5.236   5.472 -0.0568 -1.8471  0.4597
  105OSM   H16T10652   0.307   5.343   5.483  0.4368 -0.2953  0.2258
  105OSM   C17S10653   0.288   5.165   5.600 -0.6950  0.4053 -0.3245
  105OSM   H17S10654   0.202   5.196   5.664 -0.2347 -0.8430  0.9325
  105OSM   H17T10655   0.355   5.103   5.663  0.3524 -0.2122 -1.9860
  105OSM   C18S10656   0.229   5.073   5.492 -0.5516 -0.8564 -0.1323
  105OSM   H18S10657   0.167   4.997   5.544 -3.6453  0.9938 -0.8608
  105OSM   H18T10658   0.310   5.028   5.430 -1.5506 -1.1607 -1.2569
  105OSM   H18U10659   0.164   5.128   5.420 -2.0687  0.4075  2.0969
  105OSM    C1F10660   0.306   5.220   6.834 -0.5448  0.6003 -0.3838
  105OSM     OF10661   0.220   5.279   6.892  0.6060  1.0078 -0.0889
  105OSM    C2F10662   0.279   5.101   6.747  0.0129  0.3124 -0.4051
  105OSM    H2F10663   0.169   5.094   6.735  0.1445  0.6101 -2.0463
  105OSM    H2G10664   0.305   5.006   6.797 -0.3305 -0.1174 -1.0311
  105OSM    C3F10665   0.334   5.129   6.607  0.2923 -0.7771 -0.2000
  105OSM    H3F10666   0.441   5.158   6.615 -0.4623  2.3801  0.0938
  105OSM    H3G10667   0.294   5.225   6.568 -0.4899 -0.3774  1.5130
  105OSM    C4F10668   0.293   5.016   6.506  0.6630 -0.3678 -0.1279
  105OSM    H4F10669   0.196   4.968   6.530  1.0247 -0.4365  1.2836
  105OSM    H4G10670   0.373   4.940   6.523  1.8537  1.2238  1.8884
  105OSM    C5F10671   0.300   5.072   6.362 -0.0492  0.3267  0.1515
  105OSM    H5F10672   0.405   5.109   6.354  1.4059 -3.1131  1.1362
  105OSM    H5G10673   0.228   5.156   6.360 -1.1883 -0.6341 -2.1536
  105OSM    C6F10674   0.276   4.955   6.261  0.1033  0.1957  0.1099
  105OSM    H6F10675   0.173   4.915   6.269  0.0343  0.6835  2.0647
  105OSM    H6G10676   0.347   4.874   6.291  0.3672  0.0196 -0.9355
  105OSM    C7F10677   0.303   5.000   6.116 -0.4367  0.1255 -0.0859
  105OSM    H7F10678   0.407   5.035   6.101 -0.0695 -1.3798 -1.3021
  105OSM    H7G10679   0.231   5.074   6.075 -0.8644 -0.4026 -0.2961
  105OSM    C8F10680   0.278   4.869   6.023  0.2717 -0.1086 -0.2712
  105OSM    H8F10681   0.357   4.793   6.037  0.5709 -0.1073 -1.7882
  105OSM    H8G10682   0.305   4.903   5.921  1.7931 -0.7194 -0.0970
  105OSM    C9F10683   0.139   4.814   6.037  0.4802 -0.3404 -0.5836
  105OSM    H9F10684   0.113   4.751   6.124 -1.7679 -0.6331 -1.3915
  105OSM   C10F10685   0.033   4.850   5.958  1.1802  0.2391  0.2508
  105OSM   H10F10686  -0.066   4.804   5.968  0.6301  1.3908  0.3222
  105OSM   C11F10687   0.044   4.935   5.827 -0.1344 -0.2477  0.0247
  105OSM   H11F10688   0.152   4.955   5.812 -0.2368  0.0215 -0.3631
  105OSM   H11G10689  -0.016   5.028   5.837 -1.5401 -1.1009 -0.2081
  105OSM   C12F10690  -0.018   4.862   5.701  0.5990  0.7514  0.0913
  105OSM   H12F10691  -0.019   4.928   5.612 -0.3417 -0.5500 -0.8855
  105OSM   H12G10692  -0.120   4.833   5.732  1.9082 -0.7650  3.5902
  105OSM   C13F10693   0.066   4.745   5.651  0.2329 -0.2308 -0.0559
  105OSM   H13F10694   0.032   4.664   5.718 -2.0032  1.5425  1.1097
  105OSM   H13G10695   0.174   4.770   5.658  0.5904 -1.9345  1.0652
  105OSM   C14F10696   0.017   4.700   5.507  0.7668  0.7236 -0.6973
  105OSM   H14F10697   0.000   4.793   5.448  1.9784  2.1339  1.0602
  105OSM   H14G10698  -0.075   4.643   5.527  1.1290  0.7931  1.4423
  105OSM   C15F10699   0.127   4.617   5.441 -0.2943  0.5126 -0.1483
  105OSM   H15F10700   0.210   4.686   5.414  0.3720 -0.5210 -0.8303
  105OSM   H15G10701   0.080   4.574   5.350  0.8343 -1.3567  0.1006
  105OSM   C16F10702   0.178   4.494   5.518 -0.0689 -0.3246 -0.0154
  105OSM   H16F10703   0.090   4.428   5.529  1.2135 -1.9794  1.0113
  105OSM   H16G10704   0.217   4.518   5.620 -0.0803  1.8601 -0.4691
  105OSM   C17F10705   0.270   4.396   5.441 -0.0128  0.0790  0.5606
  105OSM   H17F10706   0.371   4.441   5.422  1.0880 -2.5476 -0.3245
  105OSM   H17G10707   0.223   4.393   5.340  0.1908 -2.5737  0.4840
  105OSM   C18F10708   0.279   4.255   5.497  0.7901  0.4106 -0.2448
  105OSM   H18F10709   0.343   4.183   5.442 -0.3537  0.0145 -1.0804
  105OSM   H18G10710   0.180   4.210   5.473  0.1823  0.6880  1.5572
  105OSM   H18H10711   0.312   4.256   5.603 -2.2428  0.4069  0.7902
  106OSM      N10712   5.613   2.004   7.486 -0.9436 -0.6420  0.1158
  106OSM    C1510713   5.611   2.157   7.499  0.0989  0.1758 -0.1556
  106OSM   H15A10714   5.586   2.201   7.404  0.9441  2.0498  0.4389
  106OSM   H15B10715   5.706   2.204   7.519 -0.3984  1.5562 -0.8678
  106OSM   H15C10716   5.542   2.186   7.577 -0.4272  0.9091 -0.8703
  106OSM    C1410717   5.724   1.978   7.388  0.3139  0.1011 -0.1722
  106OSM   H14A10718   5.712   2.020   7.290 -0.9130  0.0111 -0.0721
  106OSM   H14B10719   5.741   1.872   7.375 -1.6127 -0.6183  2.2944
  106OSM   H14C10720   5.823   2.011   7.415  1.1962  0.3047 -3.3128
  106OSM    C1310721   5.648   1.962   7.625  0.4260  0.0775  0.1320
  106OSM   H13A10722   5.738   1.997   7.673 -0.4816  0.2470  1.8184
  106OSM   H13B10723   5.647   1.854   7.619  1.7278  0.1294 -1.6142
  106OSM   H13C10724   5.566   2.003   7.683 -2.0986 -2.1581 -1.6053
  106OSM    C1210725   5.475   1.961   7.438 -0.0010 -0.2305  0.2365
  106OSM   H12A10726   5.406   1.995   7.513  2.0063 -0.6084  2.3682
  106OSM   H12B10727   5.460   1.854   7.433 -0.7259 -0.0929 -0.7468
  106OSM    C1110728   5.427   2.007   7.294 -0.1511  0.0042 -0.6828
  106OSM   H11A10729   5.329   1.958   7.274 -0.8782  0.6672  1.0073
  106OSM   H11B10730   5.502   1.982   7.217  1.1071 -2.3238  1.1526
  106OSM      P10731   5.401   2.234   7.157  0.2657  0.1158 -0.6203
  106OSM    O1310732   5.278   2.319   7.161  0.3561  0.0156  0.2254
  106OSM    O1410733   5.529   2.306   7.144  0.2102 -0.0867 -0.1903
  106OSM    O1110734   5.398   2.129   7.036  0.3838  0.0002  0.1939
  106OSM    O1210735   5.410   2.149   7.287 -0.3733  0.5099  0.1084
  106OSM    C1S10736   5.407   2.180   6.907  0.3020  0.4967  1.0409
  106OSM    H1S10737   5.462   2.276   6.899  0.0407  0.6184  0.6393
  106OSM    H1T10738   5.304   2.188   6.867  0.4662  0.6187  0.6349
  106OSM     NF10739   5.486   2.131   6.672  0.3508 -0.3092 -0.0216
  106OSM    HNF10740   5.427   2.102   6.597  0.1982  2.4307 -1.0758
  106OSM    C2S10741   5.467   2.077   6.803  0.9899 -0.0390 -0.0925
  106OSM    H2S10742   5.561   2.041   6.851  1.8422  0.3700 -1.4010
  106OSM    C3S10743   5.371   1.959   6.802 -0.5947 -0.5269  0.0249
  106OSM    H3S10744   5.266   1.984   6.779  0.1422  1.6515 -1.2944
  106OSM     O310745   5.367   1.891   6.932 -0.5547 -0.0791  0.0096
  106OSM    HO310746   5.396   1.957   6.996  0.8097  0.3782 -1.0322
  106OSM    C4S10747   5.414   1.854   6.693 -0.0247  0.2039  0.2689
  106OSM    H4S10748   5.335   1.831   6.620 -0.5230  1.0151  0.5374
  106OSM    C5S10749   5.525   1.779   6.694 -0.5296 -0.5097  0.3874
  106OSM    H5S10750   5.599   1.800   6.773  0.5500  2.0453 -1.1817
  106OSM    C6S10751   5.575   1.693   6.579  0.5365 -0.0847  0.8421
  106OSM    H6S10752   5.538   1.590   6.600  0.6136 -0.6764 -1.6969
  106OSM    H6T10753   5.686   1.695   6.573  0.4671 -0.6465 -1.5502
  106OSM    C7S10754   5.519   1.750   6.445  0.0468 -0.0869 -0.2324
  106OSM    H7S10755   5.564   1.842   6.401 -1.1033  0.1547 -0.9577
  106OSM    H7T10756   5.408   1.750   6.448 -0.0094 -2.9978  1.5460
  106OSM    C8S10757   5.544   1.646   6.334  0.1203  0.4993  0.2519
  106OSM    H8S10758   5.530   1.539   6.361  2.8080 -0.0064  0.0165
  106OSM    H8T10759   5.654   1.651   6.315  0.0109  2.3068 -0.0830
  106OSM    C9S10760   5.479   1.691   6.198  0.3647  0.3468 -0.3276
  106OSM    H9S10761   5.511   1.794   6.172  1.1787  0.8338  2.2593
  106OSM    H9T10762   5.369   1.681   6.207  0.6739 -2.5011  1.7363
  106OSM   C10S10763   5.543   1.598   6.086  0.0718 -0.7738 -0.1306
  106OSM   H10S10764   5.545   1.494   6.125 -1.0549 -0.4875  0.7571
  106OSM   H10T10765   5.644   1.643   6.073 -0.7482  0.8295 -1.2686
  106OSM   C11S10766   5.465   1.614   5.954  0.3557 -0.1941 -0.3067
  106OSM   H11S10767   5.432   1.717   5.928 -2.4309 -0.9608 -0.2153
  106OSM   H11T10768   5.369   1.566   5.984  1.6885 -1.9079  1.4046
  106OSM   C12S10769   5.526   1.547   5.829 -0.1170 -0.1830  0.8660
  106OSM   H12S10770   5.451   1.538   5.747  0.3992  0.7930  0.2732
  106OSM   H12T10771   5.571   1.448   5.854 -1.0675 -1.0749 -0.7839
  106OSM   C13S10772   5.629   1.634   5.759  0.2456 -0.1360  0.4076
  106OSM   H13S10773   5.720   1.636   5.823  0.1032  2.4017  0.6412
  106OSM   H13T10774   5.567   1.725   5.749 -1.1737 -1.1708 -0.4696
  106OSM   C14S10775   5.672   1.587   5.621 -0.5038  0.6437  0.8647
  106OSM   H14S10776   5.596   1.509   5.602 -0.9153  0.4123  3.1888
  106OSM   H14T10777   5.772   1.540   5.616 -0.8614 -0.1864  1.3828
  106OSM   C15S10778   5.656   1.689   5.508  0.3305  0.1825 -0.0889
  106OSM   H15S10779   5.715   1.778   5.536 -2.6277  1.8259  1.5013
  106OSM   H15T10780   5.548   1.714   5.498 -0.1780 -0.7246  2.2954
  106OSM   C16S10781   5.718   1.636   5.385 -0.3784 -0.3167 -0.0334
  106OSM   H16S10782   5.669   1.547   5.341  2.4670 -1.3996 -1.2388
  106OSM   H16T10783   5.826   1.615   5.397  0.1115  0.6849 -2.2287
  106OSM   C17S10784   5.712   1.749   5.277  0.1019 -0.0793  0.2311
  106OSM   H17S10785   5.772   1.712   5.191 -0.2152 -0.2540  0.0850
  106OSM   H17T10786   5.746   1.844   5.323 -2.8254  1.8469 -1.2792
  106OSM   C18S10787   5.580   1.781   5.215  0.4745 -0.9988  0.9573
  106OSM   H18S10788   5.530   1.697   5.162  0.9214  1.0084 -3.0399
  106OSM   H18T10789   5.598   1.868   5.148 -0.2022 -0.4830  1.4282
  106OSM   H18U10790   5.499   1.816   5.283  0.5834 -1.7665  1.4851
  106OSM    C1F10791   5.579   2.218   6.644 -1.2324 -0.7781 -0.1672
  106OSM     OF10792   5.652   2.262   6.734  0.4394 -0.1386 -0.9273
  106OSM    C2F10793   5.589   2.266   6.504  0.0204  0.0957  0.0230
  106OSM    H2F10794   5.614   2.375   6.497 -0.3504  0.1900  0.1838
  106OSM    H2G10795   5.499   2.253   6.441  0.4493 -0.6042 -0.4656
  106OSM    C3F10796   5.690   2.177   6.422  0.4212  0.0506  0.0930
  106OSM    H3F10797   5.659   2.073   6.446 -1.2142  0.4109 -0.3396
  106OSM    H3G10798   5.797   2.193   6.447  1.0886 -1.4852 -1.5424
  106OSM    C4F10799   5.694   2.193   6.269  0.2173  0.1813  0.0884
  106OSM    H4F10800   5.719   2.300   6.252 -0.9965  0.4641 -0.0340
  106OSM    H4G10801   5.598   2.167   6.219 -1.3213 -3.2203  4.1164
  106OSM    C5F10802   5.802   2.103   6.204  0.4223  0.4563 -0.2776
  106OSM    H5F10803   5.791   2.003   6.249 -2.1630 -0.6309 -2.9860
  106OSM    H5G10804   5.905   2.137   6.229 -0.0615  0.5141  1.7454
  106OSM    C6F10805   5.796   2.098   6.053  0.8125  0.3095  0.5582
  106OSM    H6F10806   5.894   2.056   6.023  1.1696 -1.1541  3.4348
  106OSM    H6G10807   5.790   2.203   6.015 -0.7860  0.5689  1.4363
  106OSM    C7F10808   5.686   2.012   5.980  0.2337  0.1233 -0.2352
  106OSM    H7F10809   5.587   2.052   6.011  0.3511 -0.7618  1.4489
  106OSM    H7G10810   5.681   1.909   6.020 -0.8087  0.6654  1.1310
  106OSM    C8F10811   5.688   2.012   5.831 -0.4431 -0.0105  0.2660
  106OSM    H8F10812   5.664   2.114   5.795 -1.1179  0.2782  1.4746
  106OSM    H8G10813   5.608   1.942   5.798 -0.9051  0.0421  1.2448
  106OSM    C9F10814   5.823   1.977   5.773  0.4946 -0.3443  0.6375
  106OSM    H9F10815   5.882   1.920   5.845  0.1730 -0.6476  0.6638
  106OSM   C10F10816   5.876   2.024   5.658  0.2912 -0.1988 -0.6660
  106OSM   H10F10817   5.980   1.998   5.633  0.7401  1.7833 -1.0298
  106OSM   C11F10818   5.804   2.099   5.548 -0.6416  0.1332 -0.1364
  106OSM   H11F10819   5.694   2.101   5.565 -0.5172  1.3386  0.6013
  106OSM   H11G10820   5.819   2.032   5.461 -0.7794 -2.8702  1.9749
  106OSM   C12F10821   5.859   2.235   5.513  0.1401 -0.7176  0.0505
  106OSM   H12F10822   5.970   2.239   5.510  0.1386  0.8695  0.9576
  106OSM   H12G10823   5.833   2.308   5.594  2.0406  1.5506 -1.2565
  106OSM   C13F10824   5.793   2.291   5.386 -0.0830  1.1230 -0.0145
  106OSM   H13F10825   5.785   2.401   5.397  1.8155  1.5282 -1.9862
  106OSM   H13G10826   5.696   2.238   5.376  1.2719 -1.7223  0.8674
  106OSM   C14F10827   5.881   2.260   5.265 -0.1815 -0.1475  0.1767
  106OSM   H14F10828   5.889   2.150   5.252 -1.1850 -0.0321 -1.7380
  106OSM   H14G10829   5.975   2.315   5.287  0.1372 -1.1583  1.5256
  106OSM   C15F10830   5.820   2.314   5.140  0.1285  0.0138 -0.1616
  106OSM   H15F10831   5.742   2.243   5.106 -0.4783  0.1910  0.8295
  106OSM   H15G10832   5.900   2.313   5.063  0.3146  2.1870 -0.0551
  106OSM   C16F10833   5.759   2.453   5.142 -0.1473  0.2103 -0.3555
  106OSM   H16F10834   5.824   2.529   5.188  1.2011 -1.9185  1.4747
  106OSM   H16G10835   5.669   2.452   5.207  1.6563  1.7415  2.3637
  106OSM   C17F10836   5.726   2.502   4.997 -0.5771 -0.0057 -0.6137
  106OSM   H17F10837   5.673   2.418   4.947 -1.5149 -0.3350  0.8717
  106OSM   H17G10838   5.822   2.516   4.943 -0.7150  0.1734 -0.8121
  106OSM   C18F10839   5.648   2.624   4.995  0.3981 -0.0686 -0.5917
  106OSM   H18F10840   5.624   2.675   4.900  0.2627 -0.5473 -0.8184
  106OSM   H18G10841   5.700   2.708   5.047  0.3189 -0.3251 -0.0827
  106OSM   H18H10842   5.553   2.610   5.050 -0.1863  1.0318 -1.3061
  107OSM      N10843   5.992   0.541   7.454  0.1097  0.2381  0.0181
  107OSM    C1510844   6.092   0.569   7.559 -0.2730  0.0530 -0.0578
  107OSM   H15A10845   6.089   0.489   7.631 -0.3778 -0.7957 -0.9847
  107OSM   H15B10846   6.069   0.658   7.616 -0.5319  0.2108 -0.4048
  107OSM   H15C10847   6.195   0.569   7.527 -0.0139  1.5419  0.7023
  107OSM    C1410848   5.857   0.512   7.512 -0.8199  0.3764 -0.1875
  107OSM   H14A10849   5.789   0.476   7.436 -3.3404 -0.7363  2.3878
  107OSM   H14B10850   5.815   0.595   7.566 -1.2186  0.0999 -0.0701
  107OSM   H14C10851   5.850   0.440   7.593  0.7107 -0.9288 -1.1511
  107OSM    C1310852   5.986   0.662   7.363 -0.2828 -0.3276 -0.3821
  107OSM   H13A10853   5.898   0.661   7.301 -0.0718  1.7760 -0.7879
  107OSM   H13B10854   6.079   0.682   7.311 -0.1742  0.0810 -0.0378
  107OSM   H13C10855   5.987   0.755   7.417 -0.6107  0.6781 -2.0528
  107OSM    C1210856   6.036   0.422   7.368 -0.6048  0.4935  0.1808
  107OSM   H12A10857   6.040   0.332   7.427 -0.6251  0.8862  0.7895
  107OSM   H12B10858   6.136   0.433   7.329 -1.6512  2.4121 -2.2654
  107OSM    C1110859   5.950   0.403   7.231 -0.5654  0.0572  0.1858
  107OSM   H11A10860   6.003   0.326   7.171  1.2161  1.6613 -0.3883
  107OSM   H11B10861   5.963   0.500   7.179 -0.8052  0.1723  0.3349
  107OSM      P10862   5.699   0.444   7.182  0.1057  0.4209  0.4293
  107OSM    O1310863   5.583   0.367   7.221 -0.1068  0.3628 -0.1495
  107OSM    O1410864   5.691   0.586   7.220 -0.8627 -0.9692  0.2760
  107OSM    O1110865   5.735   0.438   7.027 -0.2739  0.5119  0.2498
  107OSM    O1210866   5.810   0.382   7.270  0.9127 -0.1070 -0.1918
  107OSM    C1S10867   5.755   0.311   6.958 -0.5716 -0.3567 -0.1292
  107OSM    H1S10868   5.720   0.230   7.026  2.0085  0.7586  2.7695
  107OSM    H1T10869   5.861   0.292   6.931  0.1158  1.0756  1.4271
  107OSM     NF10870   5.669   0.173   6.760  0.5325  0.8187  0.5461
  107OSM    HNF10871   5.718   0.144   6.678 -3.0512 -0.6696 -1.3392
  107OSM    C2S10872   5.685   0.308   6.818  0.2176  0.3476  0.3292
  107OSM    H2S10873   5.584   0.351   6.836 -0.2140 -1.4400  2.5647
  107OSM    C3S10874   5.753   0.410   6.727  0.5663 -0.4009  0.6809
  107OSM    H3S10875   5.853   0.366   6.704  0.5955 -1.4567  2.5999
  107OSM     O310876   5.773   0.536   6.798  0.5201 -0.2609 -0.4796
  107OSM    HO310877   5.744   0.508   6.885 -0.9070 -1.4904 -1.3131
  107OSM    C4S10878   5.689   0.435   6.594 -0.2313 -0.5715 -0.2640
  107OSM    H4S10879   5.592   0.484   6.604 -0.2633 -0.7120  0.1082
  107OSM    C5S10880   5.754   0.379   6.484 -0.1607 -0.6973 -0.0075
  107OSM    H5S10881   5.850   0.328   6.500 -0.5357 -1.3265  0.2906
  107OSM    C6S10882   5.695   0.380   6.345 -0.0988 -0.0267  0.3374
  107OSM    H6S10883   5.767   0.412   6.267 -0.0177 -0.5386  0.2001
  107OSM    H6T10884   5.602   0.440   6.333  0.6662  0.8232 -2.0009
  107OSM    C7S10885   5.648   0.234   6.323  0.7844  0.0563  0.1439
  107OSM    H7S10886   5.574   0.207   6.401 -0.3790 -1.8189 -1.5345
  107OSM    H7T10887   5.733   0.165   6.336  1.7181  1.3087  0.8919
  107OSM    C8S10888   5.569   0.199   6.200  0.0643 -0.7255  0.4449
  107OSM    H8S10889   5.490   0.273   6.176 -0.1335 -0.5350  1.6483
  107OSM    H8T10890   5.520   0.100   6.207  2.7627 -2.1559  0.4295
  107OSM    C9S10891   5.666   0.176   6.085 -0.3231  0.4957  0.2270
  107OSM    H9S10892   5.747   0.100   6.093 -1.1940 -1.0692 -3.3473
  107OSM    H9T10893   5.717   0.272   6.066  1.8775 -0.8538 -1.2024
  107OSM   C10S10894   5.603   0.144   5.948 -0.0863  0.2081 -0.3031
  107OSM   H10S10895   5.519   0.216   5.939 -0.0112  0.2572 -0.6087
  107OSM   H10T10896   5.556   0.043   5.944 -0.8907  0.5924 -0.8084
  107OSM   C11S10897   5.708   0.151   5.839 -0.3558 -0.3784 -0.0368
  107OSM   H11S10898   5.782   0.069   5.850  0.7291  0.5585 -0.0111
  107OSM   H11T10899   5.763   0.248   5.847 -0.0759 -0.3565 -1.6797
  107OSM   C12S10900   5.659   0.162   5.694 -0.1637 -1.4100 -0.3847
  107OSM   H12S10901   5.592   0.250   5.685 -0.4820 -1.3417  2.0609
  107OSM   H12T10902   5.609   0.065   5.670  0.9425 -2.1096  0.0818
  107OSM   C13S10903   5.773   0.174   5.595 -0.0632 -0.3221 -0.2997
  107OSM   H13S10904   5.830   0.079   5.584  1.4722  0.7128 -1.7485
  107OSM   H13T10905   5.847   0.240   5.645  0.8528 -2.5307  1.4641
  107OSM   C14S10906   5.734   0.232   5.459 -0.0447  0.7403 -0.0013
  107OSM   H14S10907   5.676   0.327   5.469 -0.4460  0.4401  0.5586
  107OSM   H14T10908   5.663   0.160   5.412  0.8782  0.6921 -1.3608
  107OSM   C15S10909   5.850   0.249   5.358  0.2302  0.0995 -0.0432
  107OSM   H15S10910   5.903   0.152   5.344  0.0447 -0.4416  2.4884
  107OSM   H15T10911   5.928   0.312   5.407 -0.8613  1.5289 -0.0700
  107OSM   C16S10912   5.795   0.303   5.217 -0.7459  0.5802 -0.2915
  107OSM   H16S10913   5.716   0.244   5.166  0.8527 -1.5311 -0.4315
  107OSM   H16T10914   5.886   0.290   5.155 -0.3079 -0.0678  0.4651
  107OSM   C17S10915   5.747   0.444   5.217 -0.2663 -0.5502 -0.4340
  107OSM   H17S10916   5.655   0.432   5.278  1.3264 -2.6894  1.7658
  107OSM   H17T10917   5.722   0.470   5.112 -0.0218  1.3274 -0.0679
  107OSM   C18S10918   5.845   0.543   5.287  0.2067 -0.0210 -0.3357
  107OSM   H18S10919   5.812   0.541   5.393 -0.7900  0.0688 -0.6271
  107OSM   H18T10920   5.845   0.649   5.253 -0.7856 -0.0795 -0.5699
  107OSM   H18U10921   5.950   0.509   5.289  0.8390  1.8240 -0.4793
  107OSM    C1F10922   5.607   0.073   6.830 -0.3108 -0.2408  0.3050
  107OSM     OF10923   5.525   0.115   6.917  0.8007  0.4399 -0.1944
  107OSM    C2F10924   5.643  -0.069   6.810  0.9631  0.0333  0.8448
  107OSM    H2F10925   5.667  -0.134   6.897 -3.7874 -1.7344  1.1346
  107OSM    H2G10926   5.731  -0.077   6.743  0.3486 -0.8532  0.1040
  107OSM    C3F10927   5.521  -0.135   6.731 -0.4031 -0.2448 -0.1632
  107OSM    H3F10928   5.428  -0.139   6.791 -0.0185 -0.1573  0.4501
  107OSM    H3G10929   5.543  -0.243   6.716  1.9779  0.2082 -0.3047
  107OSM    C4F10930   5.489  -0.064   6.595  0.4919 -0.2770 -0.1393
  107OSM    H4F10931   5.590  -0.057   6.549 -0.7316  0.2036 -2.8947
  107OSM    H4G10932   5.447   0.039   6.599  0.5013 -0.2970  2.5920
  107OSM    C5F10933   5.409  -0.154   6.507 -0.0074  0.2711  0.6192
  107OSM    H5F10934   5.306  -0.162   6.547 -0.3044 -0.1602 -0.2117
  107OSM    H5G10935   5.444  -0.258   6.491  0.5729  0.4396  0.7526
  107OSM    C6F10936   5.408  -0.099   6.359  0.5926  0.9304 -0.4645
  107OSM    H6F10937   5.510  -0.103   6.314  1.0955 -2.0799  0.6755
  107OSM    H6G10938   5.368   0.004   6.359 -3.2975 -0.4314  0.4527
  107OSM    C7F10939   5.313  -0.169   6.256 -0.5847 -0.0250 -0.4927
  107OSM    H7F10940   5.212  -0.184   6.299 -1.1826  4.6570  0.2742
  107OSM    H7G10941   5.367  -0.261   6.225  2.3536  1.5651 -0.4648
  107OSM    C8F10942   5.284  -0.072   6.132  0.2943 -0.5531 -0.2803
  107OSM    H8F10943   5.386  -0.047   6.096  1.8470 -3.3625  1.7503
  107OSM    H8G10944   5.233   0.019   6.171  0.0275 -0.3830 -1.0197
  107OSM    C9F10945   5.198  -0.138   6.032 -0.0212 -0.0502 -0.6385
  107OSM    H9F10946   5.100  -0.166   6.075  1.7286 -3.8759  1.3396
  107OSM   C10F10947   5.229  -0.179   5.908 -0.3789  0.2540 -0.3731
  107OSM   H10F10948   5.145  -0.224   5.852 -1.3751  1.1879  0.3159
  107OSM   C11F10949   5.365  -0.168   5.829  0.1403  0.4437 -0.0313
  107OSM   H11F10950   5.452  -0.160   5.897  1.9441  0.5189 -2.2245
  107OSM   H11G10951   5.374  -0.085   5.755  5.1727 -0.8357 -1.2485
  107OSM   C12F10952   5.393  -0.297   5.746 -0.3956  0.3024 -0.5161
  107OSM   H12F10953   5.310  -0.304   5.674  1.1185  1.1297 -2.4364
  107OSM   H12G10954   5.382  -0.383   5.816 -0.1569  0.3328 -0.4394
  107OSM   C13F10955   5.523  -0.295   5.667  0.2630 -0.4237 -0.0290
  107OSM   H13F10956   5.613  -0.295   5.732  0.2594 -0.4591 -0.0231
  107OSM   H13G10957   5.526  -0.210   5.596 -0.3885 -1.7851 -1.7767
  107OSM   C14F10958   5.534  -0.437   5.583  0.3449 -0.3469 -0.1440
  107OSM   H14F10959   5.455  -0.461   5.509 -0.1911 -1.3842  0.7478
  107OSM   H14G10960   5.518  -0.519   5.657 -0.2450  0.7881  1.0327
  107OSM   C15F10961   5.672  -0.453   5.529 -0.6010  1.6718  0.1468
  107OSM   H15F10962   5.734  -0.440   5.620  1.0958 -1.7450 -0.3602
  107OSM   H15G10963   5.698  -0.370   5.460 -1.7487  1.5871 -0.4138
  107OSM   C16F10964   5.698  -0.593   5.473 -0.2055 -0.1845  0.5318
  107OSM   H16F10965   5.651  -0.671   5.537  1.7235 -2.1550 -0.2978
  107OSM   H16G10966   5.806  -0.621   5.476  0.0085  0.6456  0.8314
  107OSM   C17F10967   5.639  -0.607   5.333  0.3717  0.4098 -0.5574
  107OSM   H17F10968   5.717  -0.555   5.274  1.3789  1.1892  1.3604
  107OSM   H17G10969   5.545  -0.548   5.318  1.5661  1.9780 -2.2650
  107OSM   C18F10970   5.610  -0.753   5.295  0.0709  0.2740 -0.5729
  107OSM   H18F10971   5.692  -0.820   5.259 -0.9422 -1.4167  0.1557
  107OSM   H18G10972   5.539  -0.757   5.209 -1.5118  0.5332  0.6794
  107OSM   H18H10973   5.566  -0.816   5.376 -0.1930 -0.1922 -1.0705
  108OSM      N10974   2.159   1.281   7.710 -0.5039  0.0481  0.0206
  108OSM    C1510975   2.126   1.193   7.828  0.1735  0.2688 -1.1854
  108OSM   H15A10976   2.036   1.137   7.808 -0.2052  1.1734 -2.0830
  108OSM   H15B10977   2.122   1.254   7.916  0.0867 -0.9248 -0.3318
  108OSM   H15C10978   2.202   1.120   7.854 -1.5731 -2.3732 -2.9280
  108OSM    C1410979   2.055   1.380   7.704  0.0819 -0.7619  0.0887
  108OSM   H14A10980   2.061   1.436   7.612  0.6676  1.0795  1.1754
  108OSM   H14B10981   2.064   1.449   7.787 -0.5745 -0.1924 -0.2974
  108OSM   H14C10982   1.960   1.332   7.716  0.3309 -1.1015  0.7350
  108OSM    C1310983   2.291   1.355   7.710 -0.4263  0.8411 -0.6038
  108OSM   H13A10984   2.302   1.426   7.790  1.3692  0.6489 -0.6237
  108OSM   H13B10985   2.310   1.406   7.617 -0.0308 -0.0803 -1.0424
  108OSM   H13C10986   2.363   1.274   7.715 -2.0587 -0.6128  0.8114
  108OSM    C1210987   2.149   1.200   7.583  0.0737 -0.0349 -0.9043
  108OSM   H12A10988   2.149   1.265   7.497  2.4999  1.3680  0.0490
  108OSM   H12B10989   2.056   1.145   7.583  1.2745 -2.2142  0.3092
  108OSM    C1110990   2.260   1.084   7.562 -0.5648 -0.4680 -0.7985
  108OSM   H11A10991   2.220   1.016   7.483  0.4342 -2.1951  0.1162
  108OSM   H11B10992   2.276   1.039   7.662  2.5331 -0.5915 -1.2421
  108OSM      P10993   2.411   1.217   7.388  0.3072 -0.1618  0.1939
  108OSM    O1310994   2.436   1.359   7.421 -0.2371  0.0616  0.2147
  108OSM    O1410995   2.518   1.155   7.306  0.3887  0.2961 -0.0395
  108OSM    O1110996   2.275   1.203   7.303 -0.2946 -0.4709 -0.4415
  108OSM    O1210997   2.386   1.133   7.524 -0.0952 -0.1264 -0.0440
  108OSM    C1S10998   2.268   1.280   7.175 -0.0121  0.3595  0.0223
  108OSM    H1S10999   2.342   1.363   7.175  1.0175 -0.4905  2.0031
  108OSM    H1T11000   2.173   1.337   7.169 -0.0507  0.4339  1.2210
  108OSM     NF11001   2.278   1.266   6.927 -0.5736 -0.5717  0.6724
  108OSM    HNF11002   2.196   1.251   6.872  0.1686 -1.4325 -0.2557
  108OSM    C2S11003   2.294   1.188   7.045  0.3354 -0.3163 -0.0225
  108OSM    H2S11004   2.401   1.162   7.060  1.1706  2.2648 -0.9097
  108OSM    C3S11005   2.197   1.062   7.046  0.1772 -0.8902  0.6173
  108OSM    H3S11006   2.098   1.108   7.026 -0.3176 -1.8471  0.7989
  108OSM     O311007   2.169   1.007   7.176 -0.1061 -0.3883 -0.1588
  108OSM    HO311008   2.202   1.064   7.246 -4.5074 -0.4319  2.3315
  108OSM    C4S11009   2.228   0.976   6.927 -0.4997 -0.0949  0.4781
  108OSM    H4S11010   2.195   1.024   6.834 -2.5209  0.3932  1.3891
  108OSM    C5S11011   2.300   0.867   6.915  0.0224  1.1414  0.3800
  108OSM    H5S11012   2.357   0.829   7.001  0.8953 -1.4318 -1.2204
  108OSM    C6S11013   2.340   0.799   6.782  0.4020  0.4256  0.2061
  108OSM    H6S11014   2.447   0.769   6.789  0.1388 -0.9115 -1.0409
  108OSM    H6T11015   2.351   0.873   6.700  0.1043 -0.7549 -0.9339
  108OSM    C7S11016   2.252   0.679   6.761 -0.0919  0.1489 -0.6652
  108OSM    H7S11017   2.153   0.722   6.733 -1.2443 -1.7489  0.2362
  108OSM    H7T11018   2.241   0.625   6.857  1.4924 -0.9978 -1.0782
  108OSM    C8S11019   2.307   0.591   6.645  0.2251 -0.5316 -0.2992
  108OSM    H8S11020   2.219   0.526   6.625 -2.2049  2.4502  0.0637
  108OSM    H8T11021   2.389   0.521   6.674 -0.1040 -1.0038 -0.4934
  108OSM    C9S11022   2.348   0.664   6.514  0.1456  0.0756  0.5298
  108OSM    H9S11023   2.435   0.724   6.546  0.9028  0.1216 -1.4905
  108OSM    H9T11024   2.263   0.732   6.490 -1.0329 -1.3871  0.4130
  108OSM   C10S11025   2.365   0.580   6.396 -0.3331  0.1761 -0.0331
  108OSM   H10S11026   2.269   0.531   6.371 -0.6912  1.1638 -0.6428
  108OSM   H10T11027   2.445   0.505   6.418 -0.3578  0.5964  1.6480
  108OSM   C11S11028   2.415   0.648   6.268  0.0872  0.6497  1.2652
  108OSM   H11S11029   2.525   0.661   6.264 -0.0692  2.0456  0.9148
  108OSM   H11T11030   2.367   0.748   6.256  1.9961  1.5718  0.9082
  108OSM   C12S11031   2.369   0.570   6.141  0.0396 -0.3542 -0.9014
  108OSM   H12S11032   2.258   0.575   6.135  0.0650  1.3893 -0.4633
  108OSM   H12T11033   2.382   0.461   6.155  1.2068  0.0121  1.0992
  108OSM   C13S11034   2.442   0.611   6.018  0.0742 -0.5614 -0.2551
  108OSM   H13S11035   2.549   0.601   6.046  0.3221  2.2736  0.0605
  108OSM   H13T11036   2.427   0.720   6.005 -1.1459 -0.8966 -1.9748
  108OSM   C14S11037   2.385   0.545   5.895  0.4137  0.0551  0.8933
  108OSM   H14S11038   2.280   0.570   5.867  0.5547 -3.2398 -3.7013
  108OSM   H14T11039   2.390   0.437   5.917  1.0996  0.1527  1.2313
  108OSM   C15S11040   2.474   0.569   5.772 -0.1856 -0.2206 -0.7625
  108OSM   H15S11041   2.577   0.568   5.814 -0.5471 -0.1285  0.1602
  108OSM   H15T11042   2.455   0.663   5.717  0.2609  0.3483  0.0278
  108OSM   C16S11043   2.462   0.470   5.656  0.0666  0.1091 -0.2652
  108OSM   H16S11044   2.352   0.464   5.643 -0.2058 -1.5386  2.2069
  108OSM   H16T11045   2.499   0.371   5.690  0.8822  1.1681  2.1327
  108OSM   C17S11046   2.522   0.517   5.524 -0.6010  0.0081  0.2652
  108OSM   H17S11047   2.630   0.494   5.512 -0.4450  0.4564  0.8205
  108OSM   H17T11048   2.517   0.627   5.517 -3.4357 -0.1108 -1.2453
  108OSM   C18S11049   2.455   0.458   5.404 -0.6035  0.0298 -0.0163
  108OSM   H18S11050   2.515   0.492   5.318  0.9103 -0.1494  0.9295
  108OSM   H18T11051   2.351   0.493   5.390  0.5085  2.8882 -1.9752
  108OSM   H18U11052   2.463   0.347   5.410  0.1045  0.1184  1.0024
  108OSM    C1F11053   2.361   1.369   6.895 -0.4726 -0.4385 -0.0445
  108OSM     OF11054   2.467   1.388   6.953  0.4784 -0.4695  0.0802
  108OSM    C2F11055   2.333   1.456   6.776  0.8740  0.2245 -0.2118
  108OSM    H2F11056   2.347   1.565   6.796 -1.6991  0.8457 -1.3364
  108OSM    H2G11057   2.225   1.449   6.752  1.0028 -0.7618 -0.5357
  108OSM    C3F11058   2.419   1.413   6.655 -0.1257  0.1941 -1.2620
  108OSM    H3F11059   2.378   1.312   6.634 -0.8733  0.3257 -0.5062
  108OSM    H3G11060   2.527   1.405   6.679 -0.2775  2.3633  0.5670
  108OSM    C4F11061   2.417   1.503   6.534 -0.1779  0.1738 -0.3521
  108OSM    H4F11062   2.485   1.461   6.456 -0.5123 -1.4346  0.1854
  108OSM    H4G11063   2.459   1.605   6.550  2.5430 -1.2005  2.2690
  108OSM    C5F11064   2.281   1.511   6.458 -0.2262  0.1202  0.4912
  108OSM    H5F11065   2.202   1.552   6.524 -2.3499 -1.4860 -0.9026
  108OSM    H5G11066   2.252   1.406   6.436  1.6109 -0.2335 -0.4452
  108OSM    C6F11067   2.306   1.604   6.340 -0.5245  0.1170 -0.3545
  108OSM    H6F11068   2.381   1.559   6.272 -2.7727 -1.3375 -2.0033
  108OSM    H6G11069   2.336   1.699   6.390  1.3333 -0.9393  0.6593
  108OSM    C7F11070   2.192   1.635   6.246  0.1892 -0.0020  0.3717
  108OSM    H7F11071   2.101   1.652   6.307 -1.6292 -1.6131 -1.7314
  108OSM    H7G11072   2.179   1.559   6.166  2.0642  2.7532 -2.8269
  108OSM    C8F11073   2.208   1.765   6.168  0.1157  0.1271  0.4499
  108OSM    H8F11074   2.228   1.845   6.243  0.5570 -0.8078  1.3423
  108OSM    H8G11075   2.112   1.797   6.124  0.0147 -0.3512  0.3237
  108OSM    C9F11076   2.320   1.753   6.072 -0.4911  0.0618  0.7260
  108OSM    H9F11077   2.423   1.753   6.111  0.5205  1.7929 -1.6923
  108OSM   C10F11078   2.320   1.733   5.944  0.0901  0.4252 -0.4447
  108OSM   H10F11079   2.415   1.720   5.890  1.4215  1.6053  1.4767
  108OSM   C11F11080   2.199   1.718   5.851  0.0404 -0.4382 -0.0127
  108OSM   H11F11081   2.194   1.800   5.777  0.8588 -0.8964 -0.5917
  108OSM   H11G11082   2.104   1.701   5.907  0.2772 -1.8843 -0.0130
  108OSM   C12F11083   2.208   1.584   5.779  0.2119  0.2032  0.3546
  108OSM   H12F11084   2.221   1.507   5.858  0.5788 -0.5802 -0.4427
  108OSM   H12G11085   2.296   1.575   5.711 -0.2380  0.7080 -0.2999
  108OSM   C13F11086   2.080   1.554   5.704 -0.3863  0.5624 -0.4607
  108OSM   H13F11087   2.001   1.553   5.783  0.8700 -0.1612  0.8421
  108OSM   H13G11088   2.085   1.449   5.668 -2.0134 -1.3156  4.0437
  108OSM   C14F11089   2.042   1.641   5.583 -0.4116 -0.7551  0.5416
  108OSM   H14F11090   2.130   1.676   5.524 -1.2802  1.8420  0.6762
  108OSM   H14G11091   2.017   1.741   5.623  0.1652 -1.2546  2.2360
  108OSM   C15F11092   1.938   1.579   5.485  0.3305  0.5555 -0.7302
  108OSM   H15F11093   1.965   1.479   5.444  0.0516 -0.4185  1.3589
  108OSM   H15G11094   1.912   1.646   5.400 -0.5386 -0.3093 -1.1653
  108OSM   C16F11095   1.805   1.558   5.562 -0.0559 -0.2064  0.0461
  108OSM   H16F11096   1.807   1.632   5.645  1.7334  0.8398 -0.8642
  108OSM   H16G11097   1.791   1.458   5.608 -2.3708 -0.1478 -0.4256
  108OSM   C17F11098   1.680   1.575   5.475  0.4712 -0.0549 -0.3880
  108OSM   H17F11099   1.664   1.495   5.399 -3.8021 -0.3324  0.5405
  108OSM   H17G11100   1.684   1.679   5.437  1.7012 -0.8589 -2.6426
  108OSM   C18F11101   1.549   1.559   5.551 -0.4798  0.9185  0.0181
  108OSM   H18F11102   1.464   1.564   5.480 -0.2076  0.5335 -0.3392
  108OSM   H18G11103   1.526   1.640   5.625  0.3311  0.4454  0.8149
  108OSM   H18H11104   1.538   1.469   5.616 -0.9493  0.5983 -0.5036
  109OSM      N11105   5.561   2.646   7.026 -0.3372  0.6750  0.2545
  109OSM    C1511106   5.458   2.758   7.042 -0.5031 -0.5619  0.3606
  109OSM   H15A11107   5.397   2.740   7.129  1.5321  0.6122  2.1438
  109OSM   H15B11108   5.399   2.770   6.953 -3.2729 -0.2062  2.1038
  109OSM   H15C11109   5.514   2.848   7.063  2.2344 -1.6590 -1.5547
  109OSM    C1411110   5.681   2.696   6.957 -0.0537  0.7599  0.6056
  109OSM   H14A11111   5.647   2.714   6.856  0.6053  2.3180  0.6243
  109OSM   H14B11112   5.770   2.635   6.952 -1.2586 -0.9909 -1.4262
  109OSM   H14C11113   5.709   2.786   7.008  0.3603  0.5003  0.8386
  109OSM    C1311114   5.598   2.599   7.160 -0.5810 -0.4705 -0.1224
  109OSM   H13A11115   5.650   2.505   7.167  0.5568  0.2196  1.1827
  109OSM   H13B11116   5.518   2.581   7.230 -0.4691  0.0303  0.1405
  109OSM   H13C11117   5.670   2.666   7.205  0.7892 -0.6611 -1.9414
  109OSM    C1211118   5.494   2.529   6.951  0.1154  0.1033 -0.5599
  109OSM   H12A11119   5.400   2.510   7.001  1.5323 -1.0149  1.9073
  109OSM   H12B11120   5.558   2.445   6.975  0.8998  0.9239  0.2904
  109OSM    C1111121   5.471   2.538   6.796  0.2042  0.1884  1.0968
  109OSM   H11A11122   5.435   2.442   6.755 -2.3143  1.2475  0.6130
  109OSM   H11B11123   5.575   2.552   6.760 -0.2063  2.2805  0.5841
  109OSM      P11124   5.220   2.609   6.775  0.3698 -0.3708  0.2562
  109OSM    O1311125   5.183   2.624   6.917 -0.1467  0.0417  0.6412
  109OSM    O1411126   5.149   2.683   6.669  0.0760 -0.1063 -0.2131
  109OSM    O1111127   5.205   2.451   6.738 -0.8938  0.2259  0.0488
  109OSM    O1211128   5.377   2.638   6.757 -0.3083 -0.5649 -0.3076
  109OSM    C1S11129   5.206   2.397   6.607 -0.9601 -0.2091 -0.3455
  109OSM    H1S11130   5.302   2.342   6.599  1.3540  2.5332  4.2033
  109OSM    H1T11131   5.206   2.473   6.526  2.5362  2.3361  1.7516
  109OSM     NF11132   5.084   2.251   6.448  0.3203 -0.1002  0.3565
  109OSM    HNF11133   4.999   2.270   6.399  0.7848  1.7641  0.2234
  109OSM    C2S11134   5.085   2.302   6.587  0.2228  0.3782 -0.0470
  109OSM    H2S11135   5.091   2.209   6.646  0.5710 -1.1091 -2.3078
  109OSM    C3S11136   4.952   2.376   6.626  0.6406 -0.2111  0.5125
  109OSM    H3S11137   4.944   2.478   6.582 -2.0503  0.0590  1.4273
  109OSM     O311138   4.930   2.398   6.766 -0.4084  0.2627  0.3310
  109OSM    HO311139   5.006   2.362   6.813  0.3979  1.4601 -0.0077
  109OSM    C4S11140   4.837   2.295   6.582  0.1488  0.1367  0.3163
  109OSM    H4S11141   4.812   2.316   6.477  0.1487  0.8333  0.4505
  109OSM    C5S11142   4.764   2.207   6.651 -0.1111 -0.1274  0.6790
  109OSM    H5S11143   4.794   2.187   6.755  0.7465 -0.0340  0.4562
  109OSM    C6S11144   4.645   2.134   6.609  0.6199  0.3078  0.0813
  109OSM    H6S11145   4.558   2.165   6.670 -0.6982 -2.1258 -0.4305
  109OSM    H6T11146   4.652   2.026   6.634  1.9699  0.2302 -0.5272
  109OSM    C7S11147   4.602   2.128   6.460 -0.7164 -0.7090 -0.6415
  109OSM    H7S11148   4.600   2.230   6.415 -1.8343 -1.1087 -1.5501
  109OSM    H7T11149   4.496   2.095   6.454 -1.4624  0.6807  2.6014
  109OSM    C8S11150   4.686   2.037   6.367 -0.4537  0.4205 -0.1590
  109OSM    H8S11151   4.688   1.932   6.403  1.1118  0.4123 -0.1870
  109OSM    H8T11152   4.794   2.063   6.376 -1.0423  3.0385  0.2578
  109OSM    C9S11153   4.642   2.028   6.220 -0.2163 -0.0691  0.1720
  109OSM    H9S11154   4.633   2.132   6.183 -2.5434 -0.3182 -0.1214
  109OSM    H9T11155   4.539   1.986   6.216 -0.2850  0.2118 -2.4082
  109OSM   C10S11156   4.736   1.938   6.133  0.2368 -0.6246  0.9262
  109OSM   H10S11157   4.747   1.839   6.182 -4.3323 -1.3950  0.8381
  109OSM   H10T11158   4.830   1.994   6.115 -0.7396  0.1997 -2.3018
  109OSM   C11S11159   4.680   1.909   5.988  0.4659 -0.3198 -0.0096
  109OSM   H11S11160   4.651   2.005   5.941 -0.4657 -1.3333 -1.6128
  109OSM   H11T11161   4.588   1.850   6.006 -0.1068  1.1370  2.2196
  109OSM   C12S11162   4.776   1.850   5.884  0.3222  0.3814 -0.2863
  109OSM   H12S11163   4.794   1.752   5.933  0.6282  1.6942  2.4311
  109OSM   H12T11164   4.871   1.907   5.894  0.4595 -0.0288  1.0082
  109OSM   C13S11165   4.721   1.830   5.748  0.4732 -0.3289 -0.8585
  109OSM   H13S11166   4.801   1.811   5.674 -1.4112 -0.8725 -2.8453
  109OSM   H13T11167   4.671   1.927   5.725 -1.8506 -0.3478  3.1766
  109OSM   C14S11168   4.620   1.718   5.741  0.2826  0.5018  0.8743
  109OSM   H14S11169   4.536   1.732   5.812 -0.4815  1.5128 -0.1987
  109OSM   H14T11170   4.664   1.623   5.779 -0.0134  0.8712  2.1744
  109OSM   C15S11171   4.555   1.686   5.599 -0.4169  0.1970  0.6598
  109OSM   H15S11172   4.625   1.655   5.518 -1.8768 -0.7147 -0.2902
  109OSM   H15T11173   4.512   1.777   5.552  1.3493  1.2509  0.9751
  109OSM   C16S11174   4.442   1.588   5.608  0.0469  0.2581 -0.6788
  109OSM   H16S11175   4.388   1.647   5.685  2.3111  2.2220 -0.4715
  109OSM   H16T11176   4.473   1.493   5.658 -0.0824 -0.0650 -1.2105
  109OSM   C17S11177   4.377   1.568   5.473  0.3457 -0.3495 -0.5721
  109OSM   H17S11178   4.442   1.581   5.383  0.3845  1.8559 -0.2705
  109OSM   H17T11179   4.308   1.654   5.470  2.0737  1.2872  2.1457
  109OSM   C18S11180   4.297   1.435   5.461 -0.3252 -0.1443 -0.4698
  109OSM   H18S11181   4.372   1.354   5.476 -0.2458  0.1954  1.2002
  109OSM   H18T11182   4.240   1.423   5.366 -2.5455  1.3755  0.5624
  109OSM   H18U11183   4.230   1.433   5.550 -0.7437  1.5218 -0.7232
  109OSM    C1F11184   5.179   2.175   6.396 -0.3515 -0.6900 -0.0849
  109OSM     OF11185   5.272   2.134   6.460 -0.1096 -0.0210 -0.4508
  109OSM    C2F11186   5.158   2.121   6.258  0.1030  0.2949 -0.3588
  109OSM    H2F11187   5.198   2.204   6.196  1.5116 -0.2709 -0.2418
  109OSM    H2G11188   5.050   2.101   6.241  0.0255  1.3088 -1.1390
  109OSM    C3F11189   5.225   1.974   6.246  0.8189  0.2806 -0.4500
  109OSM    H3F11190   5.186   1.929   6.339 -1.4650  0.6136 -1.1640
  109OSM    H3G11191   5.334   1.980   6.265  0.5753 -0.1838  1.2231
  109OSM    C4F11192   5.178   1.903   6.123 -0.3785  0.5119  0.4201
  109OSM    H4F11193   5.067   1.899   6.115 -0.3262 -1.0153  0.1287
  109OSM    H4G11194   5.198   1.794   6.129 -0.5440  0.4385 -0.2798
  109OSM    C5F11195   5.250   1.952   5.994 -0.8984  0.4783 -1.1578
  109OSM    H5F11196   5.357   1.923   6.000 -1.7735 -2.7641  1.4900
  109OSM    H5G11197   5.218   2.058   5.990  0.3473  0.8496 -2.3152
  109OSM    C6F11198   5.183   1.887   5.868  0.3672  0.6039 -0.4916
  109OSM    H6F11199   5.072   1.887   5.867  0.1486 -0.6872  3.8396
  109OSM    H6G11200   5.199   1.777   5.875 -0.4451  0.4896 -0.2911
  109OSM    C7F11201   5.250   1.948   5.745 -0.1353 -0.3780  0.0875
  109OSM    H7F11202   5.326   1.884   5.696 -1.7322  0.0892 -3.3617
  109OSM    H7G11203   5.297   2.044   5.773 -0.0621 -0.5237  0.4642
  109OSM    C8F11204   5.145   1.980   5.628  0.5762 -0.4032 -0.1129
  109OSM    H8F11205   5.197   2.032   5.545  0.7188  2.7076  1.7908
  109OSM    H8G11206   5.080   2.064   5.662  0.1631 -0.2771 -1.1692
  109OSM    C9F11207   5.064   1.870   5.567  0.3725 -0.3645  0.1791
  109OSM    H9F11208   5.024   1.799   5.642  0.9587 -1.0934 -0.1758
  109OSM   C10F11209   5.039   1.845   5.439 -0.2630 -0.5943  0.1332
  109OSM   H10F11210   4.971   1.760   5.419  0.8470 -1.1428 -1.5077
  109OSM   C11F11211   5.084   1.924   5.315 -0.7292 -0.5473 -1.3222
  109OSM   H11F11212   5.106   2.029   5.343 -2.4389  0.0480 -2.0480
  109OSM   H11G11213   5.007   1.940   5.236  0.1878 -1.7929 -2.5190
  109OSM   C12F11214   5.194   1.854   5.252 -0.3100 -0.0668  0.1445
  109OSM   H12F11215   5.261   1.808   5.327 -1.0059 -1.3099  0.0283
  109OSM   H12G11216   5.251   1.936   5.204 -0.7275  1.5564  2.3078
  109OSM   C13F11217   5.153   1.744   5.148  0.6685 -0.3653  0.1478
  109OSM   H13F11218   5.099   1.807   5.074 -2.5002 -1.1589  1.6198
  109OSM   H13G11219   5.090   1.672   5.204 -0.8780  1.8480  1.4321
  109OSM   C14F11220   5.267   1.668   5.078 -0.4730  0.3813  0.1440
  109OSM   H14F11221   5.311   1.599   5.153 -1.1161  0.1014  0.2703
  109OSM   H14G11222   5.344   1.745   5.053 -0.3980  0.3803  0.3670
  109OSM   C15F11223   5.236   1.575   4.966 -0.0892 -0.4658 -0.5025
  109OSM   H15F11224   5.176   1.486   4.997 -1.0186  0.9560  2.0532
  109OSM   H15G11225   5.332   1.541   4.920  0.0538  1.5994 -1.8558
  109OSM   C16F11226   5.160   1.637   4.844  0.3129  0.5972  0.2339
  109OSM   H16F11227   5.210   1.732   4.815  0.8238  0.0845 -0.6303
  109OSM   H16G11228   5.052   1.659   4.860 -0.2444 -1.3770 -0.5235
  109OSM   C17F11229   5.173   1.540   4.728 -0.4647  0.2724  0.1482
  109OSM   H17F11230   5.149   1.436   4.758  0.0299  0.4388  1.1314
  109OSM   H17G11231   5.275   1.548   4.684 -0.3804  0.6355  0.4114
  109OSM   C18F11232   5.078   1.602   4.625  0.4076  0.1170  0.6545
  109OSM   H18F11233   4.978   1.629   4.668  1.1423 -1.7611  3.8450
  109OSM   H18G11234   5.060   1.536   4.538 -0.8018  1.3294 -0.0655
  109OSM   H18H11235   5.120   1.700   4.594 -1.4497  1.2689  1.5669
  110OSM      N11236   6.282   6.352   7.242  0.1583 -0.1333 -0.0372
  110OSM    C1511237   6.199   6.462   7.312 -0.1003  0.0959  0.1946
  110OSM   H15A11238   6.264   6.548   7.321  1.4250 -0.9445 -0.4084
  110OSM   H15B11239   6.152   6.430   7.404 -1.0107 -0.3345 -0.4136
  110OSM   H15C11240   6.117   6.495   7.251  0.2309  0.6318  0.0294
  110OSM    C1411241   6.203   6.223   7.242 -0.5423  0.0156  0.8263
  110OSM   H14A11242   6.128   6.213   7.319 -2.1397  2.1479 -0.3293
  110OSM   H14B11243   6.270   6.145   7.275 -0.3494 -0.7472 -1.2284
  110OSM   H14C11244   6.161   6.193   7.147 -0.5841  0.4435  0.7087
  110OSM    C1311245   6.305   6.391   7.096 -0.5821  0.0463 -0.8168
  110OSM   H13A11246   6.218   6.432   7.048 -0.1669 -1.0261 -2.5875
  110OSM   H13B11247   6.348   6.306   7.046 -0.5944  0.0676 -0.8638
  110OSM   H13C11248   6.380   6.469   7.094 -1.0783  0.5598 -0.0459
  110OSM    C1211249   6.416   6.340   7.314 -0.2174  0.6788 -0.1879
  110OSM   H12A11250   6.483   6.292   7.245  0.0957  2.0312 -0.8638
  110OSM   H12B11251   6.394   6.282   7.402 -4.0488 -1.2443 -2.2085
  110OSM    C1111252   6.495   6.474   7.336 -0.3099 -0.9070  0.3042
  110OSM   H11A11253   6.579   6.461   7.407  0.5887  0.2294 -0.5119
  110OSM   H11B11254   6.431   6.545   7.392  0.5916  0.7482 -0.6672
  110OSM      P11255   6.669   6.528   7.146 -0.2173 -0.1890  0.0681
  110OSM    O1311256   6.759   6.628   7.218  0.2787 -0.2414 -0.0862
  110OSM    O1411257   6.716   6.391   7.147 -0.8282 -0.3030  0.2699
  110OSM    O1111258   6.648   6.581   7.002 -0.3547 -0.0269  0.2794
  110OSM    O1211259   6.533   6.540   7.209  0.4895  0.1191 -0.0331
  110OSM    C1S11260   6.561   6.678   6.953 -0.1625 -0.1930 -1.1688
  110OSM    H1S11261   6.612   6.774   6.974  0.3408 -0.5564 -0.7117
  110OSM    H1T11262   6.462   6.673   7.003  0.6794 -0.7136  0.5126
  110OSM     NF11263   6.473   6.799   6.753  0.1172  0.0825  0.3193
  110OSM    HNF11264   6.377   6.792   6.727  0.1884 -0.7504  0.2620
  110OSM    C2S11265   6.539   6.674   6.800 -0.4571  0.1896 -0.1322
  110OSM    H2S11266   6.632   6.671   6.740 -0.3599 -0.0869  0.0291
  110OSM    C3S11267   6.462   6.546   6.766  0.2854  0.6585 -0.5632
  110OSM    H3S11268   6.357   6.561   6.797  0.1847  2.6693 -1.6638
  110OSM     O311269   6.490   6.429   6.837 -0.5897  1.0486 -0.6767
  110OSM    HO311270   6.538   6.478   6.904  2.3333 -0.4933 -1.4483
  110OSM    C4S11271   6.465   6.516   6.619 -0.2582  0.9859  0.2921
  110OSM    H4S11272   6.561   6.482   6.579 -1.7434  0.3035 -3.0532
  110OSM    C5S11273   6.359   6.510   6.534 -0.4752 -0.3063  0.7264
  110OSM    H5S11274   6.261   6.539   6.574  0.0689 -0.0782  1.9374
  110OSM    C6S11275   6.376   6.479   6.384 -0.0260 -0.1378 -0.4126
  110OSM    H6S11276   6.291   6.426   6.337  1.1446 -2.4734 -0.0292
  110OSM    H6T11277   6.459   6.405   6.376  0.9693  1.0282 -1.1856
  110OSM    C7S11278   6.403   6.597   6.286 -0.3794  0.0224  0.3466
  110OSM    H7S11279   6.482   6.664   6.326 -0.9703  0.2682  1.1220
  110OSM    H7T11280   6.311   6.659   6.288 -1.2107 -1.1467 -0.1727
  110OSM    C8S11281   6.427   6.562   6.139  0.1785  1.1228  0.1928
  110OSM    H8S11282   6.355   6.483   6.111  0.8666  1.2762 -2.2897
  110OSM    H8T11283   6.527   6.515   6.124 -1.2130 -1.2953 -2.4160
  110OSM    C9S11284   6.418   6.667   6.028 -0.4465 -0.7355 -0.4630
  110OSM    H9S11285   6.502   6.740   6.030 -0.3842 -0.8040  1.5299
  110OSM    H9T11286   6.328   6.728   6.050 -0.4291 -1.2184  1.0528
  110OSM   C10S11287   6.418   6.603   5.892 -0.7971  0.0365 -0.2539
  110OSM   H10S11288   6.340   6.526   5.879  0.9492 -1.7436 -0.6615
  110OSM   H10T11289   6.517   6.554   5.877 -0.1749  1.7375 -2.2880
  110OSM   C11S11290   6.412   6.705   5.769  0.0425 -0.0285  0.3399
  110OSM   H11S11291   6.498   6.773   5.787 -0.8102  0.7522  1.6268
  110OSM   H11T11292   6.313   6.752   5.788 -0.1537 -1.1261  2.2785
  110OSM   C12S11293   6.431   6.640   5.636  0.2406 -0.1377  0.1651
  110OSM   H12S11294   6.356   6.563   5.608  1.2137 -1.0251 -0.0452
  110OSM   H12T11295   6.527   6.586   5.634  0.9867  1.1535 -0.4103
  110OSM   C13S11296   6.448   6.750   5.521 -0.6121  0.6796 -0.3033
  110OSM   H13S11297   6.533   6.812   5.557 -0.3409 -0.0210  0.2877
  110OSM   H13T11298   6.360   6.817   5.517  0.1686  1.7143 -0.5934
  110OSM   C14S11299   6.477   6.688   5.383  0.2251 -0.2252 -0.0618
  110OSM   H14S11300   6.573   6.634   5.393  0.2836  0.1121  1.4137
  110OSM   H14T11301   6.498   6.781   5.326  0.6992  0.0528  0.5627
  110OSM   C15S11302   6.365   6.596   5.321 -0.2972 -1.1073 -0.1625
  110OSM   H15S11303   6.266   6.645   5.315 -0.5030 -1.5205 -0.1744
  110OSM   H15T11304   6.338   6.520   5.397 -0.3695 -1.3550 -0.4340
  110OSM   C16S11305   6.394   6.545   5.175  0.0969 -0.2354 -0.7848
  110OSM   H16S11306   6.316   6.469   5.153 -1.3297  0.6046  1.1270
  110OSM   H16T11307   6.491   6.491   5.181  0.4938  0.6129  2.5538
  110OSM   C17S11308   6.399   6.656   5.067 -0.6601 -0.9854  0.6740
  110OSM   H17S11309   6.468   6.735   5.103 -0.5724  1.2073 -3.6394
  110OSM   H17T11310   6.297   6.694   5.047 -0.8139 -1.0771  1.2920
  110OSM   C18S11311   6.456   6.612   4.934 -0.6168 -0.4846  0.0063
  110OSM   H18S11312   6.420   6.509   4.911 -0.7297  0.1772 -3.2190
  110OSM   H18T11313   6.566   6.618   4.922 -0.2533  2.6293  3.2331
  110OSM   H18U11314   6.420   6.682   4.856  0.0933  0.6147  0.6463
  110OSM    C1F11315   6.541   6.913   6.749  0.2481 -0.1413  0.6992
  110OSM     OF11316   6.658   6.916   6.798  0.5574  0.4899  0.5141
  110OSM    C2F11317   6.474   7.031   6.685  0.4278  0.5804  0.1399
  110OSM    H2F11318   6.416   7.088   6.761 -1.3413  0.5506 -1.1082
  110OSM    H2G11319   6.390   6.990   6.624  0.9136  1.9363 -1.4998
  110OSM    C3F11320   6.571   7.119   6.602 -0.2040 -0.6040 -0.2014
  110OSM    H3F11321   6.662   7.146   6.658  0.1358  1.5909 -1.7027
  110OSM    H3G11322   6.519   7.216   6.588  1.2784  0.0248 -1.6097
  110OSM    C4F11323   6.611   7.065   6.458  0.1074 -0.1644  0.2705
  110OSM    H4F11324   6.684   6.982   6.460  1.1887  0.6909 -1.3189
  110OSM    H4G11325   6.672   7.145   6.409  1.5097 -0.9056  0.7620
  110OSM    C5F11326   6.491   7.025   6.368  1.1665  0.4097  0.2717
  110OSM    H5F11327   6.398   7.039   6.428  1.4152  2.8389  0.1836
  110OSM    H5G11328   6.480   6.914   6.372 -3.0979  0.6966  1.0176
  110OSM    C6F11329   6.482   7.080   6.225  0.1847  0.0976 -0.0546
  110OSM    H6F11330   6.573   7.054   6.167 -0.8323 -0.2098 -1.5637
  110OSM    H6G11331   6.486   7.191   6.234  0.8588  0.0762 -0.0531
  110OSM    C7F11332   6.352   7.036   6.161  0.4572  1.4844  0.6218
  110OSM    H7F11333   6.270   7.055   6.234 -0.6230 -2.5888  0.6919
  110OSM    H7G11334   6.350   6.925   6.158  0.3104  1.5132 -0.8026
  110OSM    C8F11335   6.322   7.090   6.020  0.2508 -0.2210 -0.3275
  110OSM    H8F11336   6.399   7.082   5.941 -0.5089  2.7023 -1.5060
  110OSM    H8G11337   6.303   7.199   6.033 -2.1925 -0.4153 -1.6335
  110OSM    C9F11338   6.185   7.037   5.978  0.7616  0.6085 -0.9548
  110OSM    H9F11339   6.118   7.042   6.065  0.1246 -0.7236 -1.3412
  110OSM   C10F11340   6.129   6.994   5.860  0.3633  0.7180  0.5533
  110OSM   H10F11341   6.025   6.958   5.858  0.4033  0.5564  1.0843
  110OSM   C11F11342   6.201   6.991   5.726 -0.4606  0.0238  0.4828
  110OSM   H11F11343   6.147   6.922   5.657 -0.3983  1.3632 -0.9540
  110OSM   H11G11344   6.302   6.951   5.747  0.0712  1.3921  0.5807
  110OSM   C12F11345   6.204   7.123   5.656  0.6477 -0.1945 -0.0204
  110OSM   H12F11346   6.248   7.203   5.720 -1.3967  1.2763 -0.3795
  110OSM   H12G11347   6.101   7.158   5.638  0.4095 -0.4513  0.7963
  110OSM   C13F11348   6.282   7.120   5.526  0.2085 -0.8258 -0.0692
  110OSM   H13F11349   6.375   7.062   5.545  1.8200  1.1025 -1.5938
  110OSM   H13G11350   6.320   7.221   5.498 -1.1648 -0.1297  0.4884
  110OSM   C14F11351   6.203   7.065   5.404 -0.5511  0.9100  0.4304
  110OSM   H14F11352   6.119   7.135   5.382 -1.2341  0.0910  0.3914
  110OSM   H14G11353   6.171   6.961   5.425  2.9731 -0.4242 -0.1801
  110OSM   C15F11354   6.292   7.050   5.275  0.1807  0.6120  0.2105
  110OSM   H15F11355   6.358   6.963   5.294 -1.7829 -0.5137  2.2211
  110OSM   H15G11356   6.355   7.139   5.252  0.4880  0.0832 -1.0649
  110OSM   C16F11357   6.215   7.011   5.144  0.6967 -0.4406  0.5393
  110OSM   H16F11358   6.130   7.082   5.130  1.1466 -0.1494 -0.8356
  110OSM   H16G11359   6.185   6.905   5.160 -1.2046 -0.1187 -0.6137
  110OSM   C17F11360   6.294   7.014   5.015  0.8094  0.5442 -0.2136
  110OSM   H17F11361   6.385   6.951   5.034  1.2747  1.1283 -0.4756
  110OSM   H17G11362   6.336   7.116   5.007  2.9721 -0.2457  0.1810
  110OSM   C18F11363   6.211   6.980   4.891  0.4454 -0.1590 -1.4465
  110OSM   H18F11364   6.266   6.922   4.815 -0.6918 -1.9447 -0.9649
  110OSM   H18G11365   6.151   7.070   4.864  1.0642  1.5883  2.3377
  110OSM   H18H11366   6.133   6.915   4.937  1.4513  0.4407  1.3318
  111OSM      N11367   2.345   5.842   7.612  0.5629  0.0062 -0.2458
  111OSM    C1511368   2.493   5.871   7.654 -0.5029  0.5817  0.0477
  111OSM   H15A11369   2.567   5.825   7.590  0.8865 -1.7661  3.0955
  111OSM   H15B11370   2.521   5.832   7.751 -0.7999 -1.2900 -0.5788
  111OSM   H15C11371   2.518   5.976   7.658 -1.0340  0.6978  0.5403
  111OSM    C1411372   2.306   5.695   7.630 -0.0874  0.0527 -0.1378
  111OSM   H14A11373   2.200   5.687   7.652  0.3701  2.5192  3.7480
  111OSM   H14B11374   2.360   5.652   7.713  1.7723  0.2840 -1.1866
  111OSM   H14C11375   2.326   5.639   7.539 -0.1308 -0.8316  0.3854
  111OSM    C1311376   2.261   5.926   7.703  0.1879 -0.0758  0.6678
  111OSM   H13A11377   2.155   5.913   7.682  0.6202 -3.5897  0.0458
  111OSM   H13B11378   2.291   6.028   7.684 -0.0295  0.1138  1.2932
  111OSM   H13C11379   2.271   5.900   7.807  1.5856 -0.5307  0.4328
  111OSM    C1211380   2.321   5.884   7.470 -0.0957 -0.1439 -0.3580
  111OSM   H12A11381   2.280   5.984   7.465  0.3312 -0.0288 -2.5033
  111OSM   H12B11382   2.244   5.828   7.419 -0.3703  2.9471 -3.7736
  111OSM    C1111383   2.441   5.877   7.371  0.2091  0.0348  0.1376
  111OSM   H11A11384   2.516   5.954   7.400  1.4607 -0.7337 -0.9780
  111OSM   H11B11385   2.417   5.916   7.270  0.6660  1.8422  0.6864
  111OSM      P11386   2.450   5.639   7.261 -0.0248 -0.2800 -0.3986
  111OSM    O1311387   2.517   5.511   7.281 -0.8999 -0.4036 -0.0530
  111OSM    O1411388   2.301   5.641   7.255 -0.4108  0.9756  0.1131
  111OSM    O1111389   2.488   5.698   7.123 -0.0728  0.1116 -0.0829
  111OSM    O1211390   2.502   5.748   7.374 -0.4071  0.7838  0.2077
  111OSM    C1S11391   2.512   5.619   7.009  0.2592 -0.6538  0.0660
  111OSM    H1S11392   2.430   5.544   6.998 -2.7368  2.5908 -1.7271
  111OSM    H1T11393   2.614   5.576   7.009  0.8179  0.6436  0.9021
  111OSM     NF11394   2.501   5.624   6.749 -0.6509  0.1056  0.1114
  111OSM    HNF11395   2.588   5.604   6.705  0.1273 -2.3892  2.4820
  111OSM    C2S11396   2.497   5.703   6.873  0.3111 -0.2739  0.6423
  111OSM    H2S11397   2.395   5.746   6.874  0.0963 -0.6920 -1.2107
  111OSM    C3S11398   2.602   5.821   6.866  0.7987 -0.2665  0.4297
  111OSM    H3S11399   2.704   5.780   6.848  2.1570  3.2794 -0.7878
  111OSM     O311400   2.621   5.885   6.986  0.2919  0.3809  0.0310
  111OSM    HO311401   2.555   5.838   7.039 -0.8652  0.9562 -0.8460
  111OSM    C4S11402   2.584   5.922   6.751 -0.4858  0.2114  0.5332
  111OSM    H4S11403   2.602   5.879   6.652  0.1360  0.0259  0.7251
  111OSM    C5S11404   2.518   6.039   6.749 -1.0395  0.0604 -0.0580
  111OSM    H5S11405   2.469   6.074   6.842  0.5957 -2.9852  2.1242
  111OSM    C6S11406   2.506   6.130   6.629 -0.1167 -0.1479  0.0176
  111OSM    H6S11407   2.572   6.215   6.657 -0.7443 -0.1666  1.6426
  111OSM    H6T11408   2.404   6.173   6.615 -0.3367 -0.6089  0.1727
  111OSM    C7S11409   2.540   6.072   6.492  0.1457  0.1615  0.1586
  111OSM    H7S11410   2.647   6.048   6.478  0.0829  0.0316 -0.1021
  111OSM    H7T11411   2.528   6.160   6.424  1.1372  0.7673  0.7443
  111OSM    C8S11412   2.450   5.960   6.433  0.3594  0.1835  0.4915
  111OSM    H8S11413   2.341   5.983   6.438 -0.1190 -1.7973  0.2463
  111OSM    H8T11414   2.466   5.873   6.501 -0.1530  1.1747  1.9166
  111OSM    C9S11415   2.484   5.924   6.293 -0.1633  0.6353  0.3567
  111OSM    H9S11416   2.471   5.817   6.264  1.6005  0.3963  0.3199
  111OSM    H9T11417   2.595   5.934   6.289 -0.1607  0.3272 -2.3933
  111OSM   C10S11418   2.435   6.025   6.183 -0.1083 -0.0493  0.2084
  111OSM   H10S11419   2.481   6.124   6.202 -2.0631  0.6659  1.5349
  111OSM   H10T11420   2.327   6.043   6.197 -0.1004 -0.3244  0.6353
  111OSM   C11S11421   2.468   5.961   6.050  0.2064  0.2488 -0.3012
  111OSM   H11S11422   2.415   5.864   6.041 -1.4298  1.2096 -1.6506
  111OSM   H11T11423   2.576   5.935   6.045 -0.1815 -2.2606  2.0152
  111OSM   C12S11424   2.425   6.048   5.933  0.3256 -0.3077  0.0700
  111OSM   H12S11425   2.476   6.146   5.946  1.4594 -1.0523  1.5232
  111OSM   H12T11426   2.319   6.081   5.931  0.6787  0.8477 -0.3335
  111OSM   C13S11427   2.456   5.979   5.804  0.1504  0.5168  0.2793
  111OSM   H13S11428   2.419   5.875   5.818 -0.1596  0.5956  0.0376
  111OSM   H13T11429   2.567   5.976   5.790 -0.0322  1.4087 -1.5325
  111OSM   C14S11430   2.408   6.039   5.671  1.0705 -0.2208  0.1895
  111OSM   H14S11431   2.451   6.138   5.647 -2.3932  0.7072 -3.0983
  111OSM   H14T11432   2.298   6.055   5.676  1.2867  0.9321  3.8775
  111OSM   C15S11433   2.427   5.949   5.545  0.1083  0.6054 -0.4362
  111OSM   H15S11434   2.404   6.009   5.454  0.3402 -2.8477 -2.9324
  111OSM   H15T11435   2.366   5.858   5.531  0.0779  0.6127 -0.3521
  111OSM   C16S11436   2.570   5.899   5.532  0.1809 -0.4051 -0.1911
  111OSM   H16S11437   2.595   5.825   5.611  1.5410 -2.0599 -2.0836
  111OSM   H16T11438   2.635   5.990   5.535 -1.2370  0.6617 -0.6860
  111OSM   C17S11439   2.576   5.823   5.397 -0.5655  0.3142  0.4281
  111OSM   H17S11440   2.565   5.890   5.309 -1.4222  1.0295  1.0672
  111OSM   H17T11441   2.491   5.752   5.391 -0.5474  0.3143  0.1211
  111OSM   C18S11442   2.709   5.750   5.380  0.2050 -0.7533  0.5262
  111OSM   H18S11443   2.789   5.825   5.361 -2.2887  1.7536 -1.1071
  111OSM   H18T11444   2.705   5.703   5.279 -0.9727  0.4221 -0.0178
  111OSM   H18U11445   2.735   5.683   5.464  0.2410  0.7871  1.7963
  111OSM    C1F11446   2.395   5.552   6.706  0.0609 -0.6979  0.0172
  111OSM     OF11447   2.297   5.537   6.783 -0.6113  0.0177 -0.1151
  111OSM    C2F11448   2.402   5.487   6.579 -0.0272 -0.0488 -0.2606
  111OSM    H2F11449   2.409   5.376   6.584 -1.1800 -0.2099 -1.6737
  111OSM    H2G11450   2.491   5.532   6.529 -1.0299  2.8377  0.3751
  111OSM    C3F11451   2.274   5.506   6.485  0.3829  0.4382  1.0787
  111OSM    H3F11452   2.261   5.615   6.468 -0.2935  0.2447  0.2358
  111OSM    H3G11453   2.179   5.459   6.520 -1.0421  1.0179 -1.6731
  111OSM    C4F11454   2.307   5.445   6.348  0.1728 -1.0387 -0.7620
  111OSM    H4F11455   2.211   5.434   6.294  0.6797  2.5699 -2.7602
  111OSM    H4G11456   2.351   5.347   6.377 -1.1346 -1.6120 -0.6407
  111OSM    C5F11457   2.390   5.542   6.255  0.3949  0.9675  0.7573
  111OSM    H5F11458   2.488   5.580   6.291  0.8712  1.8682 -1.3437
  111OSM    H5G11459   2.327   5.631   6.234 -1.9336 -0.0467  2.9564
  111OSM    C6F11460   2.417   5.462   6.120 -0.4196 -0.5967 -0.4662
  111OSM    H6F11461   2.320   5.419   6.085 -0.6124 -0.0836 -0.5755
  111OSM    H6G11462   2.485   5.381   6.152  1.5695  1.5856  1.1422
  111OSM    C7F11463   2.479   5.537   5.997 -0.8311 -0.0954  0.1364
  111OSM    H7F11464   2.567   5.587   6.043 -0.7466  0.5510 -0.7061
  111OSM    H7G11465   2.405   5.610   5.957  2.1909  3.4336  0.4837
  111OSM    C8F11466   2.528   5.434   5.896 -0.5720 -0.2010 -0.1188
  111OSM    H8F11467   2.438   5.371   5.878 -0.1629 -1.8042  2.8010
  111OSM    H8G11468   2.600   5.365   5.945  0.7025  1.3219  0.2400
  111OSM    C9F11469   2.599   5.506   5.788  0.5465 -0.4688 -0.1689
  111OSM    H9F11470   2.701   5.542   5.810  0.0094  2.2877 -1.7250
  111OSM   C10F11471   2.553   5.532   5.664 -0.1074  0.6205  0.6663
  111OSM   H10F11472   2.613   5.579   5.585 -0.6556 -0.1833 -0.2652
  111OSM   C11F11473   2.415   5.490   5.610 -0.0699  0.5238  0.6334
  111OSM   H11F11474   2.367   5.585   5.576 -1.1870 -1.1903 -3.1278
  111OSM   H11G11475   2.354   5.441   5.688 -1.4707  0.2254 -0.6110
  111OSM   C12F11476   2.420   5.389   5.496  0.3807 -0.1651  1.0446
  111OSM   H12F11477   2.322   5.348   5.463  0.1346 -0.3790  2.0108
  111OSM   H12G11478   2.488   5.310   5.534 -1.1931 -0.6677  2.9778
  111OSM   C13F11479   2.478   5.454   5.369  0.2715 -0.1620  0.4231
  111OSM   H13F11480   2.585   5.480   5.385 -0.0183  1.4995 -0.1222
  111OSM   H13G11481   2.431   5.552   5.342  1.8506  0.3099 -0.7892
  111OSM   C14F11482   2.464   5.357   5.251 -0.6316  0.5754  0.7383
  111OSM   H14F11483   2.472   5.251   5.282 -2.9154  0.3704  0.7414
  111OSM   H14G11484   2.549   5.384   5.183 -0.9361  0.1819  0.1986
  111OSM   C15F11485   2.335   5.378   5.174 -0.5783 -0.2692 -0.3826
  111OSM   H15F11486   2.304   5.485   5.170  1.8825  0.6138  1.3789
  111OSM   H15G11487   2.256   5.324   5.230  0.1825 -2.1374 -1.0516
  111OSM   C16F11488   2.322   5.306   5.040 -0.7015 -0.2035  0.0330
  111OSM   H16F11489   2.379   5.364   4.964  0.1424 -0.4143  0.5059
  111OSM   H16G11490   2.215   5.317   5.012 -0.4002  0.5849 -0.8785
  111OSM   C17F11491   2.371   5.161   5.035 -0.4139 -0.4322 -0.1979
  111OSM   H17F11492   2.331   5.107   5.124  0.9352 -0.6951  0.2830
  111OSM   H17G11493   2.482   5.158   5.038 -0.3192  0.8224 -1.3867
  111OSM   C18F11494   2.327   5.083   4.905  0.2160  0.9463  0.9909
  111OSM   H18F11495   2.356   4.976   4.907 -0.8340  0.4844 -2.1765
  111OSM   H18G11496   2.369   5.128   4.812 -0.1086 -1.5732 -0.4664
  111OSM   H18H11497   2.218   5.102   4.897  0.4796  1.8476 -1.4866
  112OSM      N11498   4.989   1.690   7.669  0.3277 -0.6213  0.1144
  112OSM    C1511499   5.100   1.607   7.721 -0.2925 -0.1330  0.1139
  112OSM   H15A11500   5.097   1.511   7.670  2.4499 -0.0386 -0.3802
  112OSM   H15B11501   5.111   1.588   7.826  2.3167  1.0085  0.1121
  112OSM   H15C11502   5.186   1.662   7.686  0.6597 -1.6810 -0.0575
  112OSM    C1411503   4.867   1.605   7.681 -0.1335 -0.5649 -0.4244
  112OSM   H14A11504   4.774   1.656   7.664  0.2093  0.5901  0.9643
  112OSM   H14B11505   4.867   1.578   7.786  0.5106  0.6115 -0.1092
  112OSM   H14C11506   4.860   1.507   7.636 -0.9749 -0.8480  0.2838
  112OSM    C1311507   4.980   1.820   7.755  0.1295  0.3567 -0.5570
  112OSM   H13A11508   4.957   1.788   7.855 -1.4475 -1.8444 -1.5307
  112OSM   H13B11509   4.895   1.876   7.719 -1.1961  0.6554  2.7324
  112OSM   H13C11510   5.069   1.879   7.740  0.3024  0.4866  0.9117
  112OSM    C1211511   5.003   1.722   7.523  0.6267 -0.3875 -0.4436
  112OSM   H12A11512   4.920   1.779   7.484  1.7769  0.6698 -1.4449
  112OSM   H12B11513   5.000   1.643   7.450 -0.4183  0.3193 -1.2026
  112OSM    C1111514   5.126   1.807   7.481 -0.0775 -0.2335  0.6325
  112OSM   H11A11515   5.139   1.905   7.533  3.4863 -0.9750  1.3502
  112OSM   H11B11516   5.132   1.824   7.372  0.3641 -1.2639  0.4885
  112OSM      P11517   5.304   1.605   7.441 -0.1921 -0.0664 -0.2238
  112OSM    O1311518   5.437   1.649   7.390 -0.1688 -0.4666  0.4316
  112OSM    O1411519   5.302   1.494   7.544 -0.2045 -0.4532  0.2394
  112OSM    O1111520   5.208   1.573   7.318 -0.0488  0.3482 -0.0412
  112OSM    O1211521   5.239   1.732   7.509  0.1738  0.5068 -0.4212
  112OSM    C1S11522   5.246   1.599   7.184  0.9005  1.1582  0.0486
  112OSM    H1S11523   5.351   1.570   7.167  0.6372  0.0402  0.2323
  112OSM    H1T11524   5.223   1.706   7.164 -1.7118  0.9462  1.4530
  112OSM     NF11525   5.213   1.540   6.947 -0.3883  0.2862 -0.1153
  112OSM    HNF11526   5.188   1.618   6.890 -0.1612 -0.5765 -1.4539
  112OSM    C2S11527   5.154   1.526   7.080  0.4111 -0.2697 -0.8466
  112OSM    H2S11528   5.160   1.419   7.109 -0.0673 -0.0964 -0.0648
  112OSM    C3S11529   5.009   1.570   7.085  0.1368  0.1228  0.9626
  112OSM    H3S11530   5.002   1.673   7.042 -0.9547 -1.1670 -2.2675
  112OSM     O311531   4.954   1.578   7.211 -0.3679 -0.0305 -0.3121
  112OSM    HO311532   5.036   1.581   7.261 -0.5895 -1.3171  0.1588
  112OSM    C4S11533   4.924   1.489   6.992  0.0121 -0.1982  0.1555
  112OSM    H4S11534   4.935   1.530   6.890  1.9636 -1.1753 -0.0831
  112OSM    C5S11535   4.864   1.366   7.010 -0.4927 -0.0306 -0.8385
  112OSM    H5S11536   4.871   1.316   7.108  0.3428 -1.3329 -1.5412
  112OSM    C6S11537   4.791   1.300   6.901  0.2856  0.2312 -0.1881
  112OSM    H6S11538   4.793   1.372   6.817 -0.7949 -0.4056 -0.7898
  112OSM    H6T11539   4.686   1.275   6.927  0.0802  1.1234 -0.1371
  112OSM    C7S11540   4.862   1.167   6.852 -0.6346  0.6607  0.1585
  112OSM    H7S11541   4.856   1.082   6.924 -1.1156  1.0308  0.5662
  112OSM    H7T11542   4.970   1.194   6.848 -0.6975  0.8017 -2.6031
  112OSM    C8S11543   4.840   1.129   6.703  0.2642  0.2809 -0.3512
  112OSM    H8S11544   4.736   1.160   6.680 -0.7816 -1.8131  1.3142
  112OSM    H8T11545   4.852   1.020   6.690 -0.4295  0.1777 -0.1262
  112OSM    C9S11546   4.942   1.204   6.616 -0.3950  0.3445 -0.3479
  112OSM    H9S11547   5.034   1.148   6.642 -1.5213 -0.7888  1.3960
  112OSM    H9T11548   4.959   1.312   6.637  2.5593  0.2949 -1.8541
  112OSM   C10S11549   4.911   1.200   6.465  0.4419  0.9910 -0.0234
  112OSM   H10S11550   5.001   1.243   6.416  0.1085  4.2101  1.9441
  112OSM   H10T11551   4.831   1.276   6.453  1.5515  2.0095 -1.3243
  112OSM   C11S11552   4.865   1.060   6.424  0.8557 -0.3129  0.3774
  112OSM   H11S11553   4.759   1.052   6.457  1.2842 -1.0206  1.6628
  112OSM   H11T11554   4.928   0.985   6.478 -0.6354 -1.0851  1.1141
  112OSM   C12S11555   4.900   1.039   6.276  0.0233  0.0287 -0.2382
  112OSM   H12S11556   4.880   0.931   6.257  0.6210 -0.6480  2.4799
  112OSM   H12T11557   5.008   1.058   6.258 -0.4233  2.6713 -0.5311
  112OSM   C13S11558   4.826   1.122   6.172 -1.2085 -0.6482  0.9237
  112OSM   H13S11559   4.819   1.230   6.196 -1.9281 -0.1674 -1.2276
  112OSM   H13T11560   4.718   1.095   6.172 -0.9571 -1.7208  0.7671
  112OSM   C14S11561   4.867   1.094   6.029 -0.2329  0.3830 -0.1474
  112OSM   H14S11562   4.890   0.985   6.033 -0.6989  0.2604 -0.6313
  112OSM   H14T11563   4.962   1.148   6.009  0.7732 -0.9579  0.8395
  112OSM   C15S11564   4.761   1.123   5.926 -0.3849 -0.5429 -0.2203
  112OSM   H15S11565   4.730   1.229   5.918 -0.0929 -0.2952  1.4953
  112OSM   H15T11566   4.669   1.068   5.955 -1.3332  1.2995  0.3899
  112OSM   C16S11567   4.800   1.076   5.792 -0.0310  0.0208 -0.0481
  112OSM   H16S11568   4.834   0.970   5.798  1.9904  0.6960  3.4736
  112OSM   H16T11569   4.879   1.133   5.738  0.7102 -0.2791  0.6892
  112OSM   C17S11570   4.681   1.081   5.694 -0.6217  0.6439  0.0890
  112OSM   H17S11571   4.605   1.010   5.735  1.6846 -0.5960  2.4952
  112OSM   H17T11572   4.705   1.033   5.597 -2.3683  0.7318 -0.4327
  112OSM   C18S11573   4.625   1.222   5.684 -0.2411  0.3964  0.1274
  112OSM   H18S11574   4.558   1.255   5.767 -3.3708 -2.9836 -0.7879
  112OSM   H18T11575   4.566   1.243   5.592 -0.4232  0.6395  0.2962
  112OSM   H18U11576   4.716   1.286   5.677  0.8213 -0.9512  1.1492
  112OSM    C1F11577   5.316   1.459   6.913  0.1348 -0.4679  0.1488
  112OSM     OF11578   5.370   1.384   6.995  0.2739  0.5298  0.0099
  112OSM    C2F11579   5.363   1.469   6.767 -0.0139 -0.0553  0.5333
  112OSM    H2F11580   5.468   1.505   6.777  0.2678 -0.6728 -0.1175
  112OSM    H2G11581   5.305   1.550   6.717 -0.3142  0.9745  2.4762
  112OSM    C3F11582   5.339   1.344   6.680  0.1784  1.0379  0.0244
  112OSM    H3F11583   5.230   1.329   6.692  0.3576  0.7164  1.3902
  112OSM    H3G11584   5.391   1.256   6.722 -1.8623 -0.5399 -0.6246
  112OSM    C4F11585   5.373   1.369   6.539  0.0377 -0.6278  0.3707
  112OSM    H4F11586   5.482   1.365   6.516  0.6026  0.1250  2.6297
  112OSM    H4G11587   5.347   1.475   6.518  0.3268 -0.7344 -0.5601
  112OSM    C5F11588   5.303   1.272   6.445  0.3405  0.2491  0.1972
  112OSM    H5F11589   5.209   1.327   6.421  0.7936  1.5960  1.3913
  112OSM    H5G11590   5.288   1.174   6.495  0.1707  0.7709  1.1963
  112OSM    C6F11591   5.375   1.252   6.314  0.7235 -1.0988 -0.6518
  112OSM    H6F11592   5.482   1.225   6.322  0.3443 -2.5436 -0.1266
  112OSM    H6G11593   5.381   1.352   6.267  0.4750 -2.1859 -3.1755
  112OSM    C7F11594   5.301   1.169   6.215 -0.3201  0.8499  0.4268
  112OSM    H7F11595   5.193   1.196   6.224 -0.3534  0.5310  1.0384
  112OSM    H7G11596   5.311   1.067   6.259 -0.5057  1.3346  1.6490
  112OSM    C8F11597   5.339   1.199   6.066 -0.0402  0.3613  0.7832
  112OSM    H8F11598   5.447   1.175   6.053  0.0835  0.4466  1.5821
  112OSM    H8G11599   5.326   1.306   6.039 -1.5904 -0.3759 -1.7421
  112OSM    C9F11600   5.257   1.108   5.970  0.6240  0.0636 -0.5978
  112OSM    H9F11601   5.163   1.066   6.007 -0.1546  1.4220 -0.9628
  112OSM   C10F11602   5.293   1.070   5.847 -0.2971  0.6595 -0.1702
  112OSM   H10F11603   5.220   1.008   5.792 -1.0746  0.9777  0.4896
  112OSM   C11F11604   5.410   1.126   5.778 -0.5511 -0.1230  0.0045
  112OSM   H11F11605   5.475   1.045   5.736 -2.0783 -0.0469 -2.7295
  112OSM   H11G11606   5.484   1.175   5.845  0.0427 -2.3045  1.0656
  112OSM   C12F11607   5.376   1.209   5.657 -0.5916 -0.3076 -0.1161
  112OSM   H12F11608   5.329   1.298   5.705  0.5103 -0.0243  0.4843
  112OSM   H12G11609   5.307   1.162   5.584  0.7722 -3.5958  0.5435
  112OSM   C13F11610   5.495   1.257   5.585  0.0853  0.3722  0.3422
  112OSM   H13F11611   5.579   1.267   5.657  1.5661 -0.9246 -1.1115
  112OSM   H13G11612   5.480   1.351   5.528 -0.8112 -0.1224 -0.2594
  112OSM   C14F11613   5.545   1.165   5.477 -0.3630  0.4687  0.0817
  112OSM   H14F11614   5.455   1.132   5.419  0.3705 -0.8838 -0.3411
  112OSM   H14G11615   5.584   1.071   5.523 -0.3461  0.3262 -0.2188
  112OSM   C15F11616   5.646   1.219   5.378 -0.1746 -0.2660 -0.1966
  112OSM   H15F11617   5.617   1.321   5.345  0.1179 -0.0446  0.2169
  112OSM   H15G11618   5.652   1.156   5.287 -2.0676 -2.3957  1.0310
  112OSM   C16F11619   5.790   1.220   5.439 -0.1131  0.5605  0.1482
  112OSM   H16F11620   5.812   1.127   5.496  0.8249  0.7388  0.0928
  112OSM   H16G11621   5.801   1.305   5.510  0.9243 -0.9331  1.8429
  112OSM   C17F11622   5.905   1.237   5.330  0.7664  1.0531 -0.2708
  112OSM   H17F11623   5.884   1.326   5.267 -0.7574  0.1191 -1.1718
  112OSM   H17G11624   5.879   1.153   5.261 -0.7849 -0.1894  1.7229
  112OSM   C18F11625   6.050   1.239   5.384  0.0797 -0.2403  0.1882
  112OSM   H18F11626   6.066   1.328   5.449  0.7966  1.4899 -2.1983
  112OSM   H18G11627   6.128   1.253   5.306 -1.4968 -1.8351 -1.7766
  112OSM   H18H11628   6.082   1.142   5.428  1.8169 -0.6167 -1.7178
  113OSM      N11629   2.726   4.235   7.095 -0.2160  0.2751 -0.5288
  113OSM    C1511630   2.680   4.166   6.969  0.1718  0.1235 -0.1021
  113OSM   H15A11631   2.694   4.230   6.884 -1.2207  1.6919  0.8013
  113OSM   H15B11632   2.575   4.139   6.973 -0.0548  1.1067  2.1326
  113OSM   H15C11633   2.736   4.075   6.951 -0.1187  0.1789 -1.3745
  113OSM    C1411634   2.865   4.295   7.064 -0.6795 -0.2701 -0.0963
  113OSM   H14A11635   2.894   4.369   7.137 -0.4064 -0.3148 -0.1582
  113OSM   H14B11636   2.858   4.340   6.966  0.4315  0.5823  0.2029
  113OSM   H14C11637   2.945   4.222   7.069 -0.3918  0.1060  1.3563
  113OSM    C1311638   2.640   4.355   7.123 -0.1903  0.3155  0.9559
  113OSM   H13A11639   2.541   4.322   7.152  0.0231  0.6970  2.1551
  113OSM   H13B11640   2.627   4.403   7.027 -0.6076 -2.3682 -0.4627
  113OSM   H13C11641   2.684   4.413   7.202 -1.1843  0.1911  1.6200
  113OSM    C1211642   2.729   4.146   7.216  0.0026 -0.7482 -0.1861
  113OSM   H12A11643   2.626   4.120   7.232 -1.0496  1.7536 -2.3221
  113OSM   H12B11644   2.764   4.212   7.294 -1.2998  0.7697 -0.8610
  113OSM    C1111645   2.822   4.020   7.204 -0.1613 -0.6066 -0.2093
  113OSM   H11A11646   2.830   3.971   7.303 -1.1878 -3.4777 -1.4330
  113OSM   H11B11647   2.924   4.052   7.171  0.8928  0.0486  3.2044
  113OSM      P11648   2.671   3.805   7.179 -0.3689  0.3366  0.3534
  113OSM    O1311649   2.752   3.713   7.263 -0.8134  0.6539 -0.1892
  113OSM    O1411650   2.562   3.864   7.254 -0.2429 -0.5002  0.1441
  113OSM    O1111651   2.609   3.736   7.047 -0.5795 -0.0936 -0.7062
  113OSM    O1211652   2.759   3.921   7.116  0.5111  0.7493  0.3499
  113OSM    C1S11653   2.698   3.709   6.938 -0.4950 -0.7654  0.4380
  113OSM    H1S11654   2.757   3.615   6.943 -1.7388 -1.5488  0.8717
  113OSM    H1T11655   2.773   3.787   6.916  1.1005 -1.6665  2.4094
  113OSM     NF11656   2.694   3.643   6.694 -0.3103 -0.5659  0.1830
  113OSM    HNF11657   2.739   3.707   6.631 -1.5090  1.5477  1.3404
  113OSM    C2S11658   2.618   3.709   6.808  0.7923  0.1706 -0.8490
  113OSM    H2S11659   2.528   3.647   6.829  0.9913 -1.1013 -3.3177
  113OSM    C3S11660   2.548   3.847   6.782 -0.0998  0.5905  0.5023
  113OSM    H3S11661   2.618   3.932   6.774  0.2102  0.3272  0.3999
  113OSM     O311662   2.453   3.911   6.872 -0.2808  0.5438 -0.1695
  113OSM    HO311663   2.487   3.876   6.955  3.1856  1.1497 -1.1488
  113OSM    C4S11664   2.472   3.827   6.656 -0.3981 -0.1293  0.4777
  113OSM    H4S11665   2.536   3.830   6.566  1.4076  0.5767  1.7346
  113OSM    C5S11666   2.345   3.799   6.627  0.3464  0.9560 -0.0197
  113OSM    H5S11667   2.276   3.787   6.712 -0.3992 -1.6960 -0.9079
  113OSM    C6S11668   2.285   3.769   6.500  0.6805  0.2246  0.7267
  113OSM    H6S11669   2.188   3.821   6.495 -0.6707 -2.1394  0.5756
  113OSM    H6T11670   2.257   3.662   6.489  4.5183 -0.9489  0.7023
  113OSM    C7S11671   2.362   3.794   6.368  0.2189 -0.1067 -0.4275
  113OSM    H7S11672   2.464   3.751   6.367 -0.6013 -2.3353 -3.3471
  113OSM    H7T11673   2.371   3.904   6.357  0.8902 -0.1708 -0.5426
  113OSM    C8S11674   2.291   3.745   6.234 -0.2254  0.9402 -0.1577
  113OSM    H8S11675   2.199   3.806   6.218 -0.3263  0.7845 -0.1735
  113OSM    H8T11676   2.264   3.638   6.247 -3.8843  1.8154  0.4850
  113OSM    C9S11677   2.391   3.758   6.119 -0.0339  0.0057  0.2076
  113OSM    H9S11678   2.477   3.690   6.135 -0.7195 -0.8379  0.4114
  113OSM    H9T11679   2.421   3.865   6.113  0.3545 -0.1399 -0.5608
  113OSM   C10S11680   2.318   3.720   5.989  0.4075  0.0241  0.7244
  113OSM   H10S11681   2.231   3.785   5.965 -0.3898 -1.0307  0.7020
  113OSM   H10T11682   2.281   3.615   5.987  1.0175 -0.1983  0.9390
  113OSM   C11S11683   2.413   3.735   5.871  0.6941  0.9581  0.4314
  113OSM   H11S11684   2.483   3.648   5.864 -1.0721 -0.5644  1.0446
  113OSM   H11T11685   2.477   3.826   5.863  2.4566 -0.3628 -1.6701
  113OSM   C12S11686   2.342   3.722   5.737  0.3876  0.2933  0.0211
  113OSM   H12S11687   2.275   3.810   5.730 -1.3124 -1.0556 -2.3462
  113OSM   H12T11688   2.272   3.635   5.738 -1.2773  1.5838  1.3645
  113OSM   C13S11689   2.425   3.714   5.608  0.1750 -0.1494  0.6327
  113OSM   H13S11690   2.489   3.624   5.618 -0.8872 -1.0903 -0.6668
  113OSM   H13T11691   2.500   3.796   5.606  0.3793 -0.3351 -1.4396
  113OSM   C14S11692   2.335   3.713   5.482 -1.1081 -0.7169 -0.1919
  113OSM   H14S11693   2.260   3.793   5.499 -0.2037 -0.2854  2.0738
  113OSM   H14T11694   2.290   3.612   5.467  2.8283 -2.9172  1.2278
  113OSM   C15S11695   2.413   3.753   5.356 -0.0600  0.6754 -0.1589
  113OSM   H15S11696   2.502   3.688   5.343 -0.4012  0.0411  0.6445
  113OSM   H15T11697   2.434   3.862   5.350 -2.5377  1.1445 -1.8328
  113OSM   C16S11698   2.329   3.721   5.232 -0.1329 -0.5027  0.7209
  113OSM   H16S11699   2.234   3.778   5.236  1.1745  2.2378 -2.2518
  113OSM   H16T11700   2.319   3.610   5.233 -0.9604 -0.4597 -0.6431
  113OSM   C17S11701   2.393   3.787   5.104  0.1298  0.2628  0.2403
  113OSM   H17S11702   2.503   3.770   5.107  0.0113 -0.5875 -0.1807
  113OSM   H17T11703   2.380   3.898   5.101  0.8752  0.3383 -0.4794
  113OSM   C18S11704   2.340   3.724   4.974 -0.1015 -0.4858 -0.1685
  113OSM   H18S11705   2.405   3.731   4.885 -0.8841  0.6441 -0.6694
  113OSM   H18T11706   2.243   3.775   4.953  0.3325 -0.1593 -1.3948
  113OSM   H18U11707   2.321   3.615   4.985  1.1255 -0.8317 -1.2629
  113OSM    C1F11708   2.717   3.517   6.685 -0.2469  0.2378  0.0331
  113OSM     OF11709   2.675   3.439   6.762  0.0963  0.0253  0.7480
  113OSM    C2F11710   2.819   3.472   6.582 -0.4766 -0.2897 -0.5230
  113OSM    H2F11711   2.901   3.426   6.641  3.2072  3.7152 -2.0567
  113OSM    H2G11712   2.868   3.559   6.535 -1.8001  0.1092 -1.2240
  113OSM    C3F11713   2.748   3.384   6.475 -0.3063 -0.2418 -0.0035
  113OSM    H3F11714   2.657   3.441   6.445 -0.5919 -1.0760 -0.7822
  113OSM    H3G11715   2.702   3.292   6.517  0.0341 -0.7434 -0.7096
  113OSM    C4F11716   2.838   3.369   6.354  0.2142  0.5907  0.0841
  113OSM    H4F11717   2.893   3.272   6.364 -1.9378 -0.7716 -0.6691
  113OSM    H4G11718   2.912   3.451   6.341  1.3666 -0.6318 -1.5509
  113OSM    C5F11719   2.752   3.351   6.232 -0.1117 -0.0273  0.1968
  113OSM    H5F11720   2.701   3.448   6.219  1.0828  0.9228  2.1227
  113OSM    H5G11721   2.674   3.274   6.248  0.0966 -0.3286 -0.2008
  113OSM    C6F11722   2.839   3.322   6.110  0.9065 -0.3672 -0.0573
  113OSM    H6F11723   2.864   3.214   6.103  2.8054 -0.2360  3.0209
  113OSM    H6G11724   2.932   3.382   6.112  0.2225  0.7432 -0.5793
  113OSM    C7F11725   2.770   3.365   5.970 -0.3406  0.3867 -1.1719
  113OSM    H7F11726   2.659   3.357   5.973 -0.3439 -0.0485 -2.2253
  113OSM    H7G11727   2.818   3.287   5.907  0.0882 -0.9970  0.7466
  113OSM    C8F11728   2.818   3.491   5.918  0.3371  0.0903  0.6031
  113OSM    H8F11729   2.927   3.505   5.904  0.4884  0.1672  1.7923
  113OSM    H8G11730   2.802   3.570   5.994 -1.4336 -0.6095  1.0171
  113OSM    C9F11731   2.753   3.521   5.784  0.5831 -0.4570 -0.6313
  113OSM    H9F11732   2.646   3.542   5.799  0.6053 -1.7824  1.7963
  113OSM   C10F11733   2.796   3.511   5.665 -0.0299 -0.2284  0.4080
  113OSM   H10F11734   2.725   3.532   5.583 -0.9746  2.9110  1.8942
  113OSM   C11F11735   2.933   3.467   5.618 -0.8126  0.7762  0.8432
  113OSM   H11F11736   3.022   3.520   5.659 -0.4332  0.7018  0.1361
  113OSM   H11G11737   2.941   3.497   5.512 -0.3116  0.8974  0.9098
  113OSM   C12F11738   2.964   3.317   5.636  0.6979  0.8313 -0.1233
  113OSM   H12F11739   2.882   3.243   5.625  1.4639  0.1582 -1.6329
  113OSM   H12G11740   2.980   3.313   5.746 -4.4002 -1.6966  0.8106
  113OSM   C13F11741   3.084   3.258   5.559  0.0651  0.3197  0.0047
  113OSM   H13F11742   3.109   3.159   5.603  1.4170  1.1228  1.1209
  113OSM   H13G11743   3.182   3.310   5.560  0.9892 -1.2982 -1.2600
  113OSM   C14F11744   3.046   3.229   5.416  0.2272  0.4342  0.1781
  113OSM   H14F11745   3.021   3.322   5.361  2.3372  1.0006  0.0710
  113OSM   H14G11746   2.958   3.161   5.410  0.6966 -0.2015  0.3969
  113OSM   C15F11747   3.166   3.174   5.328  0.2529  0.4852  0.3125
  113OSM   H15F11748   3.204   3.073   5.352 -0.7535 -0.1726 -0.7412
  113OSM   H15G11749   3.249   3.239   5.365  1.0579 -0.0562 -0.5022
  113OSM   C16F11750   3.166   3.198   5.170  0.2118  0.3793  0.5618
  113OSM   H16F11751   3.271   3.190   5.135 -0.1473  1.3622 -0.8032
  113OSM   H16G11752   3.127   3.298   5.140  1.5554  0.5648 -0.6527
  113OSM   C17F11753   3.093   3.093   5.097  0.0230 -0.3921  0.1173
  113OSM   H17F11754   2.986   3.087   5.124 -0.4347 -0.9875 -1.6744
  113OSM   H17G11755   3.143   3.001   5.135 -0.9765 -0.0245  2.4751
  113OSM   C18F11756   3.111   3.102   4.943  0.4501 -0.3499 -0.3692
  113OSM   H18F11757   3.064   3.013   4.897  1.3022 -0.3413 -1.2992
  113OSM   H18G11758   3.215   3.125   4.911  0.2179  2.6092  0.7362
  113OSM   H18H11759   3.044   3.185   4.912 -0.7830 -0.8498  0.8729
  114OSM      N11760   2.931   2.645   7.375  0.3541  0.2813  0.8537
  114OSM    C1511761   2.924   2.496   7.397 -0.0334  0.1368  0.4807
  114OSM   H15A11762   2.893   2.449   7.305 -0.4900  1.1527  0.0904
  114OSM   H15B11763   2.870   2.461   7.484  0.0190 -0.8665  0.1126
  114OSM   H15C11764   3.024   2.458   7.409  0.2920  1.2849  1.7312
  114OSM    C1411765   2.796   2.718   7.383  0.2949  0.3479 -0.1986
  114OSM   H14A11766   2.803   2.826   7.382 -2.0781  0.6053  1.6278
  114OSM   H14B11767   2.736   2.697   7.470  1.6504 -0.7613  0.5112
  114OSM   H14C11768   2.739   2.692   7.295 -1.5819 -1.2005  1.4033
  114OSM    C1311769   3.020   2.709   7.478  0.3951  0.0067  0.5302
  114OSM   H13A11770   2.974   2.682   7.572  0.9041 -0.5752  0.6204
  114OSM   H13B11771   3.024   2.817   7.483  0.4094  0.0623 -0.4531
  114OSM   H13C11772   3.116   2.665   7.457 -1.5590 -2.5937 -4.7221
  114OSM    C1211773   2.993   2.685   7.235 -0.1227  0.7492  0.5341
  114OSM   H12A11774   3.088   2.637   7.219 -0.3077 -0.6346  3.0049
  114OSM   H12B11775   3.011   2.791   7.235 -0.0753  0.7408  0.2613
  114OSM    C1111776   2.902   2.658   7.110 -0.2674 -0.3116 -0.2437
  114OSM   H11A11777   2.974   2.682   7.029 -1.3177  2.2254 -0.4992
  114OSM   H11B11778   2.820   2.731   7.095 -0.3768 -1.0313 -3.8922
  114OSM      P11779   2.704   2.482   7.083 -0.3697  0.0719  0.2521
  114OSM    O1311780   2.678   2.339   7.107 -0.0083 -0.2804  0.1885
  114OSM    O1411781   2.611   2.572   7.150 -0.0354 -0.1542 -0.2752
  114OSM    O1111782   2.678   2.503   6.929  0.4101  0.6629  0.0366
  114OSM    O1211783   2.860   2.528   7.111  0.9209  0.4918 -0.0280
  114OSM    C1S11784   2.786   2.494   6.834  0.1226  0.1076  0.9180
  114OSM    H1S11785   2.800   2.386   6.813  3.2817  0.0623  2.6273
  114OSM    H1T11786   2.881   2.529   6.878  0.6955 -2.6469  2.0285
  114OSM     NF11787   2.861   2.556   6.610 -0.5216 -0.0182 -0.5964
  114OSM    HNF11788   2.927   2.630   6.603  1.7881 -1.7104  1.5843
  114OSM    C2S11789   2.753   2.568   6.702 -0.0102 -0.3582 -0.3807
  114OSM    H2S11790   2.662   2.518   6.664  1.2738 -0.0841 -4.1560
  114OSM    C3S11791   2.720   2.723   6.723 -0.0737 -0.3590 -0.3090
  114OSM    H3S11792   2.812   2.775   6.755 -0.0791 -2.6682  4.1456
  114OSM     O311793   2.624   2.746   6.822 -0.2790 -0.0953  0.1088
  114OSM    HO311794   2.622   2.665   6.873  0.5250 -0.6523 -0.7198
  114OSM    C4S11795   2.673   2.797   6.598 -0.0295 -0.0842  0.2324
  114OSM    H4S11796   2.613   2.735   6.529 -2.0301  1.2727  0.6653
  114OSM    C5S11797   2.697   2.926   6.568  0.1404  0.1918  0.1475
  114OSM    H5S11798   2.771   2.980   6.630  0.3655  0.2157 -0.1399
  114OSM    C6S11799   2.647   3.008   6.451 -0.4933 -0.0649  0.2722
  114OSM    H6S11800   2.708   3.098   6.430  0.7588 -1.0383 -0.4298
  114OSM    H6T11801   2.542   3.037   6.474 -0.7559 -1.6820  1.2805
  114OSM    C7S11802   2.638   2.914   6.328 -0.1448 -0.1053 -0.2950
  114OSM    H7S11803   2.550   2.846   6.333 -1.2894  1.3989  0.9564
  114OSM    H7T11804   2.724   2.843   6.322 -0.4220 -0.6254  1.2510
  114OSM    C8S11805   2.638   2.991   6.196 -0.1759 -0.2105  0.4739
  114OSM    H8S11806   2.733   3.048   6.188  0.7364 -1.7211  0.0775
  114OSM    H8T11807   2.546   3.052   6.207 -2.7423 -4.0484  3.1321
  114OSM    C9S11808   2.624   2.895   6.077 -0.1967  0.0153  0.6564
  114OSM    H9S11809   2.533   2.834   6.091 -1.1803  0.2633 -3.4390
  114OSM    H9T11810   2.716   2.833   6.069  0.0999  0.6604 -2.1014
  114OSM   C10S11811   2.617   2.963   5.939  0.8888  0.4603 -0.2091
  114OSM   H10S11812   2.696   3.041   5.946  0.7825  0.4775  0.9271
  114OSM   H10T11813   2.519   3.010   5.915 -0.9156 -1.7408  2.3318
  114OSM   C11S11814   2.649   2.864   5.818 -0.2076 -0.4550  0.6599
  114OSM   H11S11815   2.574   2.783   5.806  0.8462 -1.3028 -0.5006
  114OSM   H11T11816   2.749   2.820   5.840  2.0359  3.0692 -1.4899
  114OSM   C12S11817   2.639   2.931   5.672 -0.3761  0.2958 -0.2954
  114OSM   H12S11818   2.718   3.009   5.674 -1.2659  1.2195 -0.1276
  114OSM   H12T11819   2.537   2.973   5.658 -0.5011 -0.2310 -1.0002
  114OSM   C13S11820   2.666   2.833   5.565  0.4705  0.4592  0.7978
  114OSM   H13S11821   2.589   2.753   5.557 -1.4150  2.1556  1.3886
  114OSM   H13T11822   2.766   2.787   5.581 -0.0784 -1.4320 -0.7748
  114OSM   C14S11823   2.679   2.906   5.427  0.2280  0.4707 -0.7733
  114OSM   H14S11824   2.769   2.970   5.424  0.7304 -0.1541 -5.0694
  114OSM   H14T11825   2.593   2.977   5.416  0.2610  0.8713  1.1301
  114OSM   C15S11826   2.696   2.802   5.317 -0.5355  0.3464 -0.6590
  114OSM   H15S11827   2.596   2.756   5.306 -0.5347 -0.2835  1.4775
  114OSM   H15T11828   2.774   2.728   5.347  0.2339  1.2372 -0.4123
  114OSM   C16S11829   2.737   2.856   5.177  0.1454 -0.2020 -0.5359
  114OSM   H16S11830   2.847   2.869   5.186  0.2552 -0.6474 -1.1315
  114OSM   H16T11831   2.688   2.955   5.167 -0.3232 -0.5047 -1.3323
  114OSM   C17S11832   2.709   2.767   5.057  0.8171  0.1404 -0.5656
  114OSM   H17S11833   2.768   2.673   5.064 -0.1185 -0.4291 -0.1122
  114OSM   H17T11834   2.732   2.827   4.967  1.5823  1.4213  0.4528
  114OSM   C18S11835   2.563   2.734   5.045  0.4988 -0.4606  0.4168
  114OSM   H18S11836   2.516   2.834   5.059  0.9018 -0.3361  0.8889
  114OSM   H18T11837   2.543   2.658   5.123  3.4034 -2.6837 -0.8031
  114OSM   H18U11838   2.520   2.700   4.948 -0.9099  2.4042 -0.0800
  114OSM    C1F11839   2.894   2.442   6.547  0.3997 -0.2277  0.1089
  114OSM     OF11840   2.840   2.331   6.577  0.0608 -0.0122 -0.3074
  114OSM    C2F11841   3.015   2.449   6.457  0.7870  0.1051  0.5309
  114OSM    H2F11842   3.109   2.450   6.517  0.1656 -1.4638  1.6043
  114OSM    H2G11843   3.018   2.548   6.406 -0.6081 -0.1445 -0.0672
  114OSM    C3F11844   3.034   2.326   6.369 -0.0338 -0.4302 -0.7689
  114OSM    H3F11845   2.945   2.311   6.304  0.5218 -0.5458 -1.5251
  114OSM    H3G11846   3.035   2.239   6.438 -2.4327 -2.1525 -2.7377
  114OSM    C4F11847   3.165   2.324   6.291  0.5901  0.2048 -0.2790
  114OSM    H4F11848   3.181   2.217   6.266  1.4162 -0.5132  2.9537
  114OSM    H4G11849   3.245   2.360   6.359  0.5985  0.2715 -0.3234
  114OSM    C5F11850   3.161   2.399   6.155  0.4129  0.0265 -1.6187
  114OSM    H5F11851   3.262   2.440   6.131  0.0218  2.6795  0.7280
  114OSM    H5G11852   3.104   2.494   6.164 -1.0776 -1.0064  0.6543
  114OSM    C6F11853   3.103   2.305   6.049  0.7306 -0.9830  0.4501
  114OSM    H6F11854   3.007   2.266   6.088  1.3992 -5.3326 -1.6785
  114OSM    H6G11855   3.166   2.214   6.037  0.0092 -1.4157 -0.1160
  114OSM    C7F11856   3.083   2.392   5.919 -0.0932  0.5510  0.4347
  114OSM    H7F11857   3.181   2.439   5.896  1.9013 -2.2920  2.3586
  114OSM    H7G11858   2.999   2.462   5.939 -0.6792  0.4972 -1.5851
  114OSM    C8F11859   3.046   2.305   5.803 -0.0597 -0.5730  1.0413
  114OSM    H8F11860   2.944   2.260   5.807 -0.4902  0.2842  0.3304
  114OSM    H8G11861   3.111   2.220   5.774 -0.8500 -0.6114 -0.7628
  114OSM    C9F11862   3.059   2.398   5.687  0.0928  0.1553  0.3504
  114OSM    H9F11863   3.136   2.476   5.700  0.4306 -0.2953  1.1478
  114OSM   C10F11864   2.997   2.411   5.570 -0.1160  0.7218 -0.2569
  114OSM   H10F11865   3.036   2.483   5.496  1.3720  1.0462  0.8185
  114OSM   C11F11866   2.888   2.308   5.529  0.0138 -0.2852 -0.3080
  114OSM   H11F11867   2.865   2.219   5.592 -3.7491  0.5974 -0.2285
  114OSM   H11G11868   2.902   2.275   5.424 -0.8286  0.4548 -0.6613
  114OSM   C12F11869   2.751   2.385   5.524  0.1868 -0.2858 -0.6149
  114OSM   H12F11870   2.764   2.493   5.502  0.9024  0.0409  1.2036
  114OSM   H12G11871   2.709   2.389   5.627 -0.1098  3.7433 -0.7315
  114OSM   C13F11872   2.650   2.332   5.428  0.0348  0.2824 -0.3891
  114OSM   H13F11873   2.554   2.362   5.475  0.3112  0.2499  0.2106
  114OSM   H13G11874   2.651   2.221   5.427  1.8650  0.2028  1.6772
  114OSM   C14F11875   2.658   2.404   5.291  0.5420  0.5759  0.4720
  114OSM   H14F11876   2.762   2.412   5.252  0.4460 -1.1018 -0.1794
  114OSM   H14G11877   2.610   2.504   5.287  1.2271  0.9104  0.3919
  114OSM   C15F11878   2.583   2.331   5.176 -0.0978 -0.6495  0.0479
  114OSM   H15F11879   2.598   2.393   5.085 -1.5934 -0.8123 -0.3447
  114OSM   H15G11880   2.474   2.327   5.196  0.2548 -0.6236  2.1010
  114OSM   C16F11881   2.636   2.187   5.155 -0.5334 -0.4234  1.0335
  114OSM   H16F11882   2.663   2.135   5.249  0.3203  1.3158  1.7999
  114OSM   H16G11883   2.725   2.201   5.090 -2.1705  0.4088 -1.1651
  114OSM   C17F11884   2.544   2.100   5.070  0.2025  0.4964  0.1488
  114OSM   H17F11885   2.526   2.146   4.970  1.3569  0.6254 -0.0140
  114OSM   H17G11886   2.447   2.079   5.119  0.2542 -2.4062 -0.7629
  114OSM   C18F11887   2.607   1.958   5.051  0.5195 -0.3034  0.0732
  114OSM   H18F11888   2.711   1.974   5.017  1.5728  0.7073  3.3877
  114OSM   H18G11889   2.540   1.906   4.979 -1.3157  0.0365  1.4622
  114OSM   H18H11890   2.609   1.917   5.154  3.2708 -0.4887  0.0013
  115OSM      N11891   1.308   4.958   7.283  0.1394 -0.0183 -0.3187
  115OSM    C1511892   1.247   4.952   7.145  0.5221  0.1096  0.7717
  115OSM   H15A11893   1.322   4.958   7.068  0.7227  1.2718  1.0301
  115OSM   H15B11894   1.188   5.042   7.134 -1.5004 -1.2482 -0.1140
  115OSM   H15C11895   1.180   4.867   7.144 -2.6110  2.3922  0.3874
  115OSM    C1411896   1.393   5.085   7.303  0.4817 -0.0033  0.2193
  115OSM   H14A11897   1.326   5.167   7.324  1.4098  0.6608  0.6677
  115OSM   H14B11898   1.445   5.103   7.211  0.1639  1.8210  0.3690
  115OSM   H14C11899   1.464   5.075   7.384  0.8206 -0.6320 -0.1444
  115OSM    C1311900   1.201   4.950   7.389  0.2189  0.3212  0.4809
  115OSM   H13A11901   1.246   4.952   7.487 -1.8071  2.4276  1.4580
  115OSM   H13B11902   1.164   4.848   7.390  2.2218 -0.5495 -2.1809
  115OSM   H13C11903   1.129   5.030   7.381  1.6220  1.5255 -0.9150
  115OSM    C1211904   1.394   4.836   7.299 -0.0103 -0.0773  0.3355
  115OSM   H12A11905   1.329   4.754   7.273  0.5661  0.0268 -1.6171
  115OSM   H12B11906   1.416   4.828   7.405 -1.9351 -0.2312  0.7669
  115OSM    C1111907   1.528   4.825   7.211 -0.3011 -0.0848  1.0034
  115OSM   H11A11908   1.569   4.725   7.238 -0.1435 -0.5505 -0.8481
  115OSM   H11B11909   1.602   4.895   7.256 -0.5155 -1.4791  3.7220
  115OSM      P11910   1.590   4.932   6.976 -0.4206  0.2361 -0.3068
  115OSM    O1311911   1.549   5.074   6.999 -0.2769  0.3065  0.2308
  115OSM    O1411912   1.735   4.904   6.987 -0.1224  0.1673  0.3915
  115OSM    O1111913   1.534   4.892   6.830  1.0042  0.4032  0.0544
  115OSM    O1211914   1.510   4.835   7.070 -0.0193  0.6908  0.2263
  115OSM    C1S11915   1.474   4.768   6.795  0.5766 -0.8422 -0.2430
  115OSM    H1S11916   1.371   4.757   6.834 -0.9246  2.4116 -2.8705
  115OSM    H1T11917   1.535   4.683   6.835  0.6347 -1.6734 -2.0097
  115OSM     NF11918   1.380   4.625   6.630 -0.2365  0.0035 -0.2497
  115OSM    HNF11919   1.427   4.540   6.608  1.3966  0.6164  0.7554
  115OSM    C2S11920   1.462   4.746   6.644  0.2655 -0.0344  0.3896
  115OSM    H2S11921   1.408   4.837   6.611 -1.2191  0.1566  3.0275
  115OSM    C3S11922   1.600   4.735   6.571 -0.4018  0.0353 -0.5020
  115OSM    H3S11923   1.655   4.650   6.617 -1.9560 -1.5023 -1.3576
  115OSM     O311924   1.681   4.851   6.589 -0.0788 -0.1544 -0.0837
  115OSM    HO311925   1.646   4.896   6.666  0.7319  1.1227 -0.4210
  115OSM    C4S11926   1.586   4.712   6.424 -0.1720 -0.3580 -0.3028
  115OSM    H4S11927   1.515   4.779   6.374 -0.1369 -0.5133 -0.5656
  115OSM    C5S11928   1.664   4.627   6.357 -0.9903  0.9752  0.2970
  115OSM    H5S11929   1.744   4.572   6.410 -1.4426  0.0919  0.0883
  115OSM    C6S11930   1.655   4.600   6.208 -0.4768  0.4177 -0.0540
  115OSM    H6S11931   1.650   4.491   6.184  1.0770 -0.0046  1.3689
  115OSM    H6T11932   1.744   4.632   6.151 -0.2880  0.7591  0.4283
  115OSM    C7S11933   1.545   4.669   6.131 -0.3354 -0.0355  0.1543
  115OSM    H7S11934   1.542   4.779   6.146 -0.7951  0.4748 -3.0392
  115OSM    H7T11935   1.455   4.624   6.177  0.6289  0.8827  3.1736
  115OSM    C8S11936   1.551   4.659   5.979 -0.6119  0.3895  0.1747
  115OSM    H8S11937   1.459   4.701   5.933  0.2614  0.2847 -1.7412
  115OSM    H8T11938   1.565   4.555   5.944 -1.1215  0.6070 -0.6953
  115OSM    C9S11939   1.679   4.726   5.909 -0.5174  0.2465  0.5806
  115OSM    H9S11940   1.769   4.685   5.959 -1.6752 -3.0299  0.2054
  115OSM    H9T11941   1.689   4.837   5.911  1.3781  0.1038  1.1126
  115OSM   C10S11942   1.692   4.693   5.761  0.7623  0.9462 -0.3883
  115OSM   H10S11943   1.683   4.587   5.729  0.2768  1.1680 -0.9910
  115OSM   H10T11944   1.798   4.720   5.740  0.9003  1.6220  1.0627
  115OSM   C11S11945   1.614   4.776   5.660  0.1370  0.5001  0.0763
  115OSM   H11S11946   1.632   4.882   5.685 -0.9124  1.0560 -1.3750
  115OSM   H11T11947   1.509   4.740   5.662 -0.2468  1.6078  0.2935
  115OSM   C12S11948   1.679   4.757   5.523 -0.1609  0.1628  0.2824
  115OSM   H12S11949   1.788   4.738   5.521  0.1159  1.2694  2.2594
  115OSM   H12T11950   1.655   4.838   5.451  1.5495  0.6373  0.2093
  115OSM   C13S11951   1.629   4.629   5.442  0.0688  0.2279  0.1771
  115OSM   H13S11952   1.521   4.635   5.414 -0.1156  0.2573  0.8847
  115OSM   H13T11953   1.641   4.548   5.516  0.8431 -1.3007 -1.5548
  115OSM   C14S11954   1.706   4.591   5.318  0.7424  0.0207  0.2358
  115OSM   H14S11955   1.656   4.499   5.279 -0.3752  1.0231 -0.7872
  115OSM   H14T11956   1.815   4.583   5.339  0.5851  2.7573  2.7755
  115OSM   C15S11957   1.698   4.691   5.203 -0.8445 -0.5106 -0.2049
  115OSM   H15S11958   1.752   4.783   5.235 -2.5821  0.1790  0.9046
  115OSM   H15T11959   1.591   4.718   5.191 -0.5318  2.0136  1.6914
  115OSM   C16S11960   1.760   4.619   5.082  0.4403 -0.2668 -0.0559
  115OSM   H16S11961   1.683   4.544   5.054  0.8124 -1.1583  1.2538
  115OSM   H16T11962   1.863   4.582   5.098  0.7074  1.4948  3.0364
  115OSM   C17S11963   1.763   4.724   4.973  0.1965  0.7109 -0.9297
  115OSM   H17S11964   1.838   4.797   5.011  0.6146 -1.5174  3.1645
  115OSM   H17T11965   1.658   4.758   4.965 -0.1232 -0.3514 -1.4009
  115OSM   C18S11966   1.810   4.672   4.836 -0.2399  0.9423  0.7535
  115OSM   H18S11967   1.769   4.740   4.758  0.7445  0.9346  0.2187
  115OSM   H18T11968   1.785   4.565   4.818  4.1468 -0.1325 -0.1203
  115OSM   H18U11969   1.921   4.677   4.827 -0.0997  0.2911  1.8551
  115OSM    C1F11970   1.248   4.627   6.644  0.1231 -0.1866  0.0196
  115OSM     OF11971   1.181   4.723   6.678  0.0144  0.0373 -0.4906
  115OSM    C2F11972   1.184   4.486   6.603  0.1461  0.0323 -0.3246
  115OSM    H2F11973   1.180   4.424   6.695  0.5440  0.6670  0.1349
  115OSM    H2G11974   1.248   4.448   6.521  0.8377  1.8478 -0.6835
  115OSM    C3F11975   1.034   4.497   6.552 -0.3794  0.1914  0.1691
  115OSM    H3F11976   0.976   4.552   6.629 -1.1906  0.8529 -0.8796
  115OSM    H3G11977   0.989   4.396   6.545 -0.2874  0.2114 -0.8534
  115OSM    C4F11978   1.005   4.576   6.422  0.2994  0.3316 -0.0984
  115OSM    H4F11979   1.036   4.682   6.434  0.9009  0.0998  0.4595
  115OSM    H4G11980   0.895   4.590   6.409  0.2607 -1.1475 -1.9043
  115OSM    C5F11981   1.065   4.501   6.298  0.4336 -0.4287 -0.2218
  115OSM    H5F11982   1.051   4.390   6.306  1.6157 -0.6351 -0.8933
  115OSM    H5G11983   1.174   4.515   6.311  0.2754 -0.1511  0.9247
  115OSM    C6F11984   1.009   4.559   6.164  0.3805  0.3030 -0.3800
  115OSM    H6F11985   1.059   4.657   6.150 -1.4614  1.4173  0.4371
  115OSM    H6G11986   0.903   4.589   6.170  0.1626 -0.4583 -0.3594
  115OSM    C7F11987   1.035   4.468   6.044 -0.1237 -0.4220  0.4404
  115OSM    H7F11988   0.991   4.366   6.050 -2.0651 -0.0635 -3.8156
  115OSM    H7G11989   1.145   4.458   6.040 -0.2311 -1.7256  0.0824
  115OSM    C8F11990   0.981   4.527   5.913  1.0879 -0.4477 -0.7105
  115OSM    H8F11991   1.024   4.629   5.905 -1.1761  0.4819 -2.1532
  115OSM    H8G11992   0.872   4.542   5.919  1.4158  2.1743 -0.4854
  115OSM    C9F11993   1.002   4.445   5.792  0.0222 -0.3991  0.2015
  115OSM    H9F11994   0.960   4.343   5.784  0.9601 -0.6947 -1.4817
  115OSM   C10F11995   1.076   4.484   5.689 -0.4138 -0.1676 -0.5565
  115OSM   H10F11996   1.079   4.414   5.603 -1.1905 -0.2955 -0.4799
  115OSM   C11F11997   1.150   4.611   5.658  0.1778  0.2536 -0.0181
  115OSM   H11F11998   1.254   4.600   5.621  1.0056  0.8616  2.0073
  115OSM   H11G11999   1.174   4.662   5.754 -0.4441 -0.4235  0.5176
  115OSM   C12F12000   1.079   4.717   5.583 -0.2658  0.5827  0.0997
  115OSM   H12F12001   1.130   4.815   5.595  0.3880  0.4321 -1.2846
  115OSM   H12G12002   0.981   4.735   5.631 -0.0529  1.5999  0.1756
  115OSM   C13F12003   1.053   4.678   5.436  0.5081  0.0415  0.7723
  115OSM   H13F12004   0.963   4.734   5.403  0.7141  0.7482  1.3806
  115OSM   H13G12005   1.035   4.569   5.429  0.0379  0.0704  1.3776
  115OSM   C14F12006   1.157   4.723   5.338 -0.8723 -0.2758 -0.0295
  115OSM   H14F12007   1.246   4.672   5.382  0.5638  0.8939 -1.4333
  115OSM   H14G12008   1.182   4.831   5.334  4.7899 -1.2936 -3.0249
  115OSM   C15F12009   1.132   4.664   5.190 -0.0639 -0.5146  0.2211
  115OSM   H15F12010   1.029   4.697   5.166  0.8565  1.3394 -1.4477
  115OSM   H15G12011   1.160   4.556   5.186  0.7067 -0.2922 -0.8760
  115OSM   C16F12012   1.215   4.718   5.075 -0.0047 -0.0540  0.6127
  115OSM   H16F12013   1.319   4.723   5.115  0.0678 -1.4984  0.6585
  115OSM   H16G12014   1.177   4.820   5.054 -3.3589 -1.2567  0.2722
  115OSM   C17F12015   1.206   4.629   4.954 -0.0925 -0.1401  0.1237
  115OSM   H17F12016   1.102   4.642   4.917  0.2990  0.4205 -0.8257
  115OSM   H17G12017   1.238   4.525   4.975 -0.1954  0.0387  1.2289
  115OSM   C18F12018   1.299   4.676   4.841  0.6548  0.4032  0.2401
  115OSM   H18F12019   1.303   4.589   4.773 -2.5239  0.3992 -0.0798
  115OSM   H18G12020   1.398   4.713   4.876  0.1677  1.0218  0.9981
  115OSM   H18H12021   1.257   4.762   4.787  2.1122  0.6014 -0.6235
  116OSM      N12022   3.491   1.575   7.121 -0.0944  0.3824 -0.1721
  116OSM    C1512023   3.414   1.629   7.000 -0.6898  0.3250 -0.6427
  116OSM   H15A12024   3.362   1.548   6.950 -1.7588 -0.8328  2.1080
  116OSM   H15B12025   3.474   1.676   6.924  0.4724 -0.6754 -0.3749
  116OSM   H15C12026   3.338   1.696   7.037 -0.0583  1.0490 -0.6381
  116OSM    C1412027   3.599   1.478   7.076 -0.3966 -0.3922 -0.5098
  116OSM   H14A12028   3.658   1.521   6.997 -0.6513 -0.6357 -0.8353
  116OSM   H14B12029   3.547   1.398   7.026 -0.7940  1.1323 -2.7010
  116OSM   H14C12030   3.651   1.432   7.158 -0.2057 -0.9251 -0.9243
  116OSM    C1312031   3.564   1.682   7.189  0.3789 -0.2291  1.0256
  116OSM   H13A12032   3.645   1.712   7.124  0.2881  0.4303  1.2155
  116OSM   H13B12033   3.599   1.649   7.286  0.4479 -0.8463  0.7962
  116OSM   H13C12034   3.502   1.769   7.203  1.8328  1.1906 -0.7990
  116OSM    C1212035   3.401   1.493   7.207 -0.7492 -0.3933  0.2360
  116OSM   H12A12036   3.458   1.474   7.297 -1.7185  0.6609  1.1119
  116OSM   H12B12037   3.376   1.399   7.161  0.3193 -0.9649  0.7944
  116OSM    C1112038   3.275   1.573   7.246  0.6891  0.2848  0.2715
  116OSM   H11A12039   3.225   1.499   7.312 -0.2676 -0.6017 -1.3765
  116OSM   H11B12040   3.204   1.591   7.162  0.6241 -2.9118 -0.4712
  116OSM      P12041   3.224   1.820   7.305 -0.0107 -0.0396 -0.7873
  116OSM    O1312042   3.102   1.797   7.379  0.4158 -0.3491  0.8015
  116OSM    O1412043   3.297   1.937   7.348  0.1874 -0.1083 -0.2227
  116OSM    O1112044   3.192   1.830   7.151  0.1887 -0.1946  0.2967
  116OSM    O1212045   3.311   1.689   7.319  0.6681 -0.5484  0.0269
  116OSM    C1S12046   3.237   1.934   7.071 -0.0897 -0.4729  0.4689
  116OSM    H1S12047   3.345   1.922   7.048 -0.2530  0.8625 -1.2362
  116OSM    H1T12048   3.232   2.035   7.117 -1.4776 -0.9095  1.3157
  116OSM     NF12049   3.228   2.016   6.834  0.3938  1.3653 -0.6525
  116OSM    HNF12050   3.181   2.100   6.810 -2.3694  0.1893  0.1897
  116OSM    C2S12051   3.163   1.931   6.935  0.3704 -0.2242 -1.0924
  116OSM    H2S12052   3.152   1.822   6.918 -2.9515 -0.2785  0.6327
  116OSM    C3S12053   3.013   1.973   6.969  0.4573  0.6410 -0.1770
  116OSM    H3S12054   3.008   2.084   6.982  0.2756  0.5144  0.9653
  116OSM     O312055   2.965   1.910   7.082  0.1924  0.0155  0.0375
  116OSM    HO312056   3.038   1.856   7.113  1.0873 -0.7813 -3.0992
  116OSM    C4S12057   2.918   1.950   6.855  0.5399  0.1130  0.1095
  116OSM    H4S12058   2.923   2.039   6.791 -0.7150  0.3336  0.2928
  116OSM    C5S12059   2.836   1.847   6.822  0.2433 -0.0901 -1.4316
  116OSM    H5S12060   2.837   1.759   6.888  1.0240  1.4773  0.7433
  116OSM    C6S12061   2.763   1.840   6.694  0.6859  0.5037 -0.2228
  116OSM    H6S12062   2.654   1.852   6.709  0.2366 -0.2970 -2.4272
  116OSM    H6T12063   2.773   1.740   6.647 -1.0833  0.8495 -1.4433
  116OSM    C7S12064   2.795   1.949   6.592  0.8879  0.1916  0.1315
  116OSM    H7S12065   2.900   1.966   6.559  0.7599  2.9907  0.8860
  116OSM    H7T12066   2.754   2.044   6.632 -0.5398 -0.2696 -0.2026
  116OSM    C8S12067   2.703   1.931   6.475  0.1071  0.0092 -0.1277
  116OSM    H8S12068   2.600   1.927   6.517  0.5969 -1.9317  0.9741
  116OSM    H8T12069   2.727   1.828   6.442 -0.1593  0.3439 -1.4039
  116OSM    C9S12070   2.727   2.028   6.354 -0.7122  0.6176  0.4221
  116OSM    H9S12071   2.837   2.031   6.336 -1.2031  1.0976 -3.4022
  116OSM    H9T12072   2.697   2.129   6.390 -1.1003  0.9478 -0.7776
  116OSM   C10S12073   2.654   1.978   6.236 -0.2897 -0.6674  0.6890
  116OSM   H10S12074   2.548   1.988   6.271  0.0813 -0.6918  1.8894
  116OSM   H10T12075   2.668   1.869   6.220 -2.3812 -0.6169 -2.3555
  116OSM   C11S12076   2.698   2.052   6.111 -0.2508  0.1135  0.1436
  116OSM   H11S12077   2.809   2.044   6.105  0.0877  2.4683  1.8656
  116OSM   H11T12078   2.691   2.162   6.118  0.8887  0.2949 -1.1415
  116OSM   C12S12079   2.618   2.018   5.985 -0.2530 -0.0724  0.0818
  116OSM   H12S12080   2.517   2.061   6.002  1.6823  3.8287  3.5769
  116OSM   H12T12081   2.622   1.907   5.973  0.2454  0.1121 -1.6732
  116OSM   C13S12082   2.680   2.070   5.857  0.0030  0.1960  0.9704
  116OSM   H13S12083   2.785   2.034   5.850  0.3660  1.0488  1.8259
  116OSM   H13T12084   2.686   2.181   5.863 -0.5806  0.3661 -1.0800
  116OSM   C14S12085   2.606   2.047   5.719 -0.2854  0.3076  0.3058
  116OSM   H14S12086   2.590   2.146   5.672 -0.8770  0.8043  1.5105
  116OSM   H14T12087   2.503   2.019   5.750 -0.1042 -1.1268 -0.3072
  116OSM   C15S12088   2.648   1.930   5.628 -0.2314  0.2368 -0.2182
  116OSM   H15S12089   2.577   1.917   5.544  2.5119 -0.7777 -2.5839
  116OSM   H15T12090   2.662   1.839   5.690 -0.8086  1.6693  2.1115
  116OSM   C16S12091   2.780   1.960   5.552 -0.1740  0.3987  1.0908
  116OSM   H16S12092   2.862   1.975   5.624  1.7385 -2.8493 -0.1939
  116OSM   H16T12093   2.766   2.046   5.484  0.4748 -1.2351 -1.2376
  116OSM   C17S12094   2.811   1.847   5.451  0.9008  0.5125  0.5917
  116OSM   H17S12095   2.719   1.834   5.390  2.3199  0.8523 -1.7592
  116OSM   H17T12096   2.841   1.756   5.508  3.0835  1.7530  1.5588
  116OSM   C18S12097   2.926   1.884   5.348 -0.0499  0.0655  0.1589
  116OSM   H18S12098   2.892   1.967   5.282 -1.0086 -0.9685 -0.7035
  116OSM   H18T12099   2.950   1.791   5.293 -3.3932 -1.4764  1.0646
  116OSM   H18U12100   3.016   1.919   5.403  0.9786  0.5474 -1.7091
  116OSM    C1F12101   3.343   1.976   6.783 -0.6386  0.0191  0.0844
  116OSM     OF12102   3.401   1.878   6.826  0.2801  0.0820 -0.0965
  116OSM    C2F12103   3.402   2.060   6.676 -0.1926 -0.3734 -0.5106
  116OSM    H2F12104   3.508   2.089   6.691 -0.3231 -0.1871  0.0821
  116OSM    H2G12105   3.342   2.152   6.658 -0.6323 -0.6296 -0.3632
  116OSM    C3F12106   3.406   1.982   6.539 -0.0241  0.7970 -0.0665
  116OSM    H3F12107   3.307   1.934   6.522 -0.7677  2.1922  0.1554
  116OSM    H3G12108   3.473   1.894   6.533  1.5197  1.8717  0.5311
  116OSM    C4F12109   3.449   2.068   6.417 -0.4101 -0.2046 -0.4763
  116OSM    H4F12110   3.548   2.110   6.442  0.5672 -1.2908 -2.3014
  116OSM    H4G12111   3.370   2.147   6.416 -1.9602 -1.6703  0.8194
  116OSM    C5F12112   3.459   2.004   6.280  0.0197  0.1336 -0.0993
  116OSM    H5F12113   3.553   1.945   6.278 -0.8346 -1.3166  0.5314
  116OSM    H5G12114   3.470   2.077   6.198  2.4030 -1.1013 -0.9804
  116OSM    C6F12115   3.339   1.916   6.247  0.5412  0.9278 -0.3886
  116OSM    H6F12116   3.239   1.959   6.270 -0.2811 -0.1986 -1.7500
  116OSM    H6G12117   3.346   1.826   6.312 -1.5457  2.6775  2.5158
  116OSM    C7F12118   3.350   1.864   6.105 -0.5498 -0.7040 -0.5355
  116OSM    H7F12119   3.320   1.762   6.073  1.0624 -0.6480 -2.4652
  116OSM    H7G12120   3.458   1.847   6.082  0.2402  1.4055  1.3013
  116OSM    C8F12121   3.306   1.968   5.996  0.2649  0.3736  0.0202
  116OSM    H8F12122   3.366   1.955   5.903 -0.6018  1.0253 -0.6550
  116OSM    H8G12123   3.337   2.069   6.031  1.0603  0.2583 -0.3240
  116OSM    C9F12124   3.157   1.957   5.971 -0.7720 -0.3011  0.1222
  116OSM    H9F12125   3.097   1.959   6.063 -0.8324 -0.6933  0.0922
  116OSM   C10F12126   3.095   1.942   5.854 -0.0570  0.9014 -0.5722
  116OSM   H10F12127   2.985   1.947   5.854 -0.1992 -1.2858 -1.0358
  116OSM   C11F12128   3.157   1.939   5.718 -0.6091  0.0591 -0.0120
  116OSM   H11F12129   3.258   1.985   5.715 -0.5722  0.0177  0.6409
  116OSM   H11G12130   3.113   2.009   5.642 -0.7724 -3.1522 -3.1427
  116OSM   C12F12131   3.159   1.798   5.656 -0.5956 -0.4421  0.0924
  116OSM   H12F12132   3.204   1.814   5.555  1.5600  1.4351  1.2571
  116OSM   H12G12133   3.059   1.753   5.639  0.5525 -3.3956  0.5427
  116OSM   C13F12134   3.264   1.699   5.728 -0.0586  0.1135  0.2713
  116OSM   H13F12135   3.264   1.696   5.839  0.0255 -0.6045  0.2550
  116OSM   H13G12136   3.357   1.758   5.711 -1.0238  1.6749  0.1635
  116OSM   C14F12137   3.259   1.561   5.669  0.1147  0.1845 -0.0656
  116OSM   H14F12138   3.155   1.525   5.684  1.0711 -2.4674  0.7497
  116OSM   H14G12139   3.325   1.489   5.722  0.4178 -0.5135 -1.3347
  116OSM   C15F12140   3.272   1.548   5.517  0.1069  0.4740  0.1360
  116OSM   H15F12141   3.181   1.590   5.469  0.4877  1.4090  0.1965
  116OSM   H15G12142   3.275   1.439   5.496  1.0651  0.1552  1.7574
  116OSM   C16F12143   3.394   1.609   5.457 -0.4583  0.4189  0.4055
  116OSM   H16F12144   3.491   1.565   5.490 -0.8172 -0.5615  0.1828
  116OSM   H16G12145   3.397   1.715   5.488 -1.8973  0.0079  2.0906
  116OSM   C17F12146   3.392   1.597   5.299 -0.5655 -0.0033 -0.4003
  116OSM   H17F12147   3.320   1.672   5.259 -0.3595 -0.7673 -2.3078
  116OSM   H17G12148   3.367   1.492   5.274  1.0223 -1.1342  2.3142
  116OSM   C18F12149   3.526   1.628   5.241 -1.3413 -0.3412 -0.5436
  116OSM   H18F12150   3.569   1.722   5.281  0.1134 -0.9809 -0.5639
  116OSM   H18G12151   3.538   1.633   5.130  0.4802 -0.3379 -0.3712
  116OSM   H18H12152   3.602   1.556   5.277  0.7163  0.7943 -2.4066
  117OSM      N12153   1.871   5.210   7.147 -0.2099 -0.5292 -0.4157
  117OSM    C1512154   1.925   5.147   7.017  0.6023  0.1986 -0.8934
  117OSM   H15A12155   1.844   5.092   6.971  0.8395 -0.7709 -0.2014
  117OSM   H15B12156   2.013   5.087   7.036  1.2264  1.0674 -0.9558
  117OSM   H15C12157   1.960   5.223   6.949  0.8542  0.2717 -0.6853
  117OSM    C1412158   1.820   5.098   7.236  0.5004 -0.2614  0.1200
  117OSM   H14A12159   1.737   5.051   7.186 -2.9833  1.0001  4.0745
  117OSM   H14B12160   1.791   5.138   7.332  1.7178 -0.3977  0.5739
  117OSM   H14C12161   1.893   5.019   7.247  0.4288 -0.4329 -0.6364
  117OSM    C1312162   1.982   5.275   7.226  0.1475 -0.1483  0.7562
  117OSM   H13A12163   1.954   5.342   7.305  0.0320  2.5495 -1.4414
  117OSM   H13B12164   2.041   5.334   7.157  2.2285 -2.1935  0.6574
  117OSM   H13C12165   2.051   5.203   7.269 -1.8584 -1.4773  1.9410
  117OSM    C1212166   1.767   5.314   7.113 -0.5512  1.0148 -0.7693
  117OSM   H12A12167   1.687   5.264   7.059 -0.8287 -1.5325  1.7449
  117OSM   H12B12168   1.810   5.376   7.036 -3.3216 -1.6143 -4.8948
  117OSM    C1112169   1.698   5.391   7.228 -0.4360  0.1481 -0.4958
  117OSM   H11A12170   1.654   5.314   7.295 -0.2773  1.8606  1.6940
  117OSM   H11B12171   1.617   5.459   7.194  0.1582  0.5977 -1.0303
  117OSM      P12172   1.809   5.617   7.288  0.3078 -0.3215  0.0341
  117OSM    O1312173   1.728   5.683   7.395 -0.4188 -0.4541 -0.2103
  117OSM    O1412174   1.953   5.645   7.281 -0.1698 -0.5111  0.2265
  117OSM    O1112175   1.749   5.649   7.144 -0.3165 -0.8024 -0.4707
  117OSM    O1212176   1.793   5.461   7.304  0.0421  0.2111 -0.7300
  117OSM    C1S12177   1.813   5.648   7.019 -0.2597  0.4500 -0.0324
  117OSM    H1S12178   1.874   5.555   7.007 -0.3698  0.2216  1.0296
  117OSM    H1T12179   1.884   5.732   7.006  0.8019  0.0361  2.3617
  117OSM     NF12180   1.781   5.617   6.777  0.4544 -0.0974  0.8349
  117OSM    HNF12181   1.782   5.684   6.703 -1.2026 -0.9926 -0.0476
  117OSM    C2S12182   1.710   5.643   6.905 -0.1118 -0.7413  0.0315
  117OSM    H2S12183   1.628   5.568   6.910 -1.2618  0.5340  1.3752
  117OSM    C3S12184   1.631   5.780   6.900 -0.8867 -0.2112  0.2070
  117OSM    H3S12185   1.709   5.856   6.920 -2.9441  2.1792 -0.3095
  117OSM     O312186   1.537   5.796   7.009 -0.0134  0.3103  0.4044
  117OSM    HO312187   1.553   5.710   7.048  2.6382 -0.5554 -2.1986
  117OSM    C4S12188   1.565   5.803   6.768  0.2419 -0.5813  0.1375
  117OSM    H4S12189   1.633   5.838   6.688 -3.7306  3.6587 -1.8733
  117OSM    C5S12190   1.437   5.792   6.733  0.3171  0.2538 -0.2519
  117OSM    H5S12191   1.373   5.745   6.810 -1.6696 -0.7961 -2.4086
  117OSM    C6S12192   1.378   5.817   6.601 -0.0287 -0.7209  0.0471
  117OSM    H6S12193   1.359   5.924   6.578 -0.1272 -1.0020 -1.2642
  117OSM    H6T12194   1.275   5.776   6.606  0.0592 -0.8330  1.1226
  117OSM    C7S12195   1.456   5.767   6.474  0.4105  0.8614  0.0236
  117OSM    H7S12196   1.490   5.665   6.504 -1.4680  0.3916  0.6680
  117OSM    H7T12197   1.547   5.827   6.449  1.2284 -0.6327 -0.7470
  117OSM    C8S12198   1.368   5.757   6.350  0.4789 -0.1746  0.7102
  117OSM    H8S12199   1.317   5.854   6.334 -0.2518 -0.2523  2.3337
  117OSM    H8T12200   1.293   5.678   6.375  0.5964 -0.1999  0.9874
  117OSM    C9S12201   1.456   5.735   6.226  0.0642 -1.1033  0.0868
  117OSM    H9S12202   1.520   5.646   6.243 -0.2845 -1.0770  1.6164
  117OSM    H9T12203   1.520   5.824   6.204  1.0482 -2.2172 -1.8130
  117OSM   C10S12204   1.379   5.723   6.097 -0.6779  0.6414 -0.0403
  117OSM   H10S12205   1.325   5.819   6.080 -0.4619  0.4199 -2.2822
  117OSM   H10T12206   1.307   5.639   6.100 -0.6831  0.5903 -1.2499
  117OSM   C11S12207   1.465   5.690   5.971 -0.5648 -0.0079 -0.5225
  117OSM   H11S12208   1.505   5.586   5.978 -0.7630 -0.0844 -0.5090
  117OSM   H11T12209   1.550   5.762   5.969 -1.1065  0.6553 -0.0852
  117OSM   C12S12210   1.391   5.692   5.837 -0.0544 -0.1623  0.1515
  117OSM   H12S12211   1.328   5.783   5.845  1.0843  0.4943  3.8992
  117OSM   H12T12212   1.331   5.600   5.825  1.0581 -1.0828  1.3187
  117OSM   C13S12213   1.488   5.722   5.721 -0.6516 -0.2465 -0.6644
  117OSM   H13S12214   1.553   5.632   5.715 -1.8887 -1.2601  0.5583
  117OSM   H13T12215   1.553   5.809   5.743 -0.3156 -0.8218  0.7086
  117OSM   C14S12216   1.405   5.754   5.601 -0.2819  0.0623  0.4715
  117OSM   H14S12217   1.330   5.836   5.609 -0.7928 -0.2254 -1.0805
  117OSM   H14T12218   1.344   5.664   5.578 -0.6755  0.0407  1.5069
  117OSM   C15S12219   1.500   5.790   5.481 -0.1166  0.8786 -0.4548
  117OSM   H15S12220   1.573   5.708   5.466 -0.5024  0.2542  0.8687
  117OSM   H15T12221   1.568   5.877   5.498  1.4501 -0.3676 -0.1402
  117OSM   C16S12222   1.430   5.814   5.349  0.6039 -0.9449 -0.0468
  117OSM   H16S12223   1.503   5.820   5.266  0.0738  0.4359 -0.4447
  117OSM   H16T12224   1.381   5.912   5.365 -0.6184 -1.6573  0.7357
  117OSM   C17S12225   1.328   5.709   5.297  0.0775  0.4729 -0.1233
  117OSM   H17S12226   1.271   5.770   5.224  1.0168  0.9728 -0.4543
  117OSM   H17T12227   1.259   5.673   5.376 -1.3096  1.1803 -0.9669
  117OSM   C18S12228   1.392   5.593   5.218 -1.0959 -0.6361 -0.4874
  117OSM   H18S12229   1.486   5.626   5.169 -0.7746  0.5852  0.8649
  117OSM   H18T12230   1.324   5.529   5.159 -0.7534 -0.3183 -1.2373
  117OSM   H18U12231   1.430   5.516   5.289 -1.7082  0.4923  1.1361
  117OSM    C1F12232   1.854   5.507   6.751  0.2822  0.3732  0.4137
  117OSM     OF12233   1.858   5.410   6.829  0.2186  0.6157  0.0788
  117OSM    C2F12234   1.927   5.513   6.614 -0.0022 -0.0125  0.3709
  117OSM    H2F12235   1.998   5.428   6.611  1.2119  0.6708 -6.0278
  117OSM    H2G12236   1.985   5.607   6.606 -0.1525  0.1730  1.3738
  117OSM    C3F12237   1.845   5.496   6.485  0.0984  0.4208  1.0819
  117OSM    H3F12238   1.791   5.591   6.465  0.3727  0.4540  0.4765
  117OSM    H3G12239   1.779   5.407   6.491  0.1308  0.3725  0.7710
  117OSM    C4F12240   1.939   5.472   6.370 -0.9075  0.0033  0.7544
  117OSM    H4F12241   1.998   5.379   6.384 -0.6361  0.1768  0.7829
  117OSM    H4G12242   2.016   5.551   6.357 -0.5735 -0.5577 -0.8920
  117OSM    C5F12243   1.870   5.467   6.239  0.0843  0.3155  1.1444
  117OSM    H5F12244   1.815   5.560   6.213 -1.6659 -1.0986 -0.5254
  117OSM    H5G12245   1.784   5.397   6.237 -1.0056  1.6223 -0.5990
  117OSM    C6F12246   1.963   5.441   6.118  0.3445 -0.0628  0.1840
  117OSM    H6F12247   2.031   5.359   6.150 -0.6888 -0.0872  2.5611
  117OSM    H6G12248   2.017   5.528   6.076  1.1701 -0.8019 -0.3089
  117OSM    C7F12249   1.875   5.390   6.002 -0.8671 -0.4686  0.2237
  117OSM    H7F12250   1.782   5.449   5.988  0.2785  1.2839 -0.3071
  117OSM    H7G12251   1.842   5.287   6.028 -1.6715 -0.4160 -0.5240
  117OSM    C8F12252   1.962   5.379   5.884  0.1014  0.0296  0.1130
  117OSM    H8F12253   2.058   5.328   5.908 -0.5902 -3.4755 -3.4476
  117OSM    H8G12254   1.990   5.477   5.840  1.0642 -0.4535 -0.3740
  117OSM    C9F12255   1.897   5.288   5.786  0.1019  0.2955  0.1118
  117OSM    H9F12256   1.880   5.186   5.824  0.5146  0.3858  0.5461
  117OSM   C10F12257   1.867   5.319   5.663 -0.7646  0.3639  0.0745
  117OSM   H10F12258   1.811   5.246   5.603 -0.5392  0.0549  0.2298
  117OSM   C11F12259   1.910   5.445   5.588 -0.4517  0.4592 -0.0751
  117OSM   H11F12260   1.991   5.506   5.632  0.9958  0.3804 -2.4689
  117OSM   H11G12261   1.832   5.524   5.581 -0.3398  0.6729  0.9275
  117OSM   C12F12262   1.960   5.410   5.442  0.4328 -0.2257 -0.1320
  117OSM   H12F12263   2.014   5.314   5.432 -1.4110 -1.3885  0.5643
  117OSM   H12G12264   2.015   5.495   5.397 -1.9329  1.8413  0.6209
  117OSM   C13F12265   1.837   5.382   5.353 -0.1618  0.2063  0.5692
  117OSM   H13F12266   1.766   5.467   5.350  0.0859  0.3974  0.1622
  117OSM   H13G12267   1.777   5.300   5.399 -0.0672  0.3164  0.8915
  117OSM   C14F12268   1.887   5.332   5.222  0.1480 -1.1241 -0.6961
  117OSM   H14F12269   1.993   5.364   5.216  0.1130 -0.8318  0.1248
  117OSM   H14G12270   1.824   5.377   5.142  1.4148 -0.3731 -1.3132
  117OSM   C15F12271   1.877   5.178   5.218 -0.2366 -0.2482 -0.4767
  117OSM   H15F12272   1.776   5.157   5.259 -0.1677 -0.0727 -0.2171
  117OSM   H15G12273   1.953   5.144   5.291  1.1485  0.7308 -1.3933
  117OSM   C16F12274   1.912   5.118   5.076 -0.1687  0.5172 -1.1765
  117OSM   H16F12275   1.916   5.009   5.095 -1.7841  0.5148 -0.7030
  117OSM   H16G12276   2.014   5.134   5.034 -0.0842  0.3148 -1.0468
  117OSM   C17F12277   1.809   5.147   4.962  0.0099 -0.0179  0.7977
  117OSM   H17F12278   1.818   5.256   4.940 -2.1627 -0.2409 -1.7090
  117OSM   H17G12279   1.707   5.113   4.990 -0.5304  0.9951  0.1186
  117OSM   C18F12280   1.854   5.074   4.838  0.3391 -0.0989  0.9867
  117OSM   H18F12281   1.958   5.093   4.804 -0.6522  1.5144 -1.4103
  117OSM   H18G12282   1.792   5.106   4.751  2.8956 -0.5557 -1.1252
  117OSM   H18H12283   1.825   4.970   4.864 -0.1148  0.3997  2.5900
  118OSM      N12284   2.214   3.683   7.115 -0.4163 -0.1386  0.0610
  118OSM    C1512285   2.337   3.602   7.147  0.3031 -0.6685 -0.6201
  118OSM   H15A12286   2.343   3.589   7.254 -1.6084 -0.2515 -0.4217
  118OSM   H15B12287   2.424   3.662   7.127 -1.2466  1.3551 -1.7201
  118OSM   H15C12288   2.346   3.511   7.089  1.9601  0.1799 -1.7776
  118OSM    C1412289   2.226   3.702   6.963  0.4967 -0.1870 -0.8423
  118OSM   H14A12290   2.128   3.719   6.921  0.0048 -0.3566  0.2054
  118OSM   H14B12291   2.262   3.611   6.918  0.4311 -0.5514 -0.1670
  118OSM   H14C12292   2.289   3.787   6.941 -1.2792  1.5414  0.3687
  118OSM    C1312293   2.096   3.606   7.159  0.1274  0.4548  0.7603
  118OSM   H13A12294   2.075   3.521   7.095 -1.0889  1.8457 -0.7913
  118OSM   H13B12295   2.005   3.663   7.149  0.2388  0.2290 -3.1418
  118OSM   H13C12296   2.103   3.579   7.263  0.6361 -2.4325  0.0569
  118OSM    C1212297   2.226   3.821   7.178  0.6994 -0.4610 -0.6772
  118OSM   H12A12298   2.325   3.863   7.165  0.0373  1.0038 -1.2503
  118OSM   H12B12299   2.219   3.806   7.285  0.7137 -0.6932 -0.7090
  118OSM    C1112300   2.125   3.924   7.127 -0.1554  0.2086 -0.5296
  118OSM   H11A12301   2.146   3.943   7.019 -0.5329  0.7273 -0.5167
  118OSM   H11B12302   2.133   4.023   7.178  1.4129 -0.1301 -0.0620
  118OSM      P12303   1.869   3.956   7.113  0.0418  0.2083  0.0035
  118OSM    O1312304   1.755   3.911   7.192  0.2326 -0.3558 -0.1050
  118OSM    O1412305   1.897   4.102   7.114 -0.5659 -0.2488  0.2993
  118OSM    O1112306   1.844   3.901   6.963 -0.0455  0.2240 -0.1518
  118OSM    O1212307   1.998   3.869   7.150  0.2025  0.4890 -0.3580
  118OSM    C1S12308   1.819   3.765   6.945  0.1920  0.5684  0.1452
  118OSM    H1S12309   1.716   3.743   6.981  1.0566 -1.1277  1.7359
  118OSM    H1T12310   1.891   3.693   6.989  0.7816  1.4224  0.5949
  118OSM     NF12311   1.753   3.600   6.754  0.0446  0.2285 -0.4804
  118OSM    HNF12312   1.814   3.530   6.720 -0.5362 -0.3329 -0.3788
  118OSM    C2S12313   1.807   3.730   6.786 -0.0122 -0.4327  0.9945
  118OSM    H2S12314   1.741   3.801   6.732  0.7200  0.3209  1.0624
  118OSM    C3S12315   1.947   3.753   6.722 -0.1442 -1.1247 -0.6579
  118OSM    H3S12316   2.013   3.670   6.754  0.0133 -0.4838  0.7373
  118OSM     O312317   2.015   3.875   6.769 -0.3270  0.2454  0.2247
  118OSM    HO312318   1.960   3.902   6.843  0.2315  1.8482  0.0825
  118OSM    C4S12319   1.945   3.766   6.570  0.3566 -0.0139 -0.6117
  118OSM    H4S12320   1.918   3.866   6.533 -2.8491 -1.3960 -2.3199
  118OSM    C5S12321   1.968   3.667   6.482  0.5525 -0.6429 -0.4169
  118OSM    H5S12322   1.998   3.568   6.521  3.6331 -0.0559 -0.9952
  118OSM    C6S12323   1.962   3.688   6.336  0.1901 -0.1408  0.7463
  118OSM    H6S12324   2.031   3.769   6.303 -0.9981  1.4326  1.9831
  118OSM    H6T12325   1.870   3.747   6.313 -0.1385 -1.1677 -0.7096
  118OSM    C7S12326   1.949   3.573   6.231 -0.0308 -0.4851  0.7258
  118OSM    H7S12327   1.849   3.526   6.234  0.0414 -0.7015  0.0749
  118OSM    H7T12328   2.023   3.491   6.242 -0.3537 -0.8640  0.1439
  118OSM    C8S12329   1.955   3.640   6.091  0.1861  0.1984 -0.4616
  118OSM    H8S12330   2.056   3.688   6.091 -0.0630  0.8205 -2.3282
  118OSM    H8T12331   1.879   3.718   6.070 -0.7442 -0.5511  0.0760
  118OSM    C9S12332   1.959   3.538   5.973 -0.4464  0.3944 -0.5638
  118OSM    H9S12333   1.863   3.483   5.967  0.5090 -1.2157 -1.9286
  118OSM    H9T12334   2.025   3.455   6.007  1.1086  1.6874 -0.3063
  118OSM   C10S12335   1.985   3.603   5.843 -0.3562  0.5616  0.4682
  118OSM   H10S12336   2.087   3.647   5.840  0.4556 -1.2328  0.7000
  118OSM   H10T12337   1.909   3.679   5.816  1.0230  2.1063  0.7886
  118OSM   C11S12338   1.988   3.501   5.729  0.0333 -0.3886 -0.1555
  118OSM   H11S12339   1.912   3.421   5.737 -0.7854  0.2644 -1.0930
  118OSM   H11T12340   2.084   3.446   5.741  0.5842  0.9316  2.2804
  118OSM   C12S12341   1.999   3.562   5.591 -0.6232 -0.0826 -0.1167
  118OSM   H12S12342   2.091   3.625   5.581 -1.8608  1.4241 -3.6887
  118OSM   H12T12343   1.912   3.626   5.567 -0.8471 -0.0565  0.7367
  118OSM   C13S12344   2.015   3.445   5.489 -0.2320 -0.3851 -0.4463
  118OSM   H13S12345   1.920   3.387   5.496  0.4556 -1.8763 -2.5116
  118OSM   H13T12346   2.091   3.372   5.524 -0.8676 -1.8605 -2.0116
  118OSM   C14S12347   2.026   3.492   5.340 -0.4665  0.4180 -0.1736
  118OSM   H14S12348   2.025   3.392   5.291 -0.8038 -0.3516  1.3224
  118OSM   H14T12349   2.120   3.548   5.319 -1.2933  2.0071  0.2629
  118OSM   C15S12350   1.912   3.583   5.285  0.5653 -0.5146  0.3760
  118OSM   H15S12351   1.925   3.676   5.343  1.3009 -0.2525 -0.1855
  118OSM   H15T12352   1.811   3.537   5.298 -0.9062  1.5202 -2.7016
  118OSM   C16S12353   1.936   3.605   5.134 -0.7761  0.2961  0.3119
  118OSM   H16S12354   1.881   3.522   5.085 -2.7384  1.6219  0.1299
  118OSM   H16T12355   2.045   3.600   5.115 -0.7192  1.5377  0.2053
  118OSM   C17S12356   1.886   3.732   5.075 -1.0169 -0.2192 -0.4885
  118OSM   H17S12357   1.776   3.736   5.089 -1.0276  5.1151  0.2720
  118OSM   H17T12358   1.913   3.742   4.968 -0.3954  1.4521 -0.2061
  118OSM   C18S12359   1.947   3.862   5.138  0.1585 -0.2587  0.3684
  118OSM   H18S12360   1.875   3.947   5.139  2.3766  1.7619  1.9769
  118OSM   H18T12361   2.047   3.885   5.096  1.5750 -1.7872  2.6347
  118OSM   H18U12362   1.960   3.844   5.247 -1.3196 -0.3454  0.5543
  118OSM    C1F12363   1.625   3.572   6.771 -0.9804  0.0597 -0.9036
  118OSM     OF12364   1.561   3.645   6.846 -0.1344  0.3857 -0.1058
  118OSM    C2F12365   1.567   3.456   6.702 -0.3944  0.1528 -0.0565
  118OSM    H2F12366   1.481   3.431   6.768 -0.5163  4.0870  1.5232
  118OSM    H2G12367   1.637   3.370   6.700  0.1585  0.5004  2.0732
  118OSM    C3F12368   1.497   3.483   6.562  0.4074 -0.1582  0.5528
  118OSM    H3F12369   1.415   3.556   6.581 -0.6376 -0.9301 -0.7833
  118OSM    H3G12370   1.442   3.393   6.529  1.8523 -0.8761  0.0073
  118OSM    C4F12371   1.595   3.521   6.448  0.7194 -0.2667 -0.4154
  118OSM    H4F12372   1.654   3.427   6.442 -0.8832 -1.4543  1.0053
  118OSM    H4G12373   1.670   3.597   6.476  0.9254 -0.6051 -0.0334
  118OSM    C5F12374   1.537   3.552   6.312 -0.4288  0.3134  0.3064
  118OSM    H5F12375   1.622   3.579   6.246  0.4426 -0.0651  1.2393
  118OSM    H5G12376   1.482   3.648   6.318  0.8900  1.1721 -0.7077
  118OSM    C6F12377   1.451   3.444   6.250  0.5462  0.2572  0.1886
  118OSM    H6F12378   1.359   3.439   6.313 -0.2435  1.1981 -0.8559
  118OSM    H6G12379   1.513   3.352   6.259  2.3034  1.4456  0.8007
  118OSM    C7F12380   1.415   3.460   6.102  0.2510  0.3721  0.1196
  118OSM    H7F12381   1.333   3.535   6.102  0.9143  1.1057  0.3440
  118OSM    H7G12382   1.370   3.366   6.063  2.2649  0.1555 -1.9357
  118OSM    C8F12383   1.525   3.497   6.003 -0.4861  0.0389  0.0655
  118OSM    H8F12384   1.624   3.455   6.033 -0.4628  0.2130  0.2294
  118OSM    H8G12385   1.536   3.607   6.007 -1.8044  0.2583 -1.3335
  118OSM    C9F12386   1.497   3.469   5.856 -0.3896  0.2006 -0.2142
  118OSM    H9F12387   1.469   3.364   5.838  0.3147 -0.6127  2.7724
  118OSM   C10F12388   1.496   3.543   5.747 -0.1174  0.4664 -0.6503
  118OSM   H10F12389   1.494   3.495   5.649  0.9690 -1.1344  0.0536
  118OSM   C11F12390   1.555   3.687   5.747 -0.1358  0.6010 -0.6749
  118OSM   H11F12391   1.624   3.688   5.834 -2.4328 -1.5508  1.3412
  118OSM   H11G12392   1.468   3.757   5.753 -2.6379 -2.2201 -1.7077
  118OSM   C12F12393   1.627   3.724   5.614  0.6537 -0.7551  0.0819
  118OSM   H12F12394   1.670   3.628   5.576 -2.5982 -1.6043 -1.7992
  118OSM   H12G12395   1.702   3.805   5.622  0.5095 -0.7126  1.1590
  118OSM   C13F12396   1.522   3.774   5.509 -0.2270  0.0911 -0.4986
  118OSM   H13F12397   1.498   3.883   5.512 -0.9594 -0.0372 -1.4071
  118OSM   H13G12398   1.431   3.716   5.534 -0.6124  0.4046 -1.1545
  118OSM   C14F12399   1.553   3.740   5.360 -0.2062 -0.1354  0.0408
  118OSM   H14F12400   1.573   3.633   5.340 -0.9109 -0.4470  0.9259
  118OSM   H14G12401   1.643   3.797   5.331 -0.5057  1.5336  2.1452
  118OSM   C15F12402   1.444   3.791   5.264 -0.1561 -0.0671 -0.3370
  118OSM   H15F12403   1.444   3.899   5.289  1.4406  0.2899 -1.7160
  118OSM   H15G12404   1.345   3.746   5.288 -0.6930  0.3549 -1.6830
  118OSM   C16F12405   1.470   3.769   5.115 -0.1264 -0.1361 -0.4733
  118OSM   H16F12406   1.483   3.659   5.102 -2.3954 -0.2331 -2.7341
  118OSM   H16G12407   1.566   3.817   5.089 -0.2712  2.4131  2.9794
  118OSM   C17F12408   1.355   3.813   5.030  0.8986 -0.0136  0.4629
  118OSM   H17F12409   1.339   3.918   5.063  3.8992  2.3842 -4.5489
  118OSM   H17G12410   1.268   3.747   5.047 -0.9053  2.3936  1.0550
  118OSM   C18F12411   1.376   3.815   4.877  0.2725 -0.1288 -0.4013
  118OSM   H18F12412   1.469   3.870   4.851 -0.4542  1.4119  0.1645
  118OSM   H18G12413   1.289   3.852   4.818  1.7979  1.9653 -1.4405
  118OSM   H18H12414   1.372   3.709   4.843 -0.5096  0.6260 -2.9134
  119OSM      N12415   4.119   6.247   7.546 -0.7278  0.0777 -0.1611
  119OSM    C1512416   4.179   6.305   7.677 -0.0377  0.5155 -0.0598
  119OSM   H15A12417   4.125   6.394   7.708 -2.5800 -1.6237  2.1269
  119OSM   H15B12418   4.284   6.331   7.679  0.3327 -0.9319  0.4380
  119OSM   H15C12419   4.180   6.233   7.758  1.1956  0.5982  0.0219
  119OSM    C1412420   4.204   6.125   7.503 -0.5171 -0.4189  0.1473
  119OSM   H14A12421   4.163   6.085   7.411 -1.4481 -0.0715  0.3980
  119OSM   H14B12422   4.198   6.053   7.584  1.4536  2.6706  3.3086
  119OSM   H14C12423   4.305   6.151   7.476 -0.2040 -1.9098 -0.2563
  119OSM    C1312424   3.985   6.184   7.570 -0.5485 -0.1743 -0.7649
  119OSM   H13A12425   4.006   6.103   7.639  0.3828  0.5124 -0.2220
  119OSM   H13B12426   3.947   6.154   7.474  0.0203  3.5765 -2.3268
  119OSM   H13C12427   3.918   6.255   7.616 -0.6991 -1.3603  0.9781
  119OSM    C1212428   4.121   6.361   7.448 -0.2277  0.3224 -0.5317
  119OSM   H12A12429   4.225   6.389   7.448 -0.6416  1.9996  0.3297
  119OSM   H12B12430   4.064   6.438   7.499 -0.5677  0.8869 -1.7195
  119OSM    C1112431   4.071   6.330   7.306  0.2234 -0.0997  0.3077
  119OSM   H11A12432   4.120   6.241   7.262  1.3708  0.3565  0.6273
  119OSM   H11B12433   4.112   6.413   7.244 -0.4815  0.7091  0.8919
  119OSM      P12434   3.849   6.445   7.246  0.2791  0.0390  0.0235
  119OSM    O1312435   3.708   6.411   7.267  0.2594 -0.1549  0.3348
  119OSM    O1412436   3.899   6.563   7.309  0.4751 -0.5913  0.0330
  119OSM    O1112437   3.892   6.457   7.098 -0.3005  0.5243 -0.5792
  119OSM    O1212438   3.929   6.318   7.294 -0.0646 -0.1878 -0.1232
  119OSM    C1S12439   3.854   6.343   7.015 -0.6195  0.9234  0.7182
  119OSM    H1S12440   3.781   6.269   7.055  0.1305  0.7200  1.7670
  119OSM    H1T12441   3.952   6.293   7.004 -0.7324  0.7782  0.3690
  119OSM     NF12442   3.757   6.273   6.799  0.0572 -0.1587  0.4523
  119OSM    HNF12443   3.836   6.227   6.758  0.0162  0.8555 -0.8214
  119OSM    C2S12444   3.797   6.388   6.878  0.2839 -0.8605 -0.2636
  119OSM    H2S12445   3.707   6.452   6.893  0.9829  1.0396 -3.3959
  119OSM    C3S12446   3.907   6.479   6.815 -0.7328 -0.3583 -0.4742
  119OSM    H3S12447   3.996   6.415   6.796  1.3670  2.7420 -1.9441
  119OSM     O312448   3.962   6.588   6.890 -0.3135 -0.2866  0.5706
  119OSM    HO312449   3.955   6.553   6.980  1.5580 -1.7422  0.2278
  119OSM    C4S12450   3.865   6.528   6.684 -0.6053 -0.2315 -1.1754
  119OSM    H4S12451   3.789   6.607   6.695 -1.4425 -0.8944 -1.9398
  119OSM    C5S12452   3.923   6.504   6.563 -0.0703 -0.3437  0.1630
  119OSM    H5S12453   4.003   6.428   6.557  0.0706 -0.0876 -2.0745
  119OSM    C6S12454   3.884   6.573   6.432 -0.2271  0.6998  0.3218
  119OSM    H6S12455   3.973   6.625   6.391 -0.0055  0.0381 -0.0534
  119OSM    H6T12456   3.808   6.648   6.460  1.0149  2.6429 -1.2211
  119OSM    C7S12457   3.836   6.472   6.329 -0.2216  0.3631  0.2082
  119OSM    H7S12458   3.761   6.398   6.363 -1.0856  0.4558 -1.3934
  119OSM    H7T12459   3.927   6.413   6.301 -0.0158  1.2210 -1.0149
  119OSM    C8S12460   3.790   6.541   6.198  0.2657 -0.6281 -0.5270
  119OSM    H8S12461   3.860   6.621   6.165 -2.0095  1.8768  0.3402
  119OSM    H8T12462   3.691   6.591   6.201  0.2441 -0.4220 -2.8448
  119OSM    C9S12463   3.761   6.452   6.075  0.1188  0.0464  0.6600
  119OSM    H9S12464   3.671   6.392   6.102  0.9742 -1.2187  0.8342
  119OSM    H9T12465   3.844   6.386   6.043  0.9817  1.4968 -0.1846
  119OSM   C10S12466   3.737   6.542   5.955  0.4847  0.4582  0.6941
  119OSM   H10S12467   3.830   6.578   5.907 -0.2622  1.4800 -0.0340
  119OSM   H10T12468   3.661   6.615   5.990  0.1774 -0.2478  1.5349
  119OSM   C11S12469   3.665   6.451   5.852 -0.0690 -0.2411  0.4296
  119OSM   H11S12470   3.573   6.406   5.895 -0.4524 -1.5713 -1.5960
  119OSM   H11T12471   3.725   6.368   5.808 -1.3367  0.4637 -2.9289
  119OSM   C12S12472   3.631   6.525   5.715 -0.2856  0.3704  0.5199
  119OSM   H12S12473   3.561   6.607   5.744 -0.4472 -0.1141  1.5541
  119OSM   H12T12474   3.579   6.457   5.646 -1.0636  0.7080  0.7569
  119OSM   C13S12475   3.750   6.590   5.647  0.2894  0.0647  0.3651
  119OSM   H13S12476   3.840   6.527   5.662 -0.7502 -1.1977  1.6566
  119OSM   H13T12477   3.783   6.684   5.697 -0.5953 -0.8844  2.9078
  119OSM   C14S12478   3.731   6.609   5.492 -0.1682  0.0905  0.3398
  119OSM   H14S12479   3.651   6.686   5.486  0.3299  0.6252  0.4861
  119OSM   H14T12480   3.692   6.512   5.455  0.6267 -1.0078  2.2487
  119OSM   C15S12481   3.862   6.647   5.419  0.5151  0.0429  0.7154
  119OSM   H15S12482   3.930   6.560   5.416 -1.3675 -1.5128  1.2316
  119OSM   H15T12483   3.910   6.730   5.476  0.8446  0.9572 -0.8482
  119OSM   C16S12484   3.832   6.709   5.283 -0.3717 -0.5795  0.4907
  119OSM   H16S12485   3.906   6.790   5.266 -1.9723  0.5580 -1.6082
  119OSM   H16T12486   3.739   6.767   5.296 -0.7711 -1.7199  3.2868
  119OSM   C17S12487   3.831   6.608   5.162  0.1820  0.1217  0.1331
  119OSM   H17S12488   3.783   6.511   5.190  0.7822 -0.6386 -1.3553
  119OSM   H17T12489   3.928   6.567   5.129  0.6018  0.9410  0.3295
  119OSM   C18S12490   3.760   6.668   5.040 -0.8481 -0.7545  0.4392
  119OSM   H18S12491   3.791   6.773   5.027 -0.2668 -1.0174 -0.3975
  119OSM   H18T12492   3.650   6.676   5.050 -1.0285 -0.7112 -1.2127
  119OSM   H18U12493   3.768   6.605   4.948 -1.8395  2.3144 -1.9270
  119OSM    C1F12494   3.641   6.211   6.806  0.0898 -0.1639  0.4409
  119OSM     OF12495   3.560   6.243   6.892 -0.1455  0.1314 -0.4423
  119OSM    C2F12496   3.611   6.107   6.696  0.0147 -0.1040  0.1158
  119OSM    H2F12497   3.686   6.025   6.695  1.4395  1.1586 -1.3746
  119OSM    H2G12498   3.614   6.163   6.600 -2.0372 -0.9371 -0.4970
  119OSM    C3F12499   3.459   6.059   6.680  0.0516 -0.1424 -0.7184
  119OSM    H3F12500   3.395   6.148   6.661 -0.2710 -0.5032 -1.3591
  119OSM    H3G12501   3.429   6.008   6.774 -1.7237 -1.0876 -1.7552
  119OSM    C4F12502   3.453   5.967   6.555 -0.1189  0.0218 -0.4493
  119OSM    H4F12503   3.385   5.881   6.570  0.3468 -0.0075  1.9717
  119OSM    H4G12504   3.553   5.923   6.538 -1.1180 -2.0227 -1.2755
  119OSM    C5F12505   3.410   6.042   6.431  0.7745 -0.1108  0.3954
  119OSM    H5F12506   3.479   6.127   6.411  2.9863 -1.7499  0.6301
  119OSM    H5G12507   3.309   6.086   6.444  0.1474 -1.3856  0.0170
  119OSM    C6F12508   3.396   5.951   6.302  0.8169  0.5574  0.3654
  119OSM    H6F12509   3.348   5.858   6.341  1.2676  0.0741 -0.2003
  119OSM    H6G12510   3.496   5.916   6.270  0.1754 -1.6318  0.5170
  119OSM    C7F12511   3.305   6.002   6.193  0.2398  0.4782  0.3032
  119OSM    H7F12512   3.200   6.009   6.230 -0.4831  0.7522 -1.6759
  119OSM    H7G12513   3.298   5.922   6.116 -2.9815 -1.6890  2.5928
  119OSM    C8F12514   3.346   6.133   6.133 -0.4008  0.0540  0.1121
  119OSM    H8F12515   3.373   6.201   6.217  1.5240  1.6846 -1.6993
  119OSM    H8G12516   3.256   6.184   6.091 -1.3439  0.1875  2.1766
  119OSM    C9F12517   3.450   6.111   6.022  0.8241  0.6368 -0.1852
  119OSM    H9F12518   3.549   6.077   6.055  0.6164  0.6233  0.4348
  119OSM   C10F12519   3.445   6.137   5.901  0.2655 -0.4805  0.6241
  119OSM   H10F12520   3.529   6.111   5.835  0.9170  0.5867  1.0070
  119OSM   C11F12521   3.331   6.188   5.817  0.8465  0.1856 -0.6194
  119OSM   H11F12522   3.344   6.297   5.797  1.7627 -0.0354 -1.3083
  119OSM   H11G12523   3.235   6.168   5.869  0.9432 -1.1224 -0.9140
  119OSM   C12F12524   3.322   6.118   5.672  0.3507 -0.1370  0.1996
  119OSM   H12F12525   3.254   6.174   5.605  3.0209  4.0110  0.6242
  119OSM   H12G12526   3.297   6.011   5.693  1.3606 -0.3779  0.2748
  119OSM   C13F12527   3.455   6.123   5.593 -0.1049 -0.0355  0.1120
  119OSM   H13F12528   3.542   6.079   5.647  0.8482  0.7582 -0.7446
  119OSM   H13G12529   3.470   6.233   5.580 -0.6962  0.2688  1.7610
  119OSM   C14F12530   3.449   6.055   5.454  0.1776  0.4955 -0.2920
  119OSM   H14F12531   3.350   6.082   5.413 -0.8727 -0.0811  1.7646
  119OSM   H14G12532   3.443   5.946   5.478  0.2777  0.8806  1.6202
  119OSM   C15F12533   3.558   6.091   5.363 -0.4284  0.5701 -0.4278
  119OSM   H15F12534   3.650   6.031   5.382  0.8821  2.6609  0.1445
  119OSM   H15G12535   3.580   6.200   5.371  0.5518  0.2917  1.1844
  119OSM   C16F12536   3.525   6.049   5.220 -0.4629  0.0157 -0.0796
  119OSM   H16F12537   3.446   6.116   5.179 -0.2064  0.6914  0.5081
  119OSM   H16G12538   3.486   5.945   5.218  1.0470 -0.5817  0.3529
  119OSM   C17F12539   3.653   6.055   5.131  0.0694  0.1782  0.1220
  119OSM   H17F12540   3.726   5.992   5.187  0.3032 -1.2181 -1.6481
  119OSM   H17G12541   3.675   6.163   5.127  0.4981  0.1430  1.2518
  119OSM   C18F12542   3.618   5.991   4.986 -0.1078 -0.3088 -0.0265
  119OSM   H18F12543   3.706   5.994   4.919 -0.0256  1.6015  0.1094
  119OSM   H18G12544   3.541   6.057   4.940  0.3421 -0.8951 -1.6940
  119OSM   H18H12545   3.582   5.885   4.987 -0.2723 -0.2690  1.4648
  120OSM      N12546   5.704   6.782   7.325 -0.1580  0.6329 -0.0141
  120OSM    C1512547   5.691   6.791   7.473  0.2174  0.7072 -0.1242
  120OSM   H15A12548   5.622   6.722   7.519  0.7848 -1.2578 -2.0334
  120OSM   H15B12549   5.665   6.892   7.501 -1.6292  0.6297 -1.3646
  120OSM   H15C12550   5.788   6.773   7.515 -0.1914 -0.7944  0.2168
  120OSM    C1412551   5.577   6.797   7.265  0.1592  0.2339 -0.4916
  120OSM   H14A12552   5.511   6.718   7.298  0.1206  0.0785 -0.9342
  120OSM   H14B12553   5.577   6.790   7.157  2.0418  0.1032 -0.5283
  120OSM   H14C12554   5.517   6.883   7.292 -2.3988 -0.8030 -2.4285
  120OSM    C1312555   5.783   6.902   7.285 -0.4224  0.4780  0.3612
  120OSM   H13A12556   5.740   6.996   7.317  1.9724  1.5785  0.6359
  120OSM   H13B12557   5.792   6.907   7.178 -2.0433  0.3607  0.1929
  120OSM   H13C12558   5.885   6.908   7.322 -0.1901  2.4817 -0.4696
  120OSM    C1212559   5.776   6.652   7.292  0.2023 -0.3289  0.3672
  120OSM   H12A12560   5.713   6.581   7.342 -0.4802 -2.8222 -3.5898
  120OSM   H12B12561   5.876   6.664   7.331 -0.4768 -0.6142  2.3335
  120OSM    C1112562   5.764   6.615   7.139 -0.0730 -0.3026  0.4919
  120OSM   H11A12563   5.660   6.610   7.101 -0.4327  1.0683  1.2426
  120OSM   H11B12564   5.793   6.511   7.113  0.4412  0.2571 -1.3717
  120OSM      P12565   5.980   6.693   7.009 -0.4479 -0.0496  0.0845
  120OSM    O1312566   6.009   6.798   6.905  0.7675 -0.0236  0.2566
  120OSM    O1412567   6.067   6.686   7.129 -0.1707  0.2606  0.0678
  120OSM    O1112568   5.993   6.550   6.942 -0.3386  0.1030 -0.0399
  120OSM    O1212569   5.838   6.711   7.069 -0.0850 -0.7012 -0.1119
  120OSM    C1S12570   5.928   6.527   6.814  0.1262 -0.4482 -0.0508
  120OSM    H1S12571   5.919   6.618   6.752 -1.7686 -0.1250  0.6289
  120OSM    H1T12572   5.821   6.502   6.833 -0.2596  2.0809  1.5834
  120OSM     NF12573   5.956   6.422   6.589  0.0243  0.3300 -0.2461
  120OSM    HNF12574   5.890   6.348   6.578  1.3235 -1.4443  2.5907
  120OSM    C2S12575   6.000   6.417   6.732  0.2459  0.2180  0.2989
  120OSM    H2S12576   6.106   6.449   6.723 -0.1828  1.4955 -0.5430
  120OSM    C3S12577   5.991   6.282   6.803 -0.1814  0.0567  0.0073
  120OSM    H3S12578   5.885   6.250   6.792  0.1605 -0.4612 -2.1816
  120OSM     O312579   6.012   6.283   6.947  0.1626 -0.0471 -0.1786
  120OSM    HO312580   6.009   6.373   6.982  1.2159 -0.6855  1.7068
  120OSM    C4S12581   6.072   6.178   6.731  0.0089 -0.2957 -0.4831
  120OSM    H4S12582   6.010   6.101   6.682 -0.8545  0.7933 -1.1551
  120OSM    C5S12583   6.201   6.172   6.753  0.0036 -0.1791  0.1394
  120OSM    H5S12584   6.242   6.229   6.837  0.3148 -1.1994  0.6982
  120OSM    C6S12585   6.289   6.076   6.692  0.1160 -0.0987  0.5554
  120OSM    H6S12586   6.231   5.996   6.640  0.3119  0.0585  0.0906
  120OSM    H6T12587   6.346   6.017   6.767 -0.7444 -0.4864  0.9173
  120OSM    C7S12588   6.394   6.149   6.595  0.1750 -0.9005  0.4604
  120OSM    H7S12589   6.466   6.202   6.660 -1.4002  1.1516  0.6319
  120OSM    H7T12590   6.337   6.232   6.548 -1.1718 -0.3935  2.8445
  120OSM    C8S12591   6.449   6.050   6.491  0.1844 -0.0902  0.2321
  120OSM    H8S12592   6.366   6.012   6.428  0.5956  1.5756 -1.4291
  120OSM    H8T12593   6.503   5.971   6.548 -0.6752 -0.8351  0.0330
  120OSM    C9S12594   6.540   6.107   6.385 -0.3557 -0.4397  0.6922
  120OSM    H9S12595   6.502   6.193   6.326  2.3192  1.6084  1.7536
  120OSM    H9T12596   6.563   6.026   6.311  1.1750  1.4733 -1.0568
  120OSM   C10S12597   6.673   6.166   6.435  0.1057  0.2372  0.6710
  120OSM   H10S12598   6.747   6.088   6.465 -0.4583 -0.6135 -0.1023
  120OSM   H10T12599   6.658   6.225   6.528  1.4054 -0.0712  1.0953
  120OSM   C11S12600   6.733   6.258   6.330 -0.9870 -0.0765 -0.3494
  120OSM   H11S12601   6.830   6.299   6.367  0.7722 -2.3530 -2.1756
  120OSM   H11T12602   6.662   6.337   6.297  0.8340  1.2741 -1.1867
  120OSM   C12S12603   6.774   6.185   6.204  0.1104 -0.2929  0.6147
  120OSM   H12S12604   6.682   6.145   6.156  1.5915 -2.6398 -0.4376
  120OSM   H12T12605   6.836   6.096   6.226  0.8754  0.3756  1.1943
  120OSM   C13S12606   6.839   6.270   6.094  0.1910 -0.1713  0.6366
  120OSM   H13S12607   6.895   6.356   6.138  0.3571  0.8149 -1.4037
  120OSM   H13T12608   6.767   6.323   6.028  1.5446  0.1764 -0.6212
  120OSM   C14S12609   6.940   6.189   6.004 -0.1204  0.8065  0.0812
  120OSM   H14S12610   6.880   6.107   5.960 -1.2657  2.3480 -1.3518
  120OSM   H14T12611   7.025   6.149   6.064  1.3811  0.9575 -1.8315
  120OSM   C15S12612   6.981   6.261   5.878 -0.1744  0.5362 -0.4257
  120OSM   H15S12613   7.090   6.264   5.855  0.0408  2.1578  0.5996
  120OSM   H15T12614   6.949   6.367   5.894  0.1021  0.6245 -0.4475
  120OSM   C16S12615   6.920   6.210   5.750  0.0925  0.2305 -0.4295
  120OSM   H16S12616   6.969   6.115   5.719  1.4704  0.3202  1.3056
  120OSM   H16T12617   6.951   6.279   5.668  0.7301  3.1343  2.0795
  120OSM   C17S12618   6.770   6.205   5.751 -0.1091 -0.5585 -0.2990
  120OSM   H17S12619   6.724   6.299   5.787  1.0965  1.2344 -3.0458
  120OSM   H17T12620   6.733   6.120   5.812  0.6241 -1.5984 -1.2635
  120OSM   C18S12621   6.712   6.194   5.607  0.7427 -0.4180  0.0164
  120OSM   H18S12622   6.725   6.089   5.572  3.9954 -0.4457  0.9856
  120OSM   H18T12623   6.759   6.260   5.531 -0.1641 -1.4991 -1.5485
  120OSM   H18U12624   6.603   6.214   5.612  0.7373 -0.7787  2.1830
  120OSM    C1F12625   5.968   6.526   6.506  0.3235 -0.9402  0.1418
  120OSM     OF12626   6.033   6.624   6.542  0.2065  0.1314 -0.2029
  120OSM    C2F12627   5.902   6.513   6.373 -1.0350 -0.2172  0.6198
  120OSM    H2F12628   5.806   6.570   6.369 -1.6090 -1.2128 -0.3366
  120OSM    H2G12629   5.872   6.408   6.353 -0.4218 -0.1125 -1.0302
  120OSM    C3F12630   5.990   6.568   6.249 -0.2996  0.1565 -1.1811
  120OSM    H3F12631   6.092   6.523   6.254 -0.1756  0.4688 -0.8984
  120OSM    H3G12632   6.013   6.677   6.250 -0.2582  0.1932 -2.8748
  120OSM    C4F12633   5.939   6.518   6.112  0.0159 -0.0434  0.9880
  120OSM    H4F12634   5.835   6.555   6.107 -0.5737 -1.7051 -2.9644
  120OSM    H4G12635   5.940   6.407   6.106  0.6088 -0.0625  1.2956
  120OSM    C5F12636   6.020   6.574   5.993 -0.5999 -0.1986 -0.1147
  120OSM    H5F12637   6.122   6.530   5.985  0.1207  1.6896 -3.1689
  120OSM    H5G12638   6.035   6.682   6.011  0.3534  0.1027 -2.3208
  120OSM    C6F12639   5.956   6.559   5.850 -0.2063 -0.7179 -0.3289
  120OSM    H6F12640   5.856   6.608   5.846 -0.0717 -0.4332 -4.0058
  120OSM    H6G12641   5.951   6.450   5.829  2.2619 -0.9192 -0.2018
  120OSM    C7F12642   6.035   6.620   5.741  0.8234 -0.0302  0.2256
  120OSM    H7F12643   6.139   6.582   5.737  0.6133 -0.5264 -0.5457
  120OSM    H7G12644   6.037   6.729   5.764 -1.5821 -0.1657  1.3061
  120OSM    C8F12645   5.970   6.578   5.610  0.5887  0.1294 -0.0417
  120OSM    H8F12646   5.862   6.603   5.619  0.5396 -0.2193  0.3874
  120OSM    H8G12647   5.968   6.468   5.594 -2.8025  0.3277 -1.7378
  120OSM    C9F12648   6.033   6.661   5.507 -0.8092  0.9242  0.0229
  120OSM    H9F12649   6.117   6.730   5.525 -0.6305  0.0786  2.8199
  120OSM   C10F12650   5.993   6.652   5.376 -1.0514 -0.0463 -0.2242
  120OSM   H10F12651   6.046   6.718   5.306  1.5332 -2.2852 -0.5461
  120OSM   C11F12652   5.884   6.569   5.313  0.3883  0.1878 -0.8709
  120OSM   H11F12653   5.784   6.608   5.340 -0.3504 -2.2797  0.1988
  120OSM   H11G12654   5.892   6.463   5.343  0.9709  0.0627 -1.4398
  120OSM   C12F12655   5.892   6.581   5.155 -0.4680  0.3183  0.2222
  120OSM   H12F12656   5.897   6.686   5.120 -2.2584  0.2131 -0.4575
  120OSM   H12G12657   5.790   6.543   5.129 -0.9430  0.5581  1.6122
  120OSM   C13F12658   6.002   6.493   5.097  0.3094  0.6063 -0.1708
  120OSM   H13F12659   5.961   6.391   5.119  0.1402  0.9749  1.3170
  120OSM   H13G12660   6.101   6.515   5.141  0.7043 -0.5762 -0.4189
  120OSM   C14F12661   6.024   6.526   4.949 -0.1734  0.0873 -0.1030
  120OSM   H14F12662   6.084   6.619   4.958 -0.5653  0.1325  3.4521
  120OSM   H14G12663   5.928   6.553   4.901  0.2465  1.5145 -0.1917
  120OSM   C15F12664   6.107   6.418   4.883 -0.0985 -0.4819  0.4884
  120OSM   H15F12665   6.059   6.321   4.910 -2.5711 -0.2734 -2.5498
  120OSM   H15G12666   6.213   6.418   4.918 -0.0077  1.8419  0.3791
  120OSM   C16F12667   6.106   6.434   4.726  0.6758 -0.5067  0.0488
  120OSM   H16F12668   6.135   6.538   4.702 -0.3671 -0.3560 -0.6232
  120OSM   H16G12669   5.999   6.425   4.697  0.5158  2.0735 -0.3391
  120OSM   C17F12670   6.199   6.342   4.644  0.4109  0.8943 -0.4061
  120OSM   H17F12671   6.192   6.240   4.688  0.3063  1.6919  1.5310
  120OSM   H17G12672   6.295   6.384   4.680  0.3650 -0.8603  2.0294
  120OSM   C18F12673   6.186   6.319   4.493  0.4265  0.0116  0.0661
  120OSM   H18F12674   6.085   6.335   4.450 -1.2210 -1.1172  3.1697
  120OSM   H18G12675   6.213   6.218   4.456  2.5298  0.2726  0.7633
  120OSM   H18H12676   6.248   6.394   4.439  0.7256 -0.5937 -0.4401
  121OSM      N12677   1.682   2.265   6.719  0.6617  0.0083 -0.4593
  121OSM    C1512678   1.544   2.293   6.666  0.2318 -0.4627  0.0314
  121OSM   H15A12679   1.465   2.220   6.675  0.2396 -1.0836 -3.5359
  121OSM   H15B12680   1.541   2.317   6.561 -1.1278  0.1955  0.1959
  121OSM   H15C12681   1.503   2.384   6.708 -3.2714 -1.3221 -1.1959
  121OSM    C1412682   1.660   2.207   6.850 -0.0345 -0.1076  0.1232
  121OSM   H14A12683   1.580   2.247   6.912  0.3569 -2.5945  2.4531
  121OSM   H14B12684   1.750   2.190   6.907  0.8452 -1.7000 -1.6266
  121OSM   H14C12685   1.624   2.107   6.829 -0.4905 -0.0571  0.6329
  121OSM    C1312686   1.741   2.172   6.618  0.1235  0.7315  0.5336
  121OSM   H13A12687   1.723   2.220   6.522 -0.8530  0.7258  0.6980
  121OSM   H13B12688   1.692   2.076   6.615  1.3177  0.0775  1.4676
  121OSM   H13C12689   1.848   2.162   6.629  0.4846  1.3758 -1.7512
  121OSM    C1212690   1.751   2.391   6.737  0.7939  0.4465 -0.6672
  121OSM   H12A12691   1.799   2.420   6.644  1.4791  0.4540 -0.3153
  121OSM   H12B12692   1.829   2.375   6.809  1.4223  3.5847 -0.4783
  121OSM    C1112693   1.676   2.519   6.784 -0.7359  0.5346 -0.6531
  121OSM   H11A12694   1.608   2.540   6.698 -0.0187 -0.8355 -1.5946
  121OSM   H11B12695   1.755   2.596   6.788  0.6101 -0.7769 -1.1398
  121OSM      P12696   1.495   2.625   6.933  0.0867 -0.2081  0.5362
  121OSM    O1312697   1.427   2.598   7.066  0.7599  0.2736  0.2299
  121OSM    O1412698   1.584   2.745   6.935 -0.2222  0.3770 -0.1760
  121OSM    O1112699   1.386   2.627   6.808 -0.2625  0.3103  0.9572
  121OSM    O1212700   1.594   2.499   6.904  0.2924  0.2108 -0.5067
  121OSM    C1S12701   1.390   2.753   6.738 -0.4004  0.2495 -0.0772
  121OSM    H1S12702   1.481   2.763   6.674 -0.5956 -1.6227 -0.7032
  121OSM    H1T12703   1.403   2.839   6.807 -1.0825  0.3719 -0.0936
  121OSM     NF12704   1.314   2.884   6.550  0.4511  0.1529  0.3036
  121OSM    HNF12705   1.301   2.981   6.569 -1.6670  0.4324 -2.0610
  121OSM    C2S12706   1.272   2.782   6.645  0.0658 -0.0865  0.0897
  121OSM    H2S12707   1.252   2.693   6.581  1.5511 -0.7871  0.5435
  121OSM    C3S12708   1.145   2.809   6.737  0.1987  0.2139 -0.3667
  121OSM    H3S12709   1.156   2.907   6.788 -0.2450  1.2793 -2.2324
  121OSM     O312710   1.135   2.711   6.846  0.5164  0.0926  0.1841
  121OSM    HO312711   1.214   2.658   6.833 -0.1433 -0.6711 -0.8798
  121OSM    C4S12712   1.008   2.822   6.665 -0.2417  0.0663  1.1963
  121OSM    H4S12713   0.955   2.918   6.679 -0.5656  0.4845 -2.0576
  121OSM    C5S12714   0.931   2.720   6.633 -0.5318 -0.0129 -0.3569
  121OSM    H5S12715   0.970   2.618   6.646  1.1302  0.8978  3.2565
  121OSM    C6S12716   0.784   2.726   6.585 -0.9931 -0.3877 -0.5124
  121OSM    H6S12717   0.718   2.803   6.631 -1.0283 -0.0893 -1.0549
  121OSM    H6T12718   0.729   2.632   6.604  0.5276 -1.4627 -1.2260
  121OSM    C7S12719   0.781   2.737   6.429 -0.1384  0.4673 -0.1620
  121OSM    H7S12720   0.833   2.646   6.392 -0.5439 -0.4219  1.3168
  121OSM    H7T12721   0.839   2.829   6.407  1.6384 -0.5552 -0.0003
  121OSM    C8S12722   0.644   2.719   6.369  0.2312  0.6292  0.2858
  121OSM    H8S12723   0.568   2.792   6.403  0.1613  0.9949 -0.6496
  121OSM    H8T12724   0.597   2.624   6.404  0.0788 -0.0648 -1.6677
  121OSM    C9S12725   0.641   2.705   6.213  0.7284 -0.5792 -0.1080
  121OSM    H9S12726   0.542   2.664   6.183  0.2135  0.5618 -0.0349
  121OSM    H9T12727   0.714   2.636   6.167  0.6929 -0.6873 -0.0011
  121OSM   C10S12728   0.648   2.841   6.138 -0.1468  0.3904  1.0490
  121OSM   H10S12729   0.732   2.902   6.177  0.5638 -0.3956  0.7555
  121OSM   H10T12730   0.556   2.901   6.156 -1.5133 -0.3773 -2.3987
  121OSM   C11S12731   0.661   2.828   5.989 -0.8330  0.6980 -0.4204
  121OSM   H11S12732   0.582   2.766   5.941 -0.3944 -1.3718  1.3677
  121OSM   H11T12733   0.750   2.764   5.966 -1.2246 -0.3896  0.9500
  121OSM   C12S12734   0.687   2.958   5.915  0.1602  0.9331  0.0758
  121OSM   H12S12735   0.790   2.986   5.946  1.0660 -2.5110  0.5596
  121OSM   H12T12736   0.615   3.038   5.941  1.2732  3.7911 -4.4383
  121OSM   C13S12737   0.693   2.932   5.771  0.0540 -0.2525 -0.4821
  121OSM   H13S12738   0.598   2.876   5.755  1.5768 -3.5866  1.0587
  121OSM   H13T12739   0.773   2.863   5.737 -0.1497  0.8392 -3.4510
  121OSM   C14S12740   0.720   3.052   5.687 -0.0421 -0.7449 -0.4417
  121OSM   H14S12741   0.811   3.085   5.740 -0.7391 -1.9275  1.6423
  121OSM   H14T12742   0.645   3.130   5.710 -0.5762 -1.6245  0.9868
  121OSM   C15S12743   0.748   3.025   5.543  1.5818  0.2963  0.2798
  121OSM   H15S12744   0.849   2.981   5.528  0.5898 -1.5038 -1.4759
  121OSM   H15T12745   0.755   3.115   5.479  1.2799 -1.1268 -1.8738
  121OSM   C16S12746   0.638   2.948   5.473 -0.3857  0.6839 -0.5834
  121OSM   H16S12747   0.544   3.008   5.472 -1.9732 -1.6128  0.9128
  121OSM   H16T12748   0.616   2.852   5.524 -0.3038 -0.3438 -2.4053
  121OSM   C17S12749   0.678   2.934   5.332  0.1454  0.2454  0.3461
  121OSM   H17S12750   0.786   2.912   5.320  0.3632  0.7942  1.1941
  121OSM   H17T12751   0.656   3.029   5.279  0.4280 -0.0556 -0.3163
  121OSM   C18S12752   0.610   2.826   5.263  0.4337 -0.4318  1.3109
  121OSM   H18S12753   0.651   2.727   5.294 -0.6367 -1.1871  0.3687
  121OSM   H18T12754   0.633   2.827   5.155  2.2673 -1.2708  1.6557
  121OSM   H18U12755   0.499   2.825   5.263  0.4308 -1.4699  0.7513
  121OSM    C1F12756   1.395   2.858   6.447 -1.2620  0.2498 -0.1606
  121OSM     OF12757   1.416   2.742   6.409  0.1446  0.0664 -0.4374
  121OSM    C2F12758   1.456   2.974   6.377  0.1783 -0.0990 -0.9121
  121OSM    H2F12759   1.553   2.997   6.427  0.1844  2.4372 -1.9198
  121OSM    H2G12760   1.399   3.070   6.384  1.6985  0.7604  0.6095
  121OSM    C3F12761   1.500   2.943   6.234  0.1569 -0.5402  0.2983
  121OSM    H3F12762   1.423   2.892   6.173 -0.4235 -0.0493  0.6134
  121OSM    H3G12763   1.582   2.869   6.249 -0.8462 -1.3451  2.2138
  121OSM    C4F12764   1.532   3.081   6.158 -0.3075  0.6554  0.2289
  121OSM    H4F12765   1.595   3.146   6.223  0.2650  1.0835 -0.7200
  121OSM    H4G12766   1.438   3.139   6.148  0.3544  1.4840 -1.7130
  121OSM    C5F12767   1.581   3.060   6.014 -0.2965 -0.3730  0.4867
  121OSM    H5F12768   1.647   2.970   6.008 -2.0064 -1.7128  0.8558
  121OSM    H5G12769   1.639   3.147   5.978  0.4436 -1.1962 -0.3685
  121OSM    C6F12770   1.452   3.047   5.923  0.6879  0.1725 -0.1083
  121OSM    H6F12771   1.369   3.109   5.963 -0.6281 -0.5824 -1.5894
  121OSM    H6G12772   1.421   2.941   5.933  0.7050  0.0216 -1.5488
  121OSM    C7F12773   1.473   3.053   5.766  0.2546  0.1369 -0.0742
  121OSM    H7F12774   1.462   3.157   5.727 -1.9276 -0.0674 -0.1020
  121OSM    H7G12775   1.381   3.009   5.721 -1.3591  2.6311  0.5547
  121OSM    C8F12776   1.609   3.000   5.716 -0.2275 -0.5123  0.2872
  121OSM    H8F12777   1.639   2.911   5.774 -1.2498 -1.5565 -0.7183
  121OSM    H8G12778   1.689   3.074   5.737 -0.6315  0.3236 -0.9990
  121OSM    C9F12779   1.604   2.963   5.574 -0.2426 -0.1140  0.2464
  121OSM    H9F12780   1.547   2.873   5.547  0.8459 -0.2128 -1.9612
  121OSM   C10F12781   1.648   3.031   5.460 -0.3252  0.0483  0.0785
  121OSM   H10F12782   1.619   2.982   5.366 -0.3222 -0.5999  0.4103
  121OSM   C11F12783   1.724   3.160   5.448 -0.1933 -0.4802  0.6294
  121OSM   H11F12784   1.783   3.171   5.355  0.0636  3.5224  1.1020
  121OSM   H11G12785   1.796   3.175   5.532  0.2776 -2.0697  0.5436
  121OSM   C12F12786   1.626   3.280   5.456  0.6791 -0.1139 -0.4169
  121OSM   H12F12787   1.677   3.376   5.432  1.2309 -0.2757  0.0996
  121OSM   H12G12788   1.587   3.272   5.560 -0.9649  2.5379 -0.7135
  121OSM   C13F12789   1.504   3.282   5.361  0.5342  0.4246  0.2164
  121OSM   H13F12790   1.440   3.364   5.400  3.0589  2.1976  0.8376
  121OSM   H13G12791   1.452   3.184   5.358  0.7798  0.2923  0.3076
  121OSM   C14F12792   1.547   3.323   5.219 -0.5135  0.6089  0.1710
  121OSM   H14F12793   1.629   3.252   5.192 -0.6215  0.8666 -0.9143
  121OSM   H14G12794   1.594   3.422   5.198  0.8446 -0.3756 -1.7811
  121OSM   C15F12795   1.427   3.313   5.122 -0.1163  0.1418  0.6024
  121OSM   H15F12796   1.363   3.401   5.142  1.1500  1.2982 -0.2387
  121OSM   H15G12797   1.356   3.227   5.130 -2.0674  1.7059  0.8517
  121OSM   C16F12798   1.469   3.324   4.975  0.1739  0.2797  0.7884
  121OSM   H16F12799   1.520   3.226   4.962 -0.9205 -0.0785 -1.2084
  121OSM   H16G12800   1.545   3.403   4.958  0.6786  0.0330  1.8000
  121OSM   C17F12801   1.365   3.344   4.868  0.5522 -1.0461 -0.4461
  121OSM   H17F12802   1.337   3.452   4.865 -0.6460 -1.2986  1.1314
  121OSM   H17G12803   1.271   3.286   4.872  0.7122 -1.5090 -2.3307
  121OSM   C18F12804   1.430   3.311   4.726 -0.0670 -0.8944  0.0321
  121OSM   H18F12805   1.355   3.322   4.645  0.1978  2.4977  0.0798
  121OSM   H18G12806   1.484   3.214   4.719 -3.6273 -3.0815  0.8245
  121OSM   H18H12807   1.494   3.398   4.697 -1.5178  0.0544 -0.4190
  122OSM      N12808   0.396   4.939   7.265 -0.1906  0.2454  0.0266
  122OSM    C1512809   0.418   5.011   7.142  0.2022  0.6916 -0.3339
  122OSM   H15A12810   0.426   4.940   7.061  1.8807 -1.0613  1.2636
  122OSM   H15B12811   0.511   5.064   7.156 -1.1262  2.6886  1.8072
  122OSM   H15C12812   0.337   5.080   7.124 -1.0357 -0.3548  0.9990
  122OSM    C1412813   0.259   4.905   7.252 -0.3421  0.6394 -0.5618
  122OSM   H14A12814   0.201   4.995   7.268 -0.1232  0.6593  0.1635
  122OSM   H14B12815   0.222   4.841   7.331  1.3469 -2.1554 -1.8715
  122OSM   H14C12816   0.235   4.860   7.157  0.5308  1.6496 -1.2848
  122OSM    C1312817   0.478   4.811   7.278  0.1364  0.0755 -1.1499
  122OSM   H13A12818   0.460   4.722   7.219  1.0694 -1.2294  0.4404
  122OSM   H13B12819   0.477   4.783   7.382 -0.0378  4.0813  0.1083
  122OSM   H13C12820   0.583   4.833   7.262  0.5351 -0.0000  1.1055
  122OSM    C1212821   0.422   5.034   7.385  0.4638  0.3860  0.0301
  122OSM   H12A12822   0.397   4.980   7.476  0.5180 -2.3737 -1.4658
  122OSM   H12B12823   0.357   5.119   7.372  1.8307  1.3914 -0.3051
  122OSM    C1112824   0.565   5.094   7.408 -0.4614 -0.1121  0.5677
  122OSM   H11A12825   0.559   5.152   7.503  1.3617 -0.5370  0.9604
  122OSM   H11B12826   0.585   5.175   7.334 -0.1202  0.4831  1.2888
  122OSM      P12827   0.816   5.014   7.379 -0.0104  0.5274 -0.5189
  122OSM    O1312828   0.877   5.111   7.472 -0.3021  0.0296  0.3940
  122OSM    O1412829   0.881   4.884   7.372  0.4835 -0.5604 -0.0614
  122OSM    O1112830   0.816   5.088   7.231  0.1318 -0.0742 -0.0539
  122OSM    O1212831   0.666   4.996   7.424  0.3222  0.1208 -0.0111
  122OSM    C1S12832   0.814   5.011   7.111  0.5634 -0.7725 -0.1472
  122OSM    H1S12833   0.715   4.959   7.110  0.3763 -0.4141 -0.2272
  122OSM    H1T12834   0.890   4.930   7.112  0.8002 -0.5631 -0.9445
  122OSM     NF12835   0.837   5.039   6.855  0.1281  0.1865  0.3267
  122OSM    HNF12836   0.917   4.980   6.841  1.4766  2.2002 -1.0010
  122OSM    C2S12837   0.841   5.107   6.986  0.2820  0.2756 -0.0330
  122OSM    H2S12838   0.764   5.186   6.998  0.0676 -0.2641  2.7420
  122OSM    C3S12839   0.973   5.179   7.009 -0.2742  0.2736  0.8451
  122OSM    H3S12840   1.052   5.103   7.027 -0.9985 -0.4566  0.9489
  122OSM     O312841   0.974   5.258   7.126  0.0916 -0.5964 -0.9774
  122OSM    HO312842   0.914   5.218   7.189 -0.5073  1.6473 -0.0162
  122OSM    C4S12843   1.012   5.268   6.890 -0.3905  0.4482 -0.2797
  122OSM    H4S12844   1.042   5.202   6.807 -0.1631 -0.7023  0.6915
  122OSM    C5S12845   0.994   5.401   6.870 -0.2228  0.1876 -0.0011
  122OSM    H5S12846   0.945   5.460   6.949 -0.3977  0.9700 -0.6809
  122OSM    C6S12847   1.026   5.476   6.743 -0.2486 -0.5056  0.0584
  122OSM    H6S12848   1.117   5.539   6.746 -0.7871  0.4398 -1.6983
  122OSM    H6T12849   0.938   5.542   6.732  0.8114  0.7315 -1.3536
  122OSM    C7S12850   1.033   5.380   6.619  0.8962  0.1424 -0.1736
  122OSM    H7S12851   1.109   5.303   6.645  2.8119  2.3256  1.1123
  122OSM    H7T12852   1.087   5.431   6.537  0.1434  1.0934 -0.1074
  122OSM    C8S12853   0.896   5.328   6.579 -0.2411  0.0675 -0.3323
  122OSM    H8S12854   0.834   5.417   6.557 -2.7318 -1.6071 -0.5271
  122OSM    H8T12855   0.843   5.269   6.657 -1.4996  0.8431 -0.5786
  122OSM    C9S12856   0.909   5.247   6.450  0.0669 -0.0200  0.1731
  122OSM    H9S12857   0.814   5.196   6.426 -0.9722  1.2436  1.4120
  122OSM    H9T12858   0.986   5.170   6.473  1.1096  1.4563  2.0001
  122OSM   C10S12859   0.949   5.323   6.315 -0.5593  0.0976 -0.1816
  122OSM   H10S12860   1.056   5.352   6.305  0.3288 -2.8926 -0.2694
  122OSM   H10T12861   0.897   5.421   6.320 -0.2252  0.3381 -1.2081
  122OSM   C11S12862   0.906   5.235   6.200  0.0287 -0.2736  0.2742
  122OSM   H11S12863   0.803   5.194   6.197 -0.4546  0.9334 -0.5271
  122OSM   H11T12864   0.961   5.139   6.212 -0.3514 -0.2346  2.8956
  122OSM   C12S12865   0.935   5.287   6.055 -1.0355  0.5053 -0.0059
  122OSM   H12S12866   1.045   5.297   6.054 -0.9058 -0.7677 -0.1711
  122OSM   H12T12867   0.893   5.389   6.042  0.1239  0.8507 -1.3246
  122OSM   C13S12868   0.885   5.195   5.948 -0.5900  0.3577  0.2586
  122OSM   H13S12869   0.778   5.166   5.944  0.1166 -2.4333 -1.8200
  122OSM   H13T12870   0.932   5.094   5.949  0.2365  0.6632  3.4327
  122OSM   C14S12871   0.922   5.253   5.808 -0.2510  0.5035  0.0652
  122OSM   H14S12872   1.031   5.274   5.818 -0.1774 -0.5845  2.1024
  122OSM   H14T12873   0.863   5.340   5.772 -1.3887  0.4115  1.6484
  122OSM   C15S12874   0.912   5.133   5.706  0.5118  0.0353  0.6868
  122OSM   H15S12875   0.812   5.084   5.711 -0.3378  1.5923 -0.1004
  122OSM   H15T12876   0.988   5.059   5.739  1.1011  0.6287  0.6902
  122OSM   C16S12877   0.926   5.173   5.556 -0.0028 -0.1007 -0.1823
  122OSM   H16S12878   1.027   5.207   5.527 -0.1130  0.7457  0.4070
  122OSM   H16T12879   0.849   5.250   5.536  0.4770  0.5421  0.3906
  122OSM   C17S12880   0.910   5.062   5.453  0.0855 -0.2758 -0.9363
  122OSM   H17S12881   0.818   5.008   5.484 -0.0457 -0.2502 -1.2790
  122OSM   H17T12882   0.995   4.993   5.471  1.5167  1.6876  0.3671
  122OSM   C18S12883   0.888   5.117   5.308 -0.5408 -0.2443 -0.5181
  122OSM   H18S12884   0.977   5.178   5.281 -1.0611 -0.0004 -1.7773
  122OSM   H18T12885   0.805   5.191   5.305  0.2798  0.6880 -0.8503
  122OSM   H18U12886   0.876   5.032   5.238  0.2439 -1.6865  1.0450
  122OSM    C1F12887   0.718   5.003   6.805  0.0316  0.7841 -0.2346
  122OSM     OF12888   0.620   5.050   6.858 -0.4999  0.4411  0.3304
  122OSM    C2F12889   0.702   4.895   6.700  0.1849 -0.1676  0.5850
  122OSM    H2F12890   0.619   4.826   6.727 -0.1721 -1.4475 -3.2100
  122OSM    H2G12891   0.797   4.838   6.707  0.5501  0.4548  0.8020
  122OSM    C3F12892   0.672   4.952   6.555  0.1262 -0.3748  0.3290
  122OSM    H3F12893   0.735   5.043   6.547  0.2563  0.0065  3.9181
  122OSM    H3G12894   0.566   4.987   6.555 -0.1191 -1.0480  1.2913
  122OSM    C4F12895   0.699   4.852   6.446  0.0271  0.4223  0.2298
  122OSM    H4F12896   0.645   4.758   6.472  0.3240  0.0175 -0.5860
  122OSM    H4G12897   0.807   4.825   6.449  0.2287  1.2379  1.5921
  122OSM    C5F12898   0.663   4.906   6.310  0.1574  0.0384 -0.1543
  122OSM    H5F12899   0.713   5.005   6.302  0.8878 -0.3463 -0.4251
  122OSM    H5G12900   0.553   4.919   6.320 -0.0234 -1.5592  0.2547
  122OSM    C6F12901   0.701   4.821   6.183  0.3900 -0.2829 -0.7226
  122OSM    H6F12902   0.628   4.738   6.181  2.3433 -2.1679  0.9845
  122OSM    H6G12903   0.798   4.769   6.192  0.6835  0.5362  1.5915
  122OSM    C7F12904   0.691   4.903   6.053 -0.4738  0.7667  0.8308
  122OSM    H7F12905   0.775   4.976   6.052 -0.0099  0.2609  1.5258
  122OSM    H7G12906   0.589   4.947   6.051 -1.7517 -1.9972  0.9841
  122OSM    C8F12907   0.714   4.813   5.926 -0.0473 -0.0502 -0.0504
  122OSM    H8F12908   0.818   4.775   5.919  0.4185  0.9163  1.2849
  122OSM    H8G12909   0.715   4.881   5.838 -0.2015 -0.2609 -0.2160
  122OSM    C9F12910   0.610   4.699   5.911 -0.3162  0.5460 -0.6807
  122OSM    H9F12911   0.612   4.620   5.987 -0.6732 -1.5445 -2.7331
  122OSM   C10F12912   0.522   4.675   5.817 -0.4025  0.6208  0.5793
  122OSM   H10F12913   0.449   4.592   5.825 -0.5714  0.5672 -1.1295
  122OSM   C11F12914   0.477   4.765   5.701  0.5314 -0.2051  1.0167
  122OSM   H11F12915   0.543   4.854   5.688  1.7080 -1.3513 -1.5426
  122OSM   H11G12916   0.373   4.797   5.721 -1.2329 -2.4921 -3.2588
  122OSM   C12F12917   0.488   4.706   5.555 -0.3482 -1.0274 -0.3195
  122OSM   H12F12918   0.427   4.616   5.535 -1.6038 -0.3588  0.3862
  122OSM   H12G12919   0.593   4.673   5.540 -1.0170 -3.5973  0.2960
  122OSM   C13F12920   0.469   4.814   5.448 -0.7808  0.6053  0.2215
  122OSM   H13F12921   0.514   4.907   5.490  0.0549  0.9756 -1.3777
  122OSM   H13G12922   0.361   4.827   5.428 -0.7718 -1.2614 -1.2815
  122OSM   C14F12923   0.550   4.789   5.325  0.1284 -0.4425 -0.0455
  122OSM   H14F12924   0.648   4.744   5.353 -0.4135 -2.1062 -0.7235
  122OSM   H14G12925   0.566   4.873   5.255 -2.1656 -0.7430 -1.0093
  122OSM   C15F12926   0.490   4.675   5.235 -0.4599  0.4570 -0.3249
  122OSM   H15F12927   0.383   4.700   5.220 -0.6298  0.1450  0.3057
  122OSM   H15G12928   0.501   4.576   5.284  0.9883 -0.4001 -2.2291
  122OSM   C16F12929   0.550   4.674   5.094 -0.8880  0.1257  0.4882
  122OSM   H16F12930   0.659   4.652   5.098 -0.7844  0.4115 -0.3807
  122OSM   H16G12931   0.538   4.775   5.048 -2.3983  0.6704  1.9759
  122OSM   C17F12932   0.484   4.584   5.001  0.5172  0.3520 -0.3285
  122OSM   H17F12933   0.380   4.623   4.989 -0.2551 -1.0821  1.2505
  122OSM   H17G12934   0.480   4.490   5.061  1.1937 -1.2134 -2.6222
  122OSM   C18F12935   0.556   4.542   4.873 -1.2151  0.1032 -0.1601
  122OSM   H18F12936   0.566   4.626   4.801  4.0853  0.0925  0.1718
  122OSM   H18G12937   0.500   4.464   4.818 -2.0592 -0.1170  0.9902
  122OSM   H18H12938   0.659   4.514   4.905  0.0667  1.9040 -2.3412
  123OSM      N12939   5.043   2.753   2.389 -0.0593 -0.5760 -0.1388
  123OSM    C1512940   4.900   2.782   2.353  0.1824  0.4551 -0.7040
  123OSM   H15A12941   4.895   2.769   2.246  0.6154 -1.2773 -0.5452
  123OSM   H15B12942   4.878   2.885   2.378  1.9442  0.7095 -0.0929
  123OSM   H15C12943   4.839   2.703   2.396 -0.4044  1.7003  0.8393
  123OSM    C1412944   5.088   2.625   2.334 -0.1850 -0.9715 -0.1700
  123OSM   H14A12945   5.192   2.617   2.363 -0.4067  0.0807  0.9692
  123OSM   H14B12946   5.075   2.618   2.227  0.8015  0.2488 -0.3948
  123OSM   H14C12947   5.033   2.543   2.378  2.1387 -3.1579 -1.0701
  123OSM    C1312948   5.118   2.864   2.318  0.0755 -0.2885  0.3952
  123OSM   H13A12949   5.098   2.863   2.211  3.3834 -0.0565 -0.3555
  123OSM   H13B12950   5.225   2.867   2.333 -0.0488 -0.5304  1.3231
  123OSM   H13C12951   5.083   2.961   2.352 -2.2143  0.0196 -2.4424
  123OSM    C1212952   5.061   2.761   2.540 -0.5219 -0.1910  0.3509
  123OSM   H12A12953   5.038   2.864   2.564  2.8018  1.5053 -2.7454
  123OSM   H12B12954   5.165   2.755   2.569 -0.0960 -1.1693 -1.2766
  123OSM    C1112955   4.988   2.654   2.626  0.2929 -0.0289  0.3943
  123OSM   H11A12956   5.035   2.655   2.727  2.5049 -1.1350 -0.5754
  123OSM   H11B12957   5.020   2.554   2.590 -1.2211 -0.7764  1.0298
  123OSM      P12958   4.771   2.763   2.707 -0.0861 -0.2982 -0.1075
  123OSM    O1312959   4.731   2.876   2.627  0.1403 -0.1273  0.5756
  123OSM    O1412960   4.662   2.690   2.782  0.1047 -0.6511 -0.0534
  123OSM    O1112961   4.874   2.816   2.819 -0.5523 -0.0155  0.4247
  123OSM    O1212962   4.844   2.663   2.615 -0.5203  0.3398 -0.6106
  123OSM    C1S12963   4.920   2.954   2.826 -0.0946 -0.0520  0.2960
  123OSM    H1S12964   4.833   3.016   2.794 -2.6751 -3.6602 -0.3000
  123OSM    H1T12965   5.003   2.971   2.754 -0.2569  1.4824  0.4221
  123OSM     NF12966   4.992   3.114   2.999  0.3599 -0.2045  0.2880
  123OSM    HNF12967   5.083   3.147   3.023  0.0765  0.8076  0.0562
  123OSM    C2S12968   4.978   2.975   2.969 -0.2991 -0.4479 -0.0142
  123OSM    H2S12969   4.908   2.937   3.047 -0.7775  0.8133  0.1821
  123OSM    C3S12970   5.113   2.889   2.982 -0.4256 -0.1843 -0.3726
  123OSM    H3S12971   5.183   2.922   2.902  0.8393 -1.6960  0.0447
  123OSM     O312972   5.098   2.752   2.955 -0.4917 -0.4551 -0.0387
  123OSM    HO312973   5.013   2.761   2.910 -0.1858 -1.9762 -1.0249
  123OSM    C4S12974   5.175   2.898   3.117 -0.3111  0.2475 -0.2775
  123OSM    H4S12975   5.108   2.865   3.197  0.7144  0.0594  0.5329
  123OSM    C5S12976   5.302   2.936   3.151 -0.2010 -0.1575  0.9114
  123OSM    H5S12977   5.371   2.969   3.073 -1.1314  0.0489  0.1607
  123OSM    C6S12978   5.365   2.942   3.284 -0.4503  0.1306 -0.0474
  123OSM    H6S12979   5.423   3.036   3.294 -1.9027  0.9164  1.6995
  123OSM    H6T12980   5.437   2.858   3.298 -0.2442  0.4297  0.7747
  123OSM    C7S12981   5.277   2.945   3.403 -0.4649  0.1627  0.0539
  123OSM    H7S12982   5.201   2.864   3.398 -0.9577  0.6087  0.2352
  123OSM    H7T12983   5.212   3.034   3.407  1.6661  1.7886  3.0303
  123OSM    C8S12984   5.356   2.934   3.537 -0.0052  0.7479 -0.1067
  123OSM    H8S12985   5.443   3.002   3.549 -0.7764  1.6495  0.4566
  123OSM    H8T12986   5.408   2.835   3.539  2.3478  1.9017  0.0073
  123OSM    C9S12987   5.270   2.945   3.672  0.3812  0.1123  0.5559
  123OSM    H9S12988   5.181   2.880   3.659  0.6627  0.1092 -1.8850
  123OSM    H9T12989   5.248   3.053   3.678  1.1792  0.2480  1.2243
  123OSM   C10S12990   5.329   2.901   3.802 -0.3517  0.0723 -1.2307
  123OSM   H10S12991   5.415   2.965   3.834 -0.3589 -1.5872  2.7882
  123OSM   H10T12992   5.375   2.800   3.786 -0.8186 -0.9202  2.6529
  123OSM   C11S12993   5.229   2.892   3.919 -0.6410 -0.0931  0.5740
  123OSM   H11S12994   5.148   2.820   3.891 -1.6310  0.8104  1.0500
  123OSM   H11T12995   5.180   2.991   3.934 -2.6263 -1.2023  1.8048
  123OSM   C12S12996   5.301   2.856   4.050  0.4588 -0.0093  0.0075
  123OSM   H12S12997   5.393   2.917   4.035 -0.4911  1.2633 -0.8058
  123OSM   H12T12998   5.355   2.760   4.066  1.7491  0.2848 -2.0660
  123OSM   C13S12999   5.248   2.902   4.189 -0.0883 -0.3000  0.0999
  123OSM   H13S13000   5.190   2.996   4.172 -2.6274 -1.8881 -0.5737
  123OSM   H13T13001   5.333   2.936   4.252 -0.7460  1.6632  0.0144
  123OSM   C14S13002   5.154   2.796   4.258 -0.1609  0.2437  0.0955
  123OSM   H14S13003   5.214   2.719   4.310 -0.9901 -1.6818 -1.6632
  123OSM   H14T13004   5.086   2.744   4.188 -2.2703  0.8553  1.5849
  123OSM   C15S13005   5.074   2.862   4.366  0.0740  0.0621  0.0867
  123OSM   H15S13006   5.003   2.786   4.405  1.3991 -0.4871  1.5567
  123OSM   H15T13007   5.018   2.941   4.311  0.9630  2.2881  2.2049
  123OSM   C16S13008   5.148   2.918   4.490  0.1675 -0.1984  0.5602
  123OSM   H16S13009   5.203   3.005   4.450 -1.6738  1.0106  0.5492
  123OSM   H16T13010   5.223   2.842   4.520 -0.0730 -1.1783 -1.1566
  123OSM   C17S13011   5.049   2.960   4.606 -0.5293  0.3151  0.0135
  123OSM   H17S13012   4.983   2.872   4.624  0.9156 -0.3001  2.8287
  123OSM   H17T13013   4.991   3.042   4.557  0.4285 -0.2170 -2.1210
  123OSM   C18S13014   5.117   3.011   4.730 -0.2522  0.7792  0.1927
  123OSM   H18S13015   5.173   2.925   4.773 -0.2672  0.3138 -0.6826
  123OSM   H18T13016   5.041   3.050   4.801 -2.0647  0.1949 -1.3424
  123OSM   H18U13017   5.194   3.089   4.712  0.7321 -0.1639  0.2373
  123OSM    C1F13018   4.887   3.196   3.010 -0.0279  0.1479  0.3444
  123OSM     OF13019   4.769   3.168   2.985  0.8958  0.0311 -0.4138
  123OSM    C2F13020   4.913   3.330   3.069  1.1537 -0.3144  0.3671
  123OSM    H2F13021   4.977   3.389   3.000  1.8025  1.0683  2.0788
  123OSM    H2G13022   4.967   3.310   3.164  0.2976 -2.6104  0.4435
  123OSM    C3F13023   4.789   3.416   3.112 -0.5329 -0.4627 -0.4075
  123OSM    H3F13024   4.701   3.401   3.046 -3.0635 -1.0170  2.8389
  123OSM    H3G13025   4.823   3.521   3.099  2.0240 -1.2087 -0.3519
  123OSM    C4F13026   4.749   3.383   3.259 -0.0558  1.0095  0.5543
  123OSM    H4F13027   4.845   3.372   3.314  0.4861 -1.3115 -0.7593
  123OSM    H4G13028   4.700   3.284   3.258 -0.3781  1.1649 -0.6686
  123OSM    C5F13029   4.650   3.485   3.323 -0.1705  0.4327  1.1961
  123OSM    H5F13030   4.546   3.463   3.290  0.3706 -0.7239  0.2179
  123OSM    H5G13031   4.687   3.578   3.273  1.2516 -1.1402 -0.8494
  123OSM    C6F13032   4.652   3.497   3.477 -0.2847 -0.0571 -0.4531
  123OSM    H6F13033   4.596   3.590   3.500 -1.2135 -0.7291  0.0966
  123OSM    H6G13034   4.757   3.515   3.507  0.5412 -1.6672 -2.1369
  123OSM    C7F13035   4.573   3.379   3.541 -0.3944 -0.6250 -0.0576
  123OSM    H7F13036   4.630   3.288   3.512 -0.1538  0.2252 -2.5413
  123OSM    H7G13037   4.471   3.364   3.499 -0.6226  3.1522 -1.3202
  123OSM    C8F13038   4.560   3.412   3.692  0.0091 -0.3840 -0.1287
  123OSM    H8F13039   4.488   3.497   3.698  0.6760  0.1590  0.3569
  123OSM    H8G13040   4.661   3.449   3.720  2.0992 -3.5335 -2.7075
  123OSM    C9F13041   4.535   3.298   3.780 -0.3816 -0.2417 -0.2320
  123OSM    H9F13042   4.553   3.198   3.737 -0.0076 -0.2518 -0.0554
  123OSM   C10F13043   4.521   3.305   3.912  1.1858 -0.3133 -0.5925
  123OSM   H10F13044   4.507   3.215   3.974 -0.0652  1.3361  1.6836
  123OSM   C11F13045   4.495   3.437   3.990  0.1348  0.6150 -0.4788
  123OSM   H11F13046   4.455   3.526   3.936 -0.2167  0.3981 -0.5841
  123OSM   H11G13047   4.587   3.472   4.040  0.0526 -0.9471  0.8287
  123OSM   C12F13048   4.402   3.406   4.114  0.2640 -0.5562 -0.0397
  123OSM   H12F13049   4.454   3.328   4.173  2.6976  0.6057 -0.5327
  123OSM   H12G13050   4.305   3.360   4.085 -1.1921  0.6137  2.5973
  123OSM   C13F13051   4.388   3.530   4.208  0.6064 -0.1642 -0.2701
  123OSM   H13F13052   4.345   3.617   4.153 -1.7950 -2.1352 -1.6708
  123OSM   H13G13053   4.488   3.570   4.235  0.6969 -0.5954  0.0300
  123OSM   C14F13054   4.307   3.497   4.333  0.4606 -0.1352 -0.0739
  123OSM   H14F13055   4.351   3.402   4.370  0.7584  0.3340  0.8055
  123OSM   H14G13056   4.200   3.495   4.302  1.0278 -1.1322 -2.1201
  123OSM   C15F13057   4.328   3.605   4.437  0.1924 -0.2998  0.3163
  123OSM   H15F13058   4.287   3.703   4.406  1.5210 -0.2117 -1.3312
  123OSM   H15G13059   4.437   3.606   4.458  0.1798 -0.7640  0.4094
  123OSM   C16F13060   4.266   3.570   4.574  0.3919 -0.2967  0.2966
  123OSM   H16F13061   4.330   3.612   4.655 -2.2578 -0.8896  2.8660
  123OSM   H16G13062   4.276   3.460   4.582  0.7646 -0.4182 -1.5041
  123OSM   C17F13063   4.115   3.621   4.601 -0.3291 -0.3403  0.5906
  123OSM   H17F13064   4.089   3.558   4.689 -1.8301  0.5560  0.8321
  123OSM   H17G13065   4.058   3.596   4.509  0.9007 -1.1974  0.0441
  123OSM   C18F13066   4.094   3.769   4.621  0.7111  0.3251  0.9630
  123OSM   H18F13067   4.002   3.802   4.674 -0.5201 -1.0677 -0.2027
  123OSM   H18G13068   4.108   3.825   4.526  0.9603  2.4734  2.2021
  123OSM   H18H13069   4.177   3.806   4.685  0.2938  3.5916 -0.2331
  124OSM      N13070   4.205   4.136   2.343 -0.0465 -0.2904  0.0825
  124OSM    C1513071   4.232   4.066   2.470  0.1161 -0.1455  0.2322
  124OSM   H15A13072   4.282   4.127   2.544  1.9653 -1.6889  0.3425
  124OSM   H15B13073   4.302   3.984   2.459  1.2675  0.8166  0.1561
  124OSM   H15C13074   4.135   4.030   2.502 -0.1203 -0.3829 -0.7237
  124OSM    C1413075   4.153   4.038   2.243 -0.6680 -0.2165 -0.4275
  124OSM   H14A13076   4.077   3.980   2.292 -0.9592  0.7873  0.3361
  124OSM   H14B13077   4.223   3.962   2.210  0.4894 -0.6018  2.6442
  124OSM   H14C13078   4.105   4.089   2.160  0.1958  0.7073 -0.3806
  124OSM    C1313079   4.097   4.243   2.375 -0.5908 -0.3130  0.6681
  124OSM   H13A13080   4.138   4.318   2.441  0.4275 -0.0649 -0.2137
  124OSM   H13B13081   4.005   4.205   2.418 -2.4728  1.2963 -1.6356
  124OSM   H13C13082   4.068   4.300   2.288 -0.8589 -0.2318  0.8079
  124OSM    C1213083   4.339   4.199   2.289  0.4127 -0.4638  0.1324
  124OSM   H12A13084   4.311   4.247   2.196  1.2429 -1.2585 -0.5360
  124OSM   H12B13085   4.404   4.117   2.265 -0.3354 -0.5388 -1.8709
  124OSM    C1113086   4.412   4.309   2.372 -0.7645 -0.6014 -0.9444
  124OSM   H11A13087   4.518   4.306   2.340 -0.2890  0.2691  0.4605
  124OSM   H11B13088   4.412   4.270   2.476 -2.9874 -0.9969 -1.0327
  124OSM      P13089   4.333   4.534   2.473 -0.2433  0.3709  0.1213
  124OSM    O1313090   4.278   4.659   2.418  0.1615 -0.3027  0.7195
  124OSM    O1413091   4.255   4.464   2.574  0.3090  0.0243 -0.1018
  124OSM    O1113092   4.477   4.559   2.530 -0.2245 -0.4052 -0.6160
  124OSM    O1213093   4.357   4.435   2.354  0.5353  0.1632  0.3687
  124OSM    C1S13094   4.495   4.627   2.653  0.6495 -0.3721 -0.0441
  124OSM    H1S13095   4.407   4.692   2.674 -0.7738 -2.4552  0.8823
  124OSM    H1T13096   4.584   4.691   2.640  1.2530 -1.1658  0.0851
  124OSM     NF13097   4.533   4.620   2.884 -0.0206 -0.0823  0.2345
  124OSM    HNF13098   4.610   4.677   2.912 -0.6352  0.0791  1.7419
  124OSM    C2S13099   4.533   4.534   2.768  0.1017 -0.3206 -0.2243
  124OSM    H2S13100   4.455   4.456   2.781 -1.4712  1.4398  1.4690
  124OSM    C3S13101   4.665   4.465   2.740  0.0873 -0.1607 -1.3897
  124OSM    H3S13102   4.744   4.540   2.720  0.5583 -1.0901 -3.2987
  124OSM     O313103   4.669   4.392   2.620  0.5131  0.0348  0.6394
  124OSM    HO313104   4.589   4.414   2.571  1.3330 -0.0442 -0.7620
  124OSM    C4S13105   4.709   4.377   2.857  0.4225  0.1648  0.7188
  124OSM    H4S13106   4.641   4.292   2.872  0.4405  0.1322  0.6097
  124OSM    C5S13107   4.817   4.379   2.931 -0.0540 -0.2455 -0.0662
  124OSM    H5S13108   4.902   4.446   2.911  0.3776 -0.4143  1.1012
  124OSM    C6S13109   4.848   4.269   3.025 -0.8879 -0.0949 -0.2849
  124OSM    H6S13110   4.793   4.176   2.999 -0.9793 -0.2333  0.3905
  124OSM    H6T13111   4.810   4.304   3.123  2.4191  2.2360  0.3461
  124OSM    C7S13112   5.000   4.242   3.047 -0.8094  0.3276  0.5883
  124OSM    H7S13113   5.050   4.341   3.058 -1.0100  0.3163  1.8387
  124OSM    H7T13114   5.050   4.198   2.959 -0.8939  0.6476  0.3774
  124OSM    C8S13115   5.035   4.151   3.163  0.1369 -0.0246 -0.4615
  124OSM    H8S13116   5.146   4.141   3.173 -0.0340 -0.3491  1.3387
  124OSM    H8T13117   4.992   4.053   3.133 -1.9982  0.3898  1.0241
  124OSM    C9S13118   4.970   4.185   3.297 -0.2478 -0.4474 -0.1554
  124OSM    H9S13119   4.994   4.106   3.371 -0.5155  1.2647  1.8571
  124OSM    H9T13120   4.859   4.190   3.289 -0.1052  0.6983 -1.9400
  124OSM   C10S13121   5.029   4.318   3.359  0.5242  0.1684  0.1551
  124OSM   H10S13122   5.006   4.396   3.283  0.3821  0.0867  0.1133
  124OSM   H10T13123   5.139   4.305   3.365  0.7749  0.2980 -2.8403
  124OSM   C11S13124   4.961   4.358   3.496  0.6339 -0.1242  0.6778
  124OSM   H11S13125   5.015   4.450   3.530 -2.1469  1.9044 -0.0752
  124OSM   H11T13126   4.963   4.271   3.565  1.6645 -1.7455 -1.2912
  124OSM   C12S13127   4.814   4.386   3.466  0.3126  0.1037 -0.2858
  124OSM   H12S13128   4.757   4.293   3.444 -0.9282  0.4389  1.2704
  124OSM   H12T13129   4.807   4.462   3.385  0.5675 -0.4289 -0.8102
  124OSM   C13S13130   4.750   4.455   3.587  0.3533 -0.1220  0.0273
  124OSM   H13S13131   4.673   4.522   3.542 -1.1337 -2.3147 -0.8352
  124OSM   H13T13132   4.830   4.518   3.632 -1.0213  0.7978  1.2931
  124OSM   C14S13133   4.696   4.364   3.702 -0.6036 -0.4624  0.3070
  124OSM   H14S13134   4.761   4.274   3.707  1.1542  0.6164 -1.4842
  124OSM   H14T13135   4.593   4.336   3.672 -1.1486  0.9880  0.7344
  124OSM   C15S13136   4.684   4.440   3.839  0.4311 -0.2237 -1.1447
  124OSM   H15S13137   4.635   4.538   3.817 -1.4283 -1.0076 -0.7045
  124OSM   H15T13138   4.779   4.484   3.877 -0.8596  3.0897 -1.3633
  124OSM   C16S13139   4.627   4.358   3.950  0.8174  0.0959  0.0399
  124OSM   H16S13140   4.697   4.279   3.983 -0.0824 -0.8673 -0.3237
  124OSM   H16T13141   4.545   4.308   3.895  2.8193  0.2545 -3.3334
  124OSM   C17S13142   4.593   4.440   4.076 -0.6441  0.4521 -0.5439
  124OSM   H17S13143   4.555   4.374   4.157  0.8672 -0.2785 -0.3788
  124OSM   H17T13144   4.508   4.503   4.042 -0.5818  1.0471  0.3740
  124OSM   C18S13145   4.702   4.527   4.134 -0.0302  0.3812  0.2730
  124OSM   H18S13146   4.778   4.464   4.187 -1.0886  0.2473  1.6909
  124OSM   H18T13147   4.645   4.598   4.198 -0.6400 -0.2997  0.5029
  124OSM   H18U13148   4.751   4.591   4.058 -1.0157  0.5938 -0.1980
  124OSM    C1F13149   4.426   4.673   2.941  0.3406 -0.6326  0.0566
  124OSM     OF13150   4.310   4.637   2.911 -0.1688  0.4158 -0.1063
  124OSM    C2F13151   4.455   4.786   3.037  0.0915  0.3236  0.1960
  124OSM    H2F13152   4.377   4.866   3.042  0.2490  0.4333  1.2576
  124OSM    H2G13153   4.544   4.835   2.993  0.6269 -0.1901  0.6981
  124OSM    C3F13154   4.505   4.733   3.169 -0.1577 -0.1247 -0.6303
  124OSM    H3F13155   4.599   4.674   3.174  0.3963  0.7747 -0.1263
  124OSM    H3G13156   4.427   4.666   3.209  0.9745 -1.3809 -0.4658
  124OSM    C4F13157   4.523   4.850   3.275 -0.3057  0.9406  0.0579
  124OSM    H4F13158   4.432   4.911   3.258 -0.8441 -0.1984 -1.4713
  124OSM    H4G13159   4.599   4.922   3.238  1.7823 -1.3623 -0.4200
  124OSM    C5F13160   4.536   4.794   3.420  0.1035  1.3873  0.4598
  124OSM    H5F13161   4.632   4.739   3.431 -0.8307 -0.4657 -0.2666
  124OSM    H5G13162   4.460   4.714   3.429  0.1003  1.3462  0.0953
  124OSM    C6F13163   4.507   4.894   3.526 -0.9496 -0.1363 -0.1503
  124OSM    H6F13164   4.410   4.948   3.525  0.0026  1.6759  0.0888
  124OSM    H6G13165   4.588   4.970   3.532 -1.7680  0.8369 -0.8559
  124OSM    C7F13166   4.526   4.835   3.665  0.1635  0.2073 -0.1718
  124OSM    H7F13167   4.630   4.802   3.682  0.2559  1.5070  2.2922
  124OSM    H7G13168   4.459   4.747   3.649  1.6165 -0.7143 -1.4189
  124OSM    C8F13169   4.492   4.933   3.780  0.7920 -0.4684 -0.3522
  124OSM    H8F13170   4.390   4.976   3.772  0.2716 -1.0747  2.0846
  124OSM    H8G13171   4.575   5.005   3.796  0.8597 -0.5972 -0.1028
  124OSM    C9F13172   4.493   4.842   3.907  0.2399  0.1757 -0.8099
  124OSM    H9F13173   4.580   4.775   3.913  0.6598  0.8146  0.6133
  124OSM   C10F13174   4.404   4.826   4.009 -0.2931  0.8243  0.7786
  124OSM   H10F13175   4.427   4.756   4.091 -0.4117  0.7826  0.7767
  124OSM   C11F13176   4.282   4.902   4.016 -0.8298 -0.2239 -1.2353
  124OSM   H11F13177   4.221   4.862   4.100  1.2597  0.4283  0.7116
  124OSM   H11G13178   4.233   4.897   3.917 -2.4406 -1.2186 -0.4297
  124OSM   C12F13179   4.297   5.047   4.062 -0.1317 -0.2614  0.3749
  124OSM   H12F13180   4.198   5.095   4.079 -0.6606 -1.1001 -0.2248
  124OSM   H12G13181   4.345   5.097   3.976  0.4643 -2.1995 -0.4827
  124OSM   C13F13182   4.370   5.091   4.198 -0.3465  0.0321 -0.5999
  124OSM   H13F13183   4.392   5.200   4.201  1.9899 -0.4025  0.9837
  124OSM   H13G13184   4.469   5.040   4.194 -1.0588 -1.3757 -1.0419
  124OSM   C14F13185   4.288   5.059   4.327 -0.2859 -0.0168  0.1367
  124OSM   H14F13186   4.289   4.948   4.332  1.7524 -0.0431 -0.2278
  124OSM   H14G13187   4.184   5.095   4.310  1.4677  4.2831 -3.3806
  124OSM   C15F13188   4.347   5.129   4.449  0.4292  0.0355  1.2234
  124OSM   H15F13189   4.349   5.240   4.445  2.9488  0.0529  0.8299
  124OSM   H15G13190   4.456   5.105   4.452  0.5843  0.5650  0.2986
  124OSM   C16F13191   4.272   5.100   4.583 -0.7748 -0.3186 -0.0583
  124OSM   H16F13192   4.255   4.997   4.622  0.3921 -0.8653 -0.9648
  124OSM   H16G13193   4.170   5.142   4.568 -0.7758 -0.9209 -1.9810
  124OSM   C17F13194   4.329   5.175   4.709 -0.3939  0.4310 -0.3721
  124OSM   H17F13195   4.269   5.165   4.802  0.6304  0.8051  0.3435
  124OSM   H17G13196   4.328   5.283   4.685 -0.1124  0.1807 -1.6107
  124OSM   C18F13197   4.469   5.114   4.750 -0.1139 -1.2456  0.8270
  124OSM   H18F13198   4.556   5.147   4.690  0.5572  2.3425  3.4658
  124OSM   H18G13199   4.457   5.005   4.730  0.1163 -1.5126  2.0777
  124OSM   H18H13200   4.491   5.140   4.855  0.5918  0.9163  0.2035
  125OSM      N13201   4.859   0.823   2.523 -0.1270  0.3533 -0.2819
  125OSM    C1513202   4.940   0.860   2.394  0.0734 -0.4098 -0.3330
  125OSM   H15A13203   4.871   0.854   2.311 -1.0485 -1.6772  0.6396
  125OSM   H15B13204   5.028   0.797   2.387 -0.1116 -0.8396  0.9453
  125OSM   H15C13205   4.990   0.956   2.389 -2.0980  0.7310 -1.7165
  125OSM    C1413206   4.728   0.890   2.519  0.0617  0.5144  0.4428
  125OSM   H14A13207   4.661   0.858   2.441 -0.2666  2.6229 -0.2055
  125OSM   H14B13208   4.745   0.995   2.502 -0.1837  0.5713  0.5462
  125OSM   H14C13209   4.676   0.877   2.613  1.1151  3.3406  1.5073
  125OSM    C1313210   4.836   0.674   2.533 -0.1688 -0.3595  0.3856
  125OSM   H13A13211   4.771   0.666   2.619 -1.8353  1.0603 -0.6481
  125OSM   H13B13212   4.930   0.625   2.551 -0.4424 -1.6809 -1.4845
  125OSM   H13C13213   4.785   0.625   2.451 -1.3925 -1.9155  1.9943
  125OSM    C1213214   4.934   0.869   2.651  0.1225  0.2308  0.7952
  125OSM   H12A13215   5.028   0.821   2.673  0.2093 -0.0109 -0.0600
  125OSM   H12B13216   4.868   0.848   2.733 -2.2971 -0.9615 -1.3175
  125OSM    C1113217   4.958   1.024   2.660  0.5516  0.4698 -0.3411
  125OSM   H11A13218   4.994   1.044   2.763 -2.9061  1.6363  0.7804
  125OSM   H11B13219   4.872   1.094   2.654  1.6757  1.8936 -0.2031
  125OSM      P13220   5.211   1.038   2.594 -0.1085 -0.0454 -0.1178
  125OSM    O1313221   5.269   0.993   2.467  0.5050 -0.0114 -0.3317
  125OSM    O1413222   5.279   1.155   2.662 -0.0854  0.3665  0.0145
  125OSM    O1113223   5.201   0.925   2.705 -0.3099  0.1776  0.0614
  125OSM    O1213224   5.059   1.071   2.569  0.5238 -0.2460  0.0337
  125OSM    C1S13225   5.325   0.844   2.724 -0.1090 -0.1783 -0.1258
  125OSM    H1S13226   5.413   0.896   2.682 -0.1279 -0.2738 -0.2858
  125OSM    H1T13227   5.327   0.751   2.662 -0.2028 -0.3164  0.0762
  125OSM     NF13228   5.480   0.760   2.888 -0.2734 -0.4814 -0.0069
  125OSM    HNF13229   5.489   0.663   2.912 -0.7618 -0.1422  1.7269
  125OSM    C2S13230   5.342   0.803   2.869 -0.4843  0.4335 -0.0057
  125OSM    H2S13231   5.326   0.892   2.934  3.0524  0.5146  0.9684
  125OSM    C3S13232   5.242   0.692   2.895  0.2027  0.2957 -0.4376
  125OSM    H3S13233   5.267   0.604   2.832  0.3468  0.5068 -0.6777
  125OSM     O313234   5.109   0.719   2.851 -0.1250  0.1630 -0.5276
  125OSM    HO313235   5.119   0.811   2.825  3.5651 -0.6477 -2.7217
  125OSM    C4S13236   5.245   0.641   3.035 -0.3282 -0.0772 -0.1275
  125OSM    H4S13237   5.225   0.717   3.113 -1.1392 -0.2370 -0.1650
  125OSM    C5S13238   5.248   0.512   3.065 -0.6905  0.5814  0.2068
  125OSM    H5S13239   5.236   0.438   2.985 -0.7478 -0.6762  1.3416
  125OSM    C6S13240   5.243   0.465   3.210 -0.1887 -0.5305 -0.3647
  125OSM    H6S13241   5.329   0.396   3.228  0.1420 -0.8388 -2.7530
  125OSM    H6T13242   5.151   0.403   3.220  0.9265 -2.4974 -1.6006
  125OSM    C7S13243   5.239   0.578   3.322  0.6315  1.0080 -0.0129
  125OSM    H7S13244   5.174   0.664   3.297 -0.9371 -0.1037  0.0940
  125OSM    H7T13245   5.340   0.618   3.348  0.3548  1.8450 -0.2077
  125OSM    C8S13246   5.196   0.506   3.455 -0.1565 -0.7468 -0.4787
  125OSM    H8S13247   5.274   0.429   3.476 -0.1420 -0.8959 -1.0580
  125OSM    H8T13248   5.106   0.445   3.432  0.7335 -1.5122 -2.1100
  125OSM    C9S13249   5.181   0.598   3.576  0.4470 -0.2132  0.3520
  125OSM    H9S13250   5.083   0.650   3.564  0.2858 -1.0614 -3.1247
  125OSM    H9T13251   5.245   0.689   3.567  0.7655 -0.5055 -0.5418
  125OSM   C10S13252   5.195   0.519   3.706  0.3090 -0.7344  0.5690
  125OSM   H10S13253   5.130   0.429   3.709  1.1169 -1.4689 -1.7168
  125OSM   H10T13254   5.156   0.582   3.790 -1.4385 -0.9017 -0.0757
  125OSM   C11S13255   5.338   0.470   3.759 -0.0726  0.0443 -0.6346
  125OSM   H11S13256   5.384   0.559   3.807 -0.5788 -0.5403  1.0100
  125OSM   H11T13257   5.400   0.426   3.678  0.2079  0.6899 -0.7730
  125OSM   C12S13258   5.333   0.377   3.875 -0.6012  0.4944 -0.2616
  125OSM   H12S13259   5.293   0.275   3.857 -2.5487  0.7943  1.9259
  125OSM   H12T13260   5.267   0.422   3.952 -0.4301 -0.0558  0.2132
  125OSM   C13S13261   5.471   0.369   3.943 -0.2615 -1.0559 -0.0607
  125OSM   H13S13262   5.489   0.458   4.008  1.3925 -0.4111 -1.3379
  125OSM   H13T13263   5.543   0.370   3.859 -0.1949  0.0464 -0.0065
  125OSM   C14S13264   5.495   0.238   4.024 -0.1034  0.3207 -0.1266
  125OSM   H14S13265   5.601   0.219   4.052  0.0082 -1.0350 -1.3535
  125OSM   H14T13266   5.474   0.146   3.965 -0.2825 -0.7232  1.5050
  125OSM   C15S13267   5.412   0.247   4.153  0.0671 -0.1344  1.2306
  125OSM   H15S13268   5.393   0.143   4.184  0.6122 -0.3046  1.0018
  125OSM   H15T13269   5.310   0.284   4.131 -0.4369 -1.5858  1.0405
  125OSM   C16S13270   5.483   0.311   4.273  0.4994 -0.4155 -0.2265
  125OSM   H16S13271   5.411   0.311   4.357  1.8409  1.0251  0.9895
  125OSM   H16T13272   5.500   0.418   4.249 -2.0906 -0.3055 -1.9640
  125OSM   C17S13273   5.615   0.247   4.313 -0.1024  0.0486 -0.3003
  125OSM   H17S13274   5.697   0.285   4.248  2.4677 -0.8134  2.2407
  125OSM   H17T13275   5.600   0.139   4.288 -3.1358  0.5485 -1.0253
  125OSM   C18S13276   5.640   0.266   4.460 -0.3242  0.1429  0.1430
  125OSM   H18S13277   5.637   0.372   4.492 -0.2169  0.2405 -0.1638
  125OSM   H18T13278   5.747   0.242   4.482 -0.1924 -0.5735 -1.1873
  125OSM   H18U13279   5.569   0.209   4.523 -0.0485 -0.5891 -0.1996
  125OSM    C1F13280   5.582   0.847   2.891 -0.0424 -0.3454  0.2512
  125OSM     OF13281   5.567   0.967   2.878  0.1374  0.0513  0.3443
  125OSM    C2F13282   5.714   0.794   2.928  0.3714  0.2056  0.1897
  125OSM    H2F13283   5.773   0.804   2.835  0.2052  1.1348  0.1772
  125OSM    H2G13284   5.704   0.692   2.972 -1.8334  0.2283 -0.1370
  125OSM    C3F13285   5.782   0.866   3.046 -0.1681 -0.3584 -0.1789
  125OSM    H3F13286   5.806   0.971   3.020 -2.0166  0.1579  0.0507
  125OSM    H3G13287   5.879   0.817   3.066  0.5623  1.1387  0.0274
  125OSM    C4F13288   5.705   0.863   3.182  0.8758  0.4498  0.2752
  125OSM    H4F13289   5.597   0.882   3.165  0.6222  1.3725  2.5134
  125OSM    H4G13290   5.748   0.939   3.252 -0.6866  1.7517 -0.1163
  125OSM    C5F13291   5.719   0.717   3.242  0.4262 -0.0224 -0.0857
  125OSM    H5F13292   5.822   0.679   3.229  0.4851  0.2813 -0.5023
  125OSM    H5G13293   5.656   0.645   3.186 -0.8542  1.2608 -0.3847
  125OSM    C6F13294   5.670   0.716   3.393 -0.4226 -0.1841  0.8915
  125OSM    H6F13295   5.687   0.610   3.420  0.2529 -0.0603  0.9842
  125OSM    H6G13296   5.561   0.738   3.388 -0.3879 -0.1685  0.0043
  125OSM    C7F13297   5.744   0.805   3.494 -0.0140 -0.1548 -0.3153
  125OSM    H7F13298   5.740   0.908   3.454 -0.9122 -0.6027 -1.4256
  125OSM    H7G13299   5.853   0.781   3.488 -0.1078 -0.4674 -0.8159
  125OSM    C8F13300   5.700   0.793   3.641 -0.1569  0.5618 -0.5175
  125OSM    H8F13301   5.605   0.849   3.648 -0.5174 -0.1607  0.6737
  125OSM    H8G13302   5.777   0.850   3.697 -0.5340  1.9023 -1.3250
  125OSM    C9F13303   5.692   0.649   3.694  0.1241  0.2373 -0.0522
  125OSM    H9F13304   5.615   0.590   3.641 -0.0404  1.6037 -1.3983
  125OSM   C10F13305   5.762   0.591   3.791 -0.1936  1.3784  0.0274
  125OSM   H10F13306   5.725   0.494   3.826  0.4415  1.0544 -0.1748
  125OSM   C11F13307   5.862   0.655   3.879  0.4112 -0.6565  0.0357
  125OSM   H11F13308   5.907   0.744   3.829  0.4926  1.2824  3.2680
  125OSM   H11G13309   5.951   0.593   3.903  3.2380  2.3136 -1.9389
  125OSM   C12F13310   5.797   0.713   4.003  0.3221  0.1123 -0.4797
  125OSM   H12F13311   5.743   0.633   4.058  2.0062 -2.0530 -1.8152
  125OSM   H12G13312   5.735   0.798   3.967 -0.3788  0.4339  1.4122
  125OSM   C13F13313   5.914   0.759   4.094  0.1815 -0.5317  0.1702
  125OSM   H13F13314   5.966   0.833   4.029 -1.1772  2.1821  1.9695
  125OSM   H13G13315   5.980   0.675   4.123  1.4058  0.0491 -0.8280
  125OSM   C14F13316   5.857   0.827   4.218  0.4079 -0.2450  0.3049
  125OSM   H14F13317   5.786   0.766   4.277  1.3569 -1.4887  0.1930
  125OSM   H14G13318   5.806   0.923   4.194  2.1573  0.3525 -1.2207
  125OSM   C15F13319   5.963   0.873   4.319  0.1302 -0.5397 -0.2524
  125OSM   H15F13320   6.012   0.964   4.280 -1.5463 -0.5809 -2.6942
  125OSM   H15G13321   6.037   0.790   4.324 -2.3607 -2.8768  0.4311
  125OSM   C16F13322   5.926   0.904   4.464 -0.3949 -0.1072 -0.1135
  125OSM   H16F13323   6.010   0.939   4.527 -0.6095 -0.7038  0.5204
  125OSM   H16G13324   5.874   0.823   4.520 -0.7027  1.2718  1.6942
  125OSM   C17F13325   5.828   1.023   4.473  1.5270 -1.0846  0.1133
  125OSM   H17F13326   5.726   0.997   4.438  1.0452  0.8615 -0.0517
  125OSM   H17G13327   5.860   1.100   4.400  2.8965 -0.8126  0.9632
  125OSM   C18F13328   5.807   1.091   4.609 -0.4426  0.0970 -0.4051
  125OSM   H18F13329   5.891   1.158   4.635 -0.9437  1.1228 -1.3213
  125OSM   H18G13330   5.810   1.019   4.693 -1.7522  0.7192  0.1971
  125OSM   H18H13331   5.714   1.152   4.610 -1.1506 -0.9066 -1.7662
  126OSM      N13332   4.037   1.080   2.334 -0.6200 -0.2416 -0.1427
  126OSM    C1513333   3.976   1.209   2.379 -0.0796 -0.2356 -0.2223
  126OSM   H15A13334   4.035   1.249   2.460  0.1041  1.0173 -0.9572
  126OSM   H15B13335   3.874   1.190   2.408 -1.3061  4.3639 -0.7289
  126OSM   H15C13336   3.976   1.290   2.307 -0.9248  0.4419  0.5096
  126OSM    C1413337   3.958   1.025   2.221 -0.0920 -0.0974 -0.2729
  126OSM   H14A13338   4.004   0.930   2.197 -0.3961 -0.3756  0.2349
  126OSM   H14B13339   3.957   1.104   2.147 -1.2836  1.1981  1.0664
  126OSM   H14C13340   3.862   0.988   2.254  0.2994 -2.7632 -1.8309
  126OSM    C1313341   4.173   1.105   2.275  0.2635  0.2867 -0.3580
  126OSM   H13A13342   4.170   1.180   2.198  0.2795  1.6469  0.9222
  126OSM   H13B13343   4.217   1.015   2.235  1.6454 -0.0115  1.6478
  126OSM   H13C13344   4.243   1.151   2.343  0.8870 -2.8153  1.2972
  126OSM    C1213345   4.050   0.984   2.455  0.4567 -0.3794 -0.3138
  126OSM   H12A13346   4.107   0.897   2.424  0.3948 -0.8455  0.8079
  126OSM   H12B13347   3.954   0.945   2.485 -0.7695 -0.0102 -3.3923
  126OSM    C1113348   4.143   1.024   2.575  0.6687 -0.5487 -0.4775
  126OSM   H11A13349   4.248   1.039   2.543  1.2990 -1.4376  1.0651
  126OSM   H11B13350   4.154   0.949   2.656  2.3969  0.0110 -0.1327
  126OSM      P13351   3.979   1.147   2.741  0.2773 -0.2787  0.4047
  126OSM    O1313352   3.961   1.287   2.781  0.5749 -0.1588  0.1289
  126OSM    O1413353   3.869   1.083   2.670  0.5844  0.0487 -0.2936
  126OSM    O1113354   4.024   1.053   2.859 -0.4235 -0.3332  0.3590
  126OSM    O1213355   4.098   1.146   2.640 -0.2435  0.4817  0.0033
  126OSM    C1S13356   4.152   1.075   2.913  0.3528 -0.8664  0.5287
  126OSM    H1S13357   4.215   1.156   2.869  0.1561  0.6832  2.9536
  126OSM    H1T13358   4.211   0.982   2.899  0.8458 -0.8832  2.4749
  126OSM     NF13359   4.273   1.167   3.119  0.7678  0.6064  0.2832
  126OSM    HNF13360   4.332   1.103   3.167  0.2019 -0.9151 -0.9854
  126OSM    C2S13361   4.151   1.112   3.067 -0.1692  0.5933 -0.6670
  126OSM    H2S13362   4.070   1.186   3.079 -2.7845 -1.9377 -1.6960
  126OSM    C3S13363   4.112   0.989   3.151 -0.0981 -0.7032  0.1771
  126OSM    H3S13364   4.199   0.921   3.162  1.3343  0.5326 -2.3951
  126OSM     O313365   4.006   0.905   3.103 -0.0339 -0.3097 -0.1840
  126OSM    HO313366   4.001   0.927   3.010  1.1357  0.4015 -0.1098
  126OSM    C4S13367   4.087   1.036   3.287  0.1178  0.1781 -0.8364
  126OSM    H4S13368   4.183   1.060   3.335  0.6197 -0.8979 -1.2656
  126OSM    C5S13369   3.974   1.064   3.359 -0.1341  0.7053  0.1833
  126OSM    H5S13370   3.879   1.036   3.310 -0.1641  0.5401  0.3362
  126OSM    C6S13371   3.967   1.109   3.505 -0.0967  0.3745  0.0312
  126OSM    H6S13372   3.889   1.050   3.557  0.9836 -1.3267 -0.2274
  126OSM    H6T13373   3.929   1.214   3.501  0.1997  0.4509 -1.6531
  126OSM    C7S13374   4.086   1.091   3.598  0.1432  0.4641  0.4980
  126OSM    H7S13375   4.169   1.149   3.552 -0.7582  0.1949 -1.5846
  126OSM    H7T13376   4.111   0.983   3.603  0.2752  0.4213 -0.7565
  126OSM    C8S13377   4.071   1.155   3.738  0.1949 -0.0839 -0.0547
  126OSM    H8S13378   3.989   1.090   3.775 -0.7665  0.5413 -1.0208
  126OSM    H8T13379   4.045   1.263   3.740  0.5271  0.0529 -1.6508
  126OSM    C9S13380   4.198   1.145   3.823  0.6191 -0.3952  0.0952
  126OSM    H9S13381   4.255   1.238   3.807 -0.3142  0.0791 -0.5763
  126OSM    H9T13382   4.247   1.046   3.807  1.1461  0.0095 -0.8400
  126OSM   C10S13383   4.164   1.147   3.979  0.6926 -0.6845 -0.1224
  126OSM   H10S13384   4.082   1.073   3.993 -0.6758  1.3501  4.1426
  126OSM   H10T13385   4.106   1.238   4.004 -2.0710 -1.6977 -2.2429
  126OSM   C11S13386   4.290   1.123   4.060  0.4390 -0.2854 -0.0063
  126OSM   H11S13387   4.367   1.200   4.035 -1.5390  1.4017 -1.1585
  126OSM   H11T13388   4.340   1.028   4.030 -0.8531 -0.5290 -1.5102
  126OSM   C12S13389   4.270   1.138   4.209 -0.9201  0.4464 -0.1508
  126OSM   H12S13390   4.180   1.074   4.224 -1.6161  1.1293 -1.3113
  126OSM   H12T13391   4.242   1.242   4.234 -1.0347  0.5598 -0.7437
  126OSM   C13S13392   4.380   1.071   4.297 -0.5463  0.1676  0.0149
  126OSM   H13S13393   4.465   1.142   4.306  0.5921 -1.2217  0.6655
  126OSM   H13T13394   4.417   0.973   4.260 -1.2351 -1.0299  2.3038
  126OSM   C14S13395   4.329   1.028   4.432  0.2138  0.4133 -0.1686
  126OSM   H14S13396   4.273   0.933   4.417 -1.2334  1.2445 -0.1908
  126OSM   H14T13397   4.264   1.107   4.474 -2.2398 -1.9638  0.8408
  126OSM   C15S13398   4.451   0.999   4.522  0.0302  0.2494  0.3505
  126OSM   H15S13399   4.530   1.076   4.513 -0.1106  0.1784 -2.3441
  126OSM   H15T13400   4.504   0.907   4.490 -2.3248 -0.4155 -1.9986
  126OSM   C16S13401   4.410   0.985   4.679  0.8731  0.3052  0.2547
  126OSM   H16S13402   4.327   0.912   4.690  0.6710  0.3535 -0.8683
  126OSM   H16T13403   4.364   1.078   4.718  1.8042  0.9903 -0.2257
  126OSM   C17S13404   4.520   0.929   4.767 -0.2121 -0.3779 -0.1094
  126OSM   H17S13405   4.617   0.983   4.764 -0.8224  1.1353  3.3586
  126OSM   H17T13406   4.531   0.827   4.726 -0.7809 -1.9735  3.3997
  126OSM   C18S13407   4.481   0.913   4.912  0.1497 -0.5283  0.5930
  126OSM   H18S13408   4.385   0.861   4.934  0.7382 -1.6342  0.6343
  126OSM   H18T13409   4.465   1.015   4.951 -1.4059 -0.8756  0.9447
  126OSM   H18U13410   4.554   0.857   4.973  0.4504  0.6889  1.3650
  126OSM    C1F13411   4.302   1.295   3.119  0.1130 -0.6344  0.4367
  126OSM     OF13412   4.228   1.380   3.065  0.0315 -0.6039 -0.6912
  126OSM    C2F13413   4.435   1.333   3.177  0.1180 -0.3304  0.2706
  126OSM    H2F13414   4.495   1.352   3.086  0.5311 -0.7009  0.4664
  126OSM    H2G13415   4.484   1.248   3.229  0.7354 -0.9555 -1.2869
  126OSM    C3F13416   4.416   1.457   3.267  0.1132  0.2103 -0.2829
  126OSM    H3F13417   4.371   1.538   3.206 -1.1481 -2.4828 -3.2364
  126OSM    H3G13418   4.520   1.484   3.296  0.8987  0.0133 -2.6922
  126OSM    C4F13419   4.331   1.437   3.395 -0.0798 -0.0523  0.2319
  126OSM    H4F13420   4.357   1.340   3.444  1.6619 -0.4999 -1.4828
  126OSM    H4G13421   4.226   1.428   3.360 -0.4745  2.5176  0.5458
  126OSM    C5F13422   4.339   1.557   3.489  1.0357  0.3805 -0.2969
  126OSM    H5F13423   4.312   1.651   3.436  1.3778  0.3103 -0.6012
  126OSM    H5G13424   4.442   1.568   3.528  0.1113  1.0809  2.1150
  126OSM    C6F13425   4.239   1.524   3.597 -0.2513 -0.3192  1.0453
  126OSM    H6F13426   4.266   1.427   3.645  1.0566 -0.8189 -0.6070
  126OSM    H6G13427   4.138   1.522   3.550  0.4871 -1.4152 -0.5871
  126OSM    C7F13428   4.232   1.628   3.705  0.3587 -0.4964 -0.5496
  126OSM    H7F13429   4.194   1.722   3.660  0.6900 -0.9342 -1.7855
  126OSM    H7G13430   4.330   1.653   3.750 -0.8208 -0.0964  1.9720
  126OSM    C8F13431   4.140   1.580   3.828 -0.2802 -0.1748  0.5654
  126OSM    H8F13432   4.186   1.494   3.880 -0.4291 -0.7080 -0.1710
  126OSM    H8G13433   4.045   1.555   3.776 -0.1825 -0.3499  0.4715
  126OSM    C9F13434   4.097   1.690   3.923 -0.1917 -0.1092 -0.1484
  126OSM    H9F13435   3.996   1.730   3.907 -0.4030  0.7086  2.7185
  126OSM   C10F13436   4.153   1.725   4.042  0.1571 -0.6672 -0.4099
  126OSM   H10F13437   4.108   1.812   4.092 -0.8693 -1.5797  0.3125
  126OSM   C11F13438   4.288   1.683   4.092  0.2597 -0.0386  0.5950
  126OSM   H11F13439   4.358   1.711   4.011  0.4352  3.5542  1.8457
  126OSM   H11G13440   4.293   1.575   4.118  1.4954 -0.8568 -2.5322
  126OSM   C12F13441   4.314   1.753   4.226 -0.0641 -0.5471  0.4644
  126OSM   H12F13442   4.301   1.863   4.210  2.3718 -0.4632 -1.6381
  126OSM   H12G13443   4.424   1.749   4.245  0.3566  3.3459 -0.3144
  126OSM   C13F13444   4.255   1.685   4.349 -0.6816 -0.1799  0.0552
  126OSM   H13F13445   4.312   1.593   4.372  0.8794  0.7884  0.2017
  126OSM   H13G13446   4.154   1.646   4.324  0.4926 -1.7318 -2.7368
  126OSM   C14F13447   4.264   1.769   4.472 -0.4325  0.4839 -0.0014
  126OSM   H14F13448   4.358   1.827   4.484 -0.2933 -0.1373  2.3828
  126OSM   H14G13449   4.267   1.707   4.565  2.5033 -0.8351 -0.8435
  126OSM   C15F13450   4.146   1.873   4.470 -0.2689  0.5210 -0.0173
  126OSM   H15F13451   4.057   1.807   4.475  0.0294  0.0725 -0.5398
  126OSM   H15G13452   4.154   1.915   4.367 -0.1162 -0.2403 -0.3229
  126OSM   C16F13453   4.152   1.985   4.581 -0.1669  0.3131  0.4825
  126OSM   H16F13454   4.253   2.031   4.578 -1.3901  3.1635 -0.8234
  126OSM   H16G13455   4.151   1.932   4.679  2.9141  0.6044  0.7784
  126OSM   C17F13456   4.034   2.085   4.585  0.7466 -0.1701  0.3115
  126OSM   H17F13457   3.942   2.025   4.576  1.1850 -0.9546  0.9624
  126OSM   H17G13458   4.046   2.147   4.494  0.0296  2.2520  1.7648
  126OSM   C18F13459   4.025   2.177   4.705 -0.4447 -0.5100 -0.6929
  126OSM   H18F13460   4.120   2.231   4.720 -1.6017  1.8610 -1.4455
  126OSM   H18G13461   3.996   2.116   4.793 -1.8922  2.0395  0.7197
  126OSM   H18H13462   3.946   2.254   4.690 -1.1390 -1.7250 -4.2620
  127OSM      N13463   3.422   4.009   1.925 -0.0516 -0.0956  0.2968
  127OSM    C1513464   3.569   4.051   1.930 -0.7041  0.6951 -0.1286
  127OSM   H15A13465   3.605   4.064   1.829 -3.3416  0.1533 -1.2237
  127OSM   H15B13466   3.624   3.974   1.981 -0.7751  0.3879 -0.5072
  127OSM   H15C13467   3.574   4.139   1.992 -2.9331  1.5673 -1.0434
  127OSM    C1413468   3.351   4.105   1.829  0.5307 -0.4575 -0.7478
  127OSM   H14A13469   3.401   4.115   1.733  0.5997 -0.9680 -0.7709
  127OSM   H14B13470   3.339   4.204   1.871 -1.8502 -0.8145 -0.4441
  127OSM   H14C13471   3.252   4.069   1.806  1.1263 -1.8101 -1.3411
  127OSM    C1313472   3.409   3.872   1.870  0.5803 -0.0328  0.4745
  127OSM   H13A13473   3.303   3.856   1.857 -0.0391  3.2959  0.6521
  127OSM   H13B13474   3.439   3.799   1.944  0.3496 -0.4009  0.2066
  127OSM   H13C13475   3.469   3.866   1.781 -1.7294  0.4977 -1.2117
  127OSM    C1213476   3.359   4.011   2.063 -0.2254 -0.1212 -0.2382
  127OSM   H12A13477   3.258   3.974   2.058 -0.6129  0.9656 -0.7987
  127OSM   H12B13478   3.354   4.114   2.093  2.0764 -0.5156  1.8271
  127OSM    C1113479   3.427   3.934   2.185 -0.0573  0.0418  0.2073
  127OSM   H11A13480   3.454   3.828   2.171 -0.0741 -0.1316  1.3832
  127OSM   H11B13481   3.348   3.938   2.263 -1.2436 -2.0874 -0.8067
  127OSM      P13482   3.546   4.133   2.304  0.0560 -0.1593 -0.1708
  127OSM    O1313483   3.682   4.177   2.351  0.2494 -0.1519  0.0063
  127OSM    O1413484   3.460   4.228   2.228  0.2988  0.1751 -0.4937
  127OSM    O1113485   3.465   4.082   2.428 -0.1333 -0.9784  0.5185
  127OSM    O1213486   3.553   3.998   2.219  0.0741  0.2786 -0.2734
  127OSM    C1S13487   3.495   3.962   2.496 -0.0176  0.2194  0.0214
  127OSM    H1S13488   3.604   3.942   2.501 -0.0420  0.1453  0.2897
  127OSM    H1T13489   3.450   3.876   2.444  2.1379 -0.3151 -1.0624
  127OSM     NF13490   3.510   3.864   2.723  0.1304 -0.0509  0.2166
  127OSM    HNF13491   3.471   3.774   2.708 -1.3776  0.3271  1.5942
  127OSM    C2S13492   3.443   3.961   2.642  0.2051  0.0854 -0.4262
  127OSM    H2S13493   3.458   4.061   2.688  0.1018 -0.4520  0.7985
  127OSM    C3S13494   3.288   3.941   2.645  0.2089 -0.2591  0.6340
  127OSM    H3S13495   3.266   3.834   2.623  1.8106 -0.3283 -0.7919
  127OSM     O313496   3.212   4.012   2.547  0.2811 -0.2098 -0.1803
  127OSM    HO313497   3.274   4.056   2.489 -1.4814 -0.9025 -2.7739
  127OSM    C4S13498   3.239   3.965   2.786 -0.0728  0.5955 -0.6229
  127OSM    H4S13499   3.222   4.072   2.803  0.8708  0.6402  0.0799
  127OSM    C5S13500   3.201   3.872   2.878 -1.0740 -0.2992 -0.7073
  127OSM    H5S13501   3.230   3.771   2.848  1.2383  0.3103 -0.7275
  127OSM    C6S13502   3.137   3.898   3.010  0.4185  0.1736  0.3833
  127OSM    H6S13503   3.041   3.842   3.016 -0.1620  1.1936  0.9525
  127OSM    H6T13504   3.108   4.003   3.029  1.4269  0.0096  3.4174
  127OSM    C7S13505   3.236   3.863   3.123 -0.2936  1.2812 -0.4585
  127OSM    H7S13506   3.327   3.927   3.111  0.5656  0.0432 -0.7511
  127OSM    H7T13507   3.270   3.757   3.122  0.0198  1.3810 -0.7099
  127OSM    C8S13508   3.165   3.888   3.254  0.7086 -0.2680 -0.4140
  127OSM    H8S13509   3.057   3.861   3.257  0.7532 -0.4645  3.0471
  127OSM    H8T13510   3.176   3.994   3.284 -0.9099 -0.6875  1.9023
  127OSM    C9S13511   3.230   3.806   3.366  0.2365 -0.7396  0.2160
  127OSM    H9S13512   3.337   3.832   3.354 -0.6105  3.2557 -0.1032
  127OSM    H9T13513   3.226   3.696   3.350 -1.7555 -0.6717 -0.0527
  127OSM   C10S13514   3.201   3.852   3.514 -0.8601  0.7270  0.3962
  127OSM   H10S13515   3.267   3.788   3.577  0.6130  0.8323 -0.9737
  127OSM   H10T13516   3.096   3.839   3.549 -1.8627 -1.0981 -2.8747
  127OSM   C11S13517   3.250   3.991   3.543  0.3639  0.1246 -0.5126
  127OSM   H11S13518   3.178   4.073   3.527  0.4691  0.3636  0.1898
  127OSM   H11T13519   3.335   4.012   3.474 -1.5145 -0.6802 -3.2340
  127OSM   C12S13520   3.309   4.007   3.688 -0.5945 -0.0042 -0.1712
  127OSM   H12S13521   3.352   4.109   3.677 -3.3373  1.1591 -0.8673
  127OSM   H12T13522   3.384   3.929   3.711  0.0750  1.5274  3.4366
  127OSM   C13S13523   3.199   3.995   3.795 -0.5383 -0.3337 -0.4669
  127OSM   H13S13524   3.186   3.892   3.834  0.3308 -1.2106 -2.4053
  127OSM   H13T13525   3.104   4.033   3.753 -0.4330  3.1284  2.0036
  127OSM   C14S13526   3.218   4.086   3.913 -0.0318  0.2682  0.2524
  127OSM   H14S13527   3.208   4.191   3.880  1.9539  0.1839 -0.8332
  127OSM   H14T13528   3.322   4.084   3.952  0.4042 -0.5410 -0.8833
  127OSM   C15S13529   3.129   4.056   4.033  0.2212  0.3782 -0.3283
  127OSM   H15S13530   3.151   4.132   4.112  0.8946 -0.1526  0.0108
  127OSM   H15T13531   3.145   3.953   4.071 -0.9979 -0.2054 -1.3301
  127OSM   C16S13532   2.978   4.057   4.009  0.3322 -0.4513  0.0824
  127OSM   H16S13533   2.961   3.980   3.931  2.0796 -0.3845 -0.4020
  127OSM   H16T13534   2.950   4.157   3.970 -0.9047 -0.6870  0.3275
  127OSM   C17S13535   2.892   4.026   4.126  0.3106 -0.9944  0.2340
  127OSM   H17S13536   2.914   4.110   4.196  0.9132  0.0747 -1.1863
  127OSM   H17T13537   2.919   3.925   4.162 -0.6080 -0.5666  2.3189
  127OSM   C18S13538   2.748   4.014   4.091 -0.2952  1.0153  0.2254
  127OSM   H18S13539   2.694   3.965   4.174 -0.4010  0.0501 -0.4016
  127OSM   H18T13540   2.743   3.945   4.004  1.4597 -0.0287  0.8899
  127OSM   H18U13541   2.703   4.109   4.053 -1.5421  0.3747  0.0550
  127OSM    C1F13542   3.631   3.886   2.765 -0.1672 -0.5127 -0.6954
  127OSM     OF13543   3.682   3.996   2.765  0.2513 -0.4385  0.0404
  127OSM    C2F13544   3.706   3.764   2.812 -0.4676 -0.3543  0.0699
  127OSM    H2F13545   3.779   3.735   2.733  0.4075 -2.9288  1.7022
  127OSM    H2G13546   3.629   3.684   2.818 -0.1039 -0.7320 -0.1824
  127OSM    C3F13547   3.783   3.783   2.941  0.1399 -0.1344 -0.0671
  127OSM    H3F13548   3.860   3.859   2.918 -0.7417  0.5348 -0.9160
  127OSM    H3G13549   3.831   3.687   2.968 -1.2469 -0.6883  0.4970
  127OSM    C4F13550   3.699   3.826   3.057 -0.3124 -0.1503 -0.3865
  127OSM    H4F13551   3.613   3.755   3.066 -0.0684 -0.3262  0.6711
  127OSM    H4G13552   3.663   3.930   3.049 -3.1025 -0.7887  1.8896
  127OSM    C5F13553   3.776   3.803   3.194  0.1867  0.0993 -0.0526
  127OSM    H5F13554   3.873   3.854   3.176  1.4489 -1.4806  1.8768
  127OSM    H5G13555   3.798   3.695   3.201  0.2880  0.1415  0.3233
  127OSM    C6F13556   3.710   3.864   3.315 -0.2209  0.3522 -0.1111
  127OSM    H6F13557   3.609   3.820   3.330  0.7924 -2.3330 -0.6091
  127OSM    H6G13558   3.698   3.973   3.294 -1.0244  0.1409 -0.8637
  127OSM    C7F13559   3.780   3.853   3.448 -0.4322  0.3969 -0.0874
  127OSM    H7F13560   3.876   3.909   3.445  0.2883 -0.7084  1.1689
  127OSM    H7G13561   3.819   3.749   3.455  1.5921  1.2050  1.6482
  127OSM    C8F13562   3.700   3.915   3.570 -0.7516 -0.2226  0.2253
  127OSM    H8F13563   3.604   3.859   3.573 -0.3643 -0.8495  1.2458
  127OSM    H8G13564   3.677   4.023   3.555 -0.9299 -0.4466 -1.2258
  127OSM    C9F13565   3.765   3.896   3.706  0.2924  0.0286 -0.5619
  127OSM    H9F13566   3.838   3.968   3.747  0.9792 -1.2972  0.5973
  127OSM   C10F13567   3.730   3.799   3.796 -0.6483  0.6103  0.0383
  127OSM   H10F13568   3.794   3.782   3.884  0.6460 -1.0033 -1.1697
  127OSM   C11F13569   3.613   3.697   3.778  0.4405  0.1354 -0.4240
  127OSM   H11F13570   3.644   3.611   3.714 -0.9074 -1.2955  0.7434
  127OSM   H11G13571   3.528   3.756   3.738  2.5887  2.1389 -2.3368
  127OSM   C12F13572   3.570   3.655   3.921 -0.0094  0.1471  0.3294
  127OSM   H12F13573   3.642   3.585   3.968 -0.4569 -0.0540  0.7202
  127OSM   H12G13574   3.483   3.587   3.912  0.5235 -0.8030  1.9683
  127OSM   C13F13575   3.533   3.768   4.013  0.0423 -0.4348  0.2063
  127OSM   H13F13576   3.449   3.829   3.972  1.8729  0.7216 -2.0845
  127OSM   H13G13577   3.616   3.841   4.024 -2.4903  3.1120 -2.0011
  127OSM   C14F13578   3.492   3.717   4.151 -0.2977  0.4916 -0.2049
  127OSM   H14F13579   3.574   3.666   4.207 -0.6601  1.2535  1.0520
  127OSM   H14G13580   3.422   3.630   4.152  1.3296 -0.8866  1.3851
  127OSM   C15F13581   3.430   3.823   4.247 -0.0787 -0.3561  1.1238
  127OSM   H15F13582   3.332   3.854   4.206  0.9652 -1.3919 -2.4965
  127OSM   H15G13583   3.503   3.907   4.246 -1.0503  0.5200 -0.9191
  127OSM   C16F13584   3.424   3.783   4.396  0.9532 -0.2586 -1.0736
  127OSM   H16F13585   3.527   3.760   4.431  0.9277  1.8537  0.6051
  127OSM   H16G13586   3.354   3.697   4.400 -1.0476  1.3249 -0.1214
  127OSM   C17F13587   3.379   3.894   4.496 -0.2672  0.4538 -0.2016
  127OSM   H17F13588   3.466   3.959   4.519  0.4371 -0.5286  0.0034
  127OSM   H17G13589   3.359   3.858   4.599 -0.4966 -1.5716 -0.9140
  127OSM   C18F13590   3.259   3.985   4.456  0.3289 -0.5416  0.8056
  127OSM   H18F13591   3.279   4.046   4.365 -1.9995 -0.7814  0.0562
  127OSM   H18G13592   3.223   4.048   4.541  1.0650  0.0107  0.7223
  127OSM   H18H13593   3.170   3.921   4.436  0.5044 -0.9432  1.2939
  128OSM      N13594   5.814   2.097   2.548 -0.0676 -0.2923  0.0486
  128OSM    C1513595   5.890   2.176   2.440 -0.4420 -0.4313 -0.3278
  128OSM   H15A13596   5.831   2.256   2.398 -1.3356 -1.3903 -0.9554
  128OSM   H15B13597   5.910   2.107   2.359  0.1327  1.1086 -1.5507
  128OSM   H15C13598   5.985   2.214   2.473 -0.1365  0.7969 -2.4404
  128OSM    C1413599   5.723   2.001   2.481 -0.5288 -0.1431 -0.2021
  128OSM   H14A13600   5.674   1.948   2.561  0.2208  0.4730  0.6947
  128OSM   H14B13601   5.772   1.938   2.408  0.4776 -1.3093  1.4101
  128OSM   H14C13602   5.641   2.045   2.427 -0.3403  0.0008 -0.3745
  128OSM    C1313603   5.919   2.018   2.614  0.1840 -0.3610 -0.4962
  128OSM   H13A13604   5.980   2.076   2.682 -0.0108 -0.7434  0.0123
  128OSM   H13B13605   5.973   1.955   2.545 -1.1909 -1.1370 -0.9005
  128OSM   H13C13606   5.875   1.944   2.679  0.8373 -0.8214 -0.5717
  128OSM    C1213607   5.746   2.189   2.647  0.2778 -0.0151 -0.3190
  128OSM   H12A13608   5.828   2.208   2.715 -0.1693 -0.7841  0.4652
  128OSM   H12B13609   5.679   2.135   2.713  0.7554  2.2026  2.1478
  128OSM    C1113610   5.661   2.308   2.599 -0.5394  0.0029 -0.5398
  128OSM   H11A13611   5.722   2.387   2.551 -1.7155  1.4634  0.2705
  128OSM   H11B13612   5.627   2.359   2.692 -0.7105 -0.9697 -0.0576
  128OSM      P13613   5.415   2.210   2.571 -0.0157 -0.4624 -0.1803
  128OSM    O1313614   5.316   2.260   2.475  0.1808  0.0021 -0.1855
  128OSM    O1413615   5.416   2.063   2.593  0.3481 -0.2699  0.3376
  128OSM    O1113616   5.398   2.289   2.707  0.8006  0.1426 -0.4393
  128OSM    O1213617   5.556   2.258   2.518  0.5733  0.2143 -0.0847
  128OSM    C1S13618   5.264   2.337   2.720  0.2193  0.9730 -0.2511
  128OSM    H1S13619   5.195   2.253   2.697  1.1103 -0.2410  1.3513
  128OSM    H1T13620   5.245   2.427   2.656  0.8541  0.8396 -0.6311
  128OSM     NF13621   5.084   2.400   2.881 -0.0243 -0.1442  0.1744
  128OSM    HNF13622   5.056   2.494   2.901  0.5778 -0.0370  0.5300
  128OSM    C2S13623   5.226   2.372   2.862  0.4489 -0.1445  0.0102
  128OSM    H2S13624   5.252   2.278   2.916  1.7465  0.2947  0.1863
  128OSM    C3S13625   5.320   2.478   2.924 -0.0783 -0.1832  0.3165
  128OSM    H3S13626   5.301   2.575   2.873  1.7418 -1.3223 -2.8419
  128OSM     O313627   5.457   2.450   2.914 -0.3503  0.1656 -0.1147
  128OSM    HO313628   5.455   2.373   2.857 -0.0609 -0.4227  0.6483
  128OSM    C4S13629   5.291   2.488   3.070 -0.9121 -0.4545 -0.3083
  128OSM    H4S13630   5.223   2.573   3.089 -0.9646 -0.4808 -0.3776
  128OSM    C5S13631   5.333   2.416   3.180  0.0510 -0.2232 -0.0694
  128OSM    H5S13632   5.400   2.329   3.183  0.2522 -0.0397  1.0456
  128OSM    C6S13633   5.280   2.448   3.314  0.6580 -0.0372  0.4780
  128OSM    H6S13634   5.361   2.462   3.389  2.4492 -2.8041 -0.7884
  128OSM    H6T13635   5.223   2.362   3.353  1.7308 -0.8020  0.3827
  128OSM    C7S13636   5.180   2.571   3.338  0.1581 -0.5163  0.3047
  128OSM    H7S13637   5.087   2.553   3.280  0.6108  2.0446 -1.3868
  128OSM    H7T13638   5.229   2.660   3.292  0.6588 -0.5540  0.7604
  128OSM    C8S13639   5.155   2.612   3.481 -0.2551  0.4338  1.0275
  128OSM    H8S13640   5.105   2.711   3.472  0.7820  0.8322 -0.8468
  128OSM    H8T13641   5.250   2.639   3.533 -0.7505  2.8396  0.7947
  128OSM    C9S13642   5.062   2.510   3.562  0.3769  0.1030 -0.0068
  128OSM    H9S13643   5.115   2.413   3.562 -0.1361 -0.2014  1.3850
  128OSM    H9T13644   4.966   2.499   3.508  0.7234  0.1541 -0.6361
  128OSM   C10S13645   5.038   2.558   3.707  0.4292 -0.2686 -0.3232
  128OSM   H10S13646   4.958   2.635   3.710  1.7701  1.1618  0.0420
  128OSM   H10T13647   5.125   2.605   3.757 -0.1628 -2.0177  2.5902
  128OSM   C11S13648   4.984   2.455   3.811  0.2215 -0.1741  0.7707
  128OSM   H11S13649   5.054   2.370   3.800 -1.0090 -1.0429 -0.7984
  128OSM   H11T13650   4.882   2.415   3.795  0.4141 -0.6291  0.6730
  128OSM   C12S13651   4.990   2.505   3.957  0.5315  0.0725  0.4511
  128OSM   H12S13652   4.911   2.583   3.968 -0.9724 -0.9784 -1.9517
  128OSM   H12T13653   5.091   2.550   3.972  1.1310 -1.6222  1.7608
  128OSM   C13S13654   4.969   2.397   4.063 -0.1161  0.2128 -0.1296
  128OSM   H13S13655   5.048   2.319   4.053  0.4749  1.0982 -4.2226
  128OSM   H13T13656   4.878   2.336   4.048  0.4720 -0.3887 -1.5178
  128OSM   C14S13657   4.957   2.441   4.205  0.5566 -0.1688  0.5333
  128OSM   H14S13658   4.856   2.489   4.201 -0.1950 -1.7204  0.0535
  128OSM   H14T13659   5.032   2.521   4.225 -0.1566  1.8434 -3.7266
  128OSM   C15S13660   4.940   2.330   4.315  0.7374 -0.3141 -0.4052
  128OSM   H15S13661   5.029   2.266   4.335  0.1966 -0.8005  0.5258
  128OSM   H15T13662   4.862   2.260   4.278  1.5996 -3.2869  2.8170
  128OSM   C16S13663   4.905   2.398   4.444 -0.0840  0.6262 -0.0723
  128OSM   H16S13664   4.999   2.441   4.485  0.7602 -2.3175  1.3833
  128OSM   H16T13665   4.879   2.318   4.517  0.8620  0.7022  0.3719
  128OSM   C17S13666   4.800   2.509   4.449  0.1226  0.3130 -0.0632
  128OSM   H17S13667   4.697   2.470   4.433  0.1565 -0.7454  1.9032
  128OSM   H17T13668   4.813   2.596   4.381 -0.7383  1.0946  0.7406
  128OSM   C18S13669   4.786   2.564   4.592 -0.0779 -0.4418 -0.2986
  128OSM   H18S13670   4.879   2.563   4.652  0.3078 -0.0720 -0.8796
  128OSM   H18T13671   4.707   2.516   4.654  0.3724  0.2574  0.8640
  128OSM   H18U13672   4.747   2.668   4.579  0.2791 -0.5996 -3.3324
  128OSM    C1F13673   4.989   2.307   2.862  0.2093  0.5075  0.0690
  128OSM     OF13674   5.019   2.190   2.840 -0.5503  0.7953 -0.5686
  128OSM    C2F13675   4.845   2.350   2.858 -0.7757  0.0009  0.0598
  128OSM    H2F13676   4.793   2.290   2.780 -0.0299 -1.9118  0.9770
  128OSM    H2G13677   4.841   2.455   2.824 -2.7692 -0.4986 -1.4492
  128OSM    C3F13678   4.768   2.325   2.990  0.0247  0.8103 -0.2739
  128OSM    H3F13679   4.780   2.220   3.024 -2.0679 -0.2256 -2.4584
  128OSM    H3G13680   4.660   2.333   2.967  0.1545  2.5134 -0.4436
  128OSM    C4F13681   4.808   2.418   3.107  0.4754  0.5785 -0.5669
  128OSM    H4F13682   4.916   2.416   3.133  0.1476 -1.5746  0.8813
  128OSM    H4G13683   4.738   2.394   3.191  0.1042 -1.4854 -1.4087
  128OSM    C5F13684   4.773   2.563   3.074 -0.0506 -0.3296 -0.3023
  128OSM    H5F13685   4.667   2.561   3.043  0.4911 -3.2862 -2.3852
  128OSM    H5G13686   4.821   2.593   2.979  1.2569  0.6192  0.6070
  128OSM    C6F13687   4.818   2.672   3.174 -0.0675  0.4696 -0.0632
  128OSM    H6F13688   4.783   2.770   3.135  2.2771  0.9895 -1.0643
  128OSM    H6G13689   4.929   2.672   3.180 -0.1235  0.6986  1.1945
  128OSM    C7F13690   4.750   2.654   3.307 -0.9230  0.1213 -0.6125
  128OSM    H7F13691   4.772   2.552   3.345 -2.0738  0.1119  0.1116
  128OSM    H7G13692   4.640   2.654   3.292 -0.8780 -0.5619 -1.0029
  128OSM    C8F13693   4.793   2.752   3.421 -0.4396  0.3703 -0.7761
  128OSM    H8F13694   4.903   2.767   3.413 -0.6701  1.0179 -4.1002
  128OSM    H8G13695   4.768   2.705   3.518  0.6537  1.2811 -0.0345
  128OSM    C9F13696   4.722   2.882   3.399  0.6179 -0.3036  0.1757
  128OSM    H9F13697   4.625   2.878   3.346  0.4475 -0.9209  0.5229
  128OSM   C10F13698   4.781   3.002   3.421  0.5440  0.1115  0.6359
  128OSM   H10F13699   4.727   3.096   3.403  0.1205 -0.2105  0.2222
  128OSM   C11F13700   4.912   3.032   3.489  0.5910  0.6222 -0.0139
  128OSM   H11F13701   4.960   3.110   3.426  1.7471  0.0608  0.1322
  128OSM   H11G13702   4.972   2.939   3.472 -2.7208 -0.9662 -5.7718
  128OSM   C12F13703   4.901   3.065   3.635 -0.1936  0.3968 -0.4242
  128OSM   H12F13704   4.842   3.157   3.651 -1.1648 -0.3540  0.4654
  128OSM   H12G13705   5.000   3.071   3.686 -0.4536  1.4298 -0.0210
  128OSM   C13F13706   4.827   2.961   3.723  0.4368 -0.3115  0.3592
  128OSM   H13F13707   4.872   2.860   3.711  1.9380  0.4046 -0.3580
  128OSM   H13G13708   4.717   2.955   3.709  0.4062 -1.0501  0.8503
  128OSM   C14F13709   4.827   3.001   3.871  0.1741  0.2413  0.2096
  128OSM   H14F13710   4.793   3.106   3.884  0.7629  0.4272  0.2976
  128OSM   H14G13711   4.932   2.990   3.907 -0.2271 -0.8480  1.1157
  128OSM   C15F13712   4.731   2.912   3.955 -0.6060  0.4589 -0.1945
  128OSM   H15F13713   4.769   2.812   3.924 -2.0080  0.6022 -2.6783
  128OSM   H15G13714   4.628   2.921   3.914  0.0183  1.4855 -1.6379
  128OSM   C16F13715   4.743   2.935   4.106  0.0109 -0.4061 -0.1125
  128OSM   H16F13716   4.699   3.034   4.130 -0.1162 -0.2836 -0.8510
  128OSM   H16G13717   4.851   2.942   4.130 -0.4833  1.7170  1.7582
  128OSM   C17F13718   4.675   2.821   4.183  0.3870 -0.1654  0.3846
  128OSM   H17F13719   4.742   2.734   4.166  0.7320  0.1404  0.1657
  128OSM   H17G13720   4.577   2.791   4.139  0.6073 -2.4788  1.3481
  128OSM   C18F13721   4.658   2.861   4.326  0.0063  0.6347 -0.0986
  128OSM   H18F13722   4.607   2.959   4.340 -1.7306 -0.2029 -0.3551
  128OSM   H18G13723   4.757   2.865   4.378 -0.7051  0.2815  1.3248
  128OSM   H18H13724   4.606   2.775   4.373 -0.0609 -0.2004 -1.6368
  129OSM      N13725   5.107   6.007   2.242 -0.7172  0.9001 -0.6964
  129OSM    C1513726   5.168   6.081   2.127 -0.5739 -0.2620 -0.5696
  129OSM   H15A13727   5.192   6.016   2.044  2.0142  0.5585 -0.5492
  129OSM   H15B13728   5.253   6.140   2.156 -0.6622 -0.2153 -0.4092
  129OSM   H15C13729   5.098   6.151   2.083  0.3506  2.2127  1.6414
  129OSM    C1413730   5.056   6.100   2.349 -0.2291 -0.2254 -0.1722
  129OSM   H14A13731   5.019   6.041   2.431 -0.1372 -1.1939 -0.8164
  129OSM   H14B13732   4.971   6.160   2.320  0.3302  0.5218 -0.3273
  129OSM   H14C13733   5.131   6.165   2.393  0.5888 -2.7348  2.4132
  129OSM    C1313734   4.996   5.927   2.197  0.1224 -0.3770 -0.1201
  129OSM   H13A13735   4.911   5.989   2.174  0.8792  0.4927 -0.6613
  129OSM   H13B13736   4.972   5.855   2.274 -1.7577 -1.2415 -1.4640
  129OSM   H13C13737   5.025   5.869   2.112  3.2216  1.0311 -0.1700
  129OSM    C1213738   5.200   5.914   2.300  1.0883  0.1474 -0.2279
  129OSM   H12A13739   5.229   5.834   2.233  2.3901 -0.4676  1.0044
  129OSM   H12B13740   5.153   5.856   2.378 -2.2395 -0.1992 -2.2808
  129OSM    C1113741   5.332   5.972   2.347  0.2351 -0.6123  0.3429
  129OSM   H11A13742   5.302   6.032   2.436  0.2398  0.3670 -0.3009
  129OSM   H11B13743   5.371   6.049   2.277  0.5086 -0.2669  0.8679
  129OSM      P13744   5.549   5.910   2.474  0.0236 -0.1350 -0.3031
  129OSM    O1313745   5.621   5.788   2.516 -0.3667  0.2549  0.2793
  129OSM    O1413746   5.622   6.015   2.404  0.4190 -0.4052  0.4799
  129OSM    O1113747   5.487   5.982   2.594  0.1588  0.1561 -0.3807
  129OSM    O1213748   5.425   5.879   2.386 -0.6724  0.4789  0.3228
  129OSM    C1S13749   5.392   5.911   2.678  0.5542  0.2182  0.0597
  129OSM    H1S13750   5.430   5.811   2.706  1.8172  0.8839  0.8429
  129OSM    H1T13751   5.291   5.907   2.631 -0.3222  1.0740  1.7989
  129OSM     NF13752   5.291   5.905   2.900 -0.6715  0.3057  0.3940
  129OSM    HNF13753   5.197   5.932   2.919 -0.7505  0.6714 -0.4582
  129OSM    C2S13754   5.360   5.991   2.806 -0.2706  0.5801  0.0441
  129OSM    H2S13755   5.460   6.026   2.840 -0.9076  2.6799 -0.1237
  129OSM    C3S13756   5.282   6.121   2.774  1.0245  0.1809  0.7412
  129OSM    H3S13757   5.184   6.089   2.732  1.8853 -0.9104 -0.5694
  129OSM     O313758   5.347   6.191   2.666  0.5681 -0.1621 -0.1403
  129OSM    HO313759   5.402   6.123   2.626 -0.6464 -0.7798 -0.8276
  129OSM    C4S13760   5.252   6.202   2.886  0.6211  0.4529  0.1260
  129OSM    H4S13761   5.337   6.255   2.933 -0.0716  0.4893  1.3888
  129OSM    C5S13762   5.136   6.229   2.946  0.5281 -0.7190  0.3176
  129OSM    H5S13763   5.042   6.194   2.901 -0.3506  2.8860 -0.9286
  129OSM    C6S13764   5.122   6.308   3.075 -0.2713 -0.1473 -0.4513
  129OSM    H6S13765   5.045   6.260   3.139 -0.0165  0.0919  0.0414
  129OSM    H6T13766   5.095   6.413   3.052  0.4749  0.0717 -0.3376
  129OSM    C7S13767   5.249   6.305   3.155 -0.6978  0.1202 -0.4083
  129OSM    H7S13768   5.318   6.380   3.111 -0.6810 -0.6502 -1.7256
  129OSM    H7T13769   5.292   6.203   3.147 -0.3719  0.1889  0.3483
  129OSM    C8S13770   5.230   6.342   3.299  0.3759  0.0282  0.3375
  129OSM    H8S13771   5.162   6.262   3.335 -0.0311 -0.4179 -1.3241
  129OSM    H8T13772   5.190   6.444   3.315  1.3304  0.6018 -0.7547
  129OSM    C9S13773   5.360   6.344   3.379 -0.2187 -0.0683  0.2043
  129OSM    H9S13774   5.431   6.397   3.312 -0.9729  1.2164  0.3886
  129OSM    H9T13775   5.392   6.238   3.379 -2.3718 -0.7697 -0.7465
  129OSM   C10S13776   5.359   6.407   3.514  0.7933  0.2414 -0.4251
  129OSM   H10S13777   5.291   6.494   3.512  2.0209  1.4516  3.0240
  129OSM   H10T13778   5.463   6.445   3.523  0.9440  0.0634 -1.2813
  129OSM   C11S13779   5.315   6.317   3.630  0.1958  0.3518  0.0090
  129OSM   H11S13780   5.406   6.259   3.655  0.2313  0.5078  0.2375
  129OSM   H11T13781   5.226   6.252   3.611  1.5783 -1.0959 -1.8972
  129OSM   C12S13782   5.289   6.391   3.763  0.1677 -0.1958  0.5054
  129OSM   H12S13783   5.199   6.454   3.746  0.9754  0.3035 -2.5583
  129OSM   H12T13784   5.378   6.455   3.783  0.1675 -0.5065  1.5569
  129OSM   C13S13785   5.257   6.299   3.876  0.2519  0.0567  0.3241
  129OSM   H13S13786   5.339   6.226   3.890 -1.0240 -1.5368 -0.1966
  129OSM   H13T13787   5.167   6.236   3.855 -0.1739  0.3994  1.0687
  129OSM   C14S13788   5.234   6.365   4.013 -0.3281  0.2832  0.3866
  129OSM   H14S13789   5.131   6.406   4.026  0.7670  3.3536  0.1500
  129OSM   H14T13790   5.289   6.460   4.027 -0.5508  0.4180  0.3588
  129OSM   C15S13791   5.282   6.274   4.129  0.0839  0.3705 -0.1699
  129OSM   H15S13792   5.381   6.235   4.100  0.2587  0.1429  0.6973
  129OSM   H15T13793   5.212   6.188   4.140  0.7320 -0.1920 -0.4104
  129OSM   C16S13794   5.302   6.353   4.257  0.3624 -0.1124  0.6465
  129OSM   H16S13795   5.216   6.420   4.279 -0.6062 -1.7875  2.2053
  129OSM   H16T13796   5.390   6.421   4.248 -1.3269  1.9976 -1.1509
  129OSM   C17S13797   5.324   6.262   4.378  0.0120 -0.2667 -0.2703
  129OSM   H17S13798   5.389   6.316   4.451  1.5107 -1.1726 -0.8867
  129OSM   H17T13799   5.379   6.170   4.349  0.7720  0.2830 -0.6107
  129OSM   C18S13800   5.188   6.257   4.453 -0.5238  0.4270 -0.7974
  129OSM   H18S13801   5.210   6.182   4.532  2.4487  1.9414 -0.0436
  129OSM   H18T13802   5.106   6.209   4.395 -0.3631 -0.4422 -0.3274
  129OSM   H18U13803   5.165   6.345   4.516 -1.4241  0.5280 -1.2538
  129OSM    C1F13804   5.352   5.802   2.960  0.2140  0.4620  0.0931
  129OSM     OF13805   5.477   5.784   2.959 -0.0428 -0.3010  0.4630
  129OSM    C2F13806   5.260   5.718   3.043  0.2960 -0.1857  0.0195
  129OSM    H2F13807   5.237   5.621   2.994 -1.2472 -0.6732  1.6123
  129OSM    H2G13808   5.165   5.774   3.061  0.2808 -0.5332  1.0290
  129OSM    C3F13809   5.319   5.688   3.183  0.4487  0.3479  0.2646
  129OSM    H3F13810   5.424   5.652   3.182  1.1477  2.1884  1.5944
  129OSM    H3G13811   5.251   5.618   3.236 -0.1102  0.3291 -0.4597
  129OSM    C4F13812   5.322   5.820   3.264 -0.8341 -0.3172  0.0618
  129OSM    H4F13813   5.217   5.846   3.290 -0.3372  1.1480  0.7213
  129OSM    H4G13814   5.361   5.911   3.212 -0.7614 -0.2870  0.1688
  129OSM    C5F13815   5.411   5.807   3.392 -0.0748 -0.3428  0.2462
  129OSM    H5F13816   5.517   5.799   3.362 -0.2975 -1.9403 -0.1669
  129OSM    H5G13817   5.370   5.712   3.430 -0.0704 -0.2227  0.5558
  129OSM    C6F13818   5.388   5.918   3.486 -0.5689 -0.2649 -0.2541
  129OSM    H6F13819   5.281   5.924   3.518 -0.9412 -0.6551 -1.4024
  129OSM    H6G13820   5.394   6.015   3.433  3.1105  0.0319  0.4784
  129OSM    C7F13821   5.481   5.925   3.611 -0.4346 -0.2456  0.3835
  129OSM    H7F13822   5.476   6.029   3.647 -1.0395 -0.3681  0.6620
  129OSM    H7G13823   5.585   5.902   3.579 -1.3940 -0.5901 -2.8735
  129OSM    C8F13824   5.447   5.828   3.732 -0.4837 -0.7192  0.9248
  129OSM    H8F13825   5.544   5.802   3.780  1.2425  1.4700 -1.0934
  129OSM    H8G13826   5.405   5.737   3.685 -1.4921  0.0268  0.3324
  129OSM    C9F13827   5.355   5.898   3.836  0.2807  0.1658  0.6225
  129OSM    H9F13828   5.262   5.931   3.788  0.7014 -1.6270 -1.6020
  129OSM   C10F13829   5.377   5.928   3.969  0.1254  0.8559  0.4098
  129OSM   H10F13830   5.297   5.972   4.030  1.4333  0.4724  2.4813
  129OSM   C11F13831   5.501   5.887   4.052  0.5337  0.2216  0.6210
  129OSM   H11F13832   5.565   5.973   4.081  0.9394  0.5539 -1.1471
  129OSM   H11G13833   5.556   5.816   3.986 -0.8580 -0.4697  0.1563
  129OSM   C12F13834   5.457   5.811   4.178  0.0122 -0.0313 -0.4019
  129OSM   H12F13835   5.550   5.754   4.200  1.0445  0.6419 -2.6926
  129OSM   H12G13836   5.381   5.732   4.162 -0.3812  0.4855 -1.1413
  129OSM   C13F13837   5.425   5.900   4.293 -0.4272  0.0780  0.7026
  129OSM   H13F13838   5.324   5.945   4.278 -0.5883  0.6898  3.0795
  129OSM   H13G13839   5.497   5.984   4.304  0.9117 -1.0051  0.3339
  129OSM   C14F13840   5.409   5.828   4.429 -0.2242 -0.0824  0.0433
  129OSM   H14F13841   5.509   5.792   4.460  0.3177  2.1144  1.0815
  129OSM   H14G13842   5.337   5.745   4.419  1.4410 -1.8980  2.2577
  129OSM   C15F13843   5.368   5.937   4.538  0.7094  0.5788  0.5003
  129OSM   H15F13844   5.279   5.986   4.492  1.5408  1.4410 -0.2370
  129OSM   H15G13845   5.450   6.012   4.542 -0.7374  2.3794 -1.4623
  129OSM   C16F13846   5.337   5.874   4.669  0.1776  0.6431  0.0063
  129OSM   H16F13847   5.439   5.837   4.691 -0.2963 -0.9060 -0.3002
  129OSM   H16G13848   5.261   5.794   4.657  1.4836 -0.5971 -0.2811
  129OSM   C17F13849   5.290   5.967   4.781  0.7335 -0.4443 -0.1881
  129OSM   H17F13850   5.181   5.984   4.770  0.3350 -2.1882  0.6983
  129OSM   H17G13851   5.347   6.062   4.781  1.9596 -1.1325  1.5899
  129OSM   C18F13852   5.318   5.905   4.920  0.2105  0.4126 -0.0223
  129OSM   H18F13853   5.303   5.984   4.996  1.4131  0.9261 -0.2924
  129OSM   H18G13854   5.424   5.875   4.932  0.1795 -1.6103 -3.3795
  129OSM   H18H13855   5.258   5.811   4.925 -1.5209  1.4241 -0.8417
  130OSM      N13856   4.656   4.794   2.255 -0.2217 -0.2801 -0.5667
  130OSM    C1513857   4.521   4.748   2.208 -0.5903  0.8101  0.0396
  130OSM   H15A13858   4.447   4.782   2.279  1.9860  1.5397  2.5856
  130OSM   H15B13859   4.509   4.641   2.204 -0.4533  0.7652  0.6424
  130OSM   H15C13860   4.492   4.780   2.110  1.1323  0.0353 -0.7774
  130OSM    C1413861   4.764   4.724   2.183 -0.5246  0.3149  1.4937
  130OSM   H14A13862   4.854   4.729   2.242  0.1214 -1.1520  0.6764
  130OSM   H14B13863   4.781   4.761   2.083 -1.6309  2.0624  1.9045
  130OSM   H14C13864   4.748   4.618   2.184  2.0476 -0.1656  0.2126
  130OSM    C1313865   4.666   4.937   2.222 -0.4988 -0.3807  0.2937
  130OSM   H13A13866   4.598   5.001   2.275  0.1606  0.7288 -0.1501
  130OSM   H13B13867   4.633   4.954   2.120 -0.2228 -0.1957  0.2333
  130OSM   H13C13868   4.768   4.965   2.243 -0.5607 -0.5477  0.8064
  130OSM    C1213869   4.668   4.767   2.405 -0.0437  0.2420 -0.1751
  130OSM   H12A13870   4.626   4.669   2.422  0.5482 -0.0265 -0.2116
  130OSM   H12B13871   4.616   4.843   2.460 -2.0217 -1.1259 -0.0526
  130OSM    C1113872   4.808   4.748   2.469 -0.5478  0.1310 -0.3315
  130OSM   H11A13873   4.855   4.676   2.400 -1.0472 -0.4748 -0.0477
  130OSM   H11B13874   4.789   4.706   2.571  0.4355  0.0369 -0.1806
  130OSM      P13875   4.829   4.984   2.581 -0.0129 -0.1548 -0.0748
  130OSM    O1313876   4.909   5.106   2.567 -0.5630  0.1464  0.2546
  130OSM    O1413877   4.683   5.011   2.578  0.3399 -0.2164  0.5584
  130OSM    O1113878   4.852   4.910   2.713  0.4856  0.5993 -0.3204
  130OSM    O1213879   4.880   4.875   2.474 -0.4367 -0.0532  0.2829
  130OSM    C1S13880   4.977   4.844   2.746 -0.0721 -0.3335  1.0124
  130OSM    H1S13881   5.063   4.891   2.694  0.0588  0.8032  2.2025
  130OSM    H1T13882   4.975   4.736   2.719  1.2176 -0.1747  0.1721
  130OSM     NF13883   5.143   4.837   2.919  0.3017 -0.6085 -0.3650
  130OSM    HNF13884   5.172   4.744   2.939  0.4532 -0.4983 -0.0751
  130OSM    C2S13885   5.000   4.851   2.897  0.0989 -0.4294 -0.1067
  130OSM    H2S13886   4.972   4.953   2.931 -0.2963  0.0057 -1.6624
  130OSM    C3S13887   4.908   4.756   2.972 -0.2112 -0.0564  0.1737
  130OSM    H3S13888   4.941   4.651   2.956 -0.5670 -0.1869  0.2936
  130OSM     O313889   4.771   4.773   2.930  0.0658 -0.3345  0.6470
  130OSM    HO313890   4.776   4.836   2.858  2.0285  0.4394  1.3873
  130OSM    C4S13891   4.907   4.781   3.119 -0.3580 -0.2190 -0.5325
  130OSM    H4S13892   4.839   4.863   3.145 -0.6245 -1.0738  1.6565
  130OSM    C5S13893   4.983   4.721   3.213  0.1387  0.2188  0.3433
  130OSM    H5S13894   5.051   4.638   3.184 -1.4190 -1.0378  0.1667
  130OSM    C6S13895   4.977   4.746   3.365 -0.2618  0.7587  0.9140
  130OSM    H6S13896   5.071   4.700   3.402  1.5599  2.1242 -1.7516
  130OSM    H6T13897   4.899   4.675   3.401 -0.2042  0.6185  0.7655
  130OSM    C7S13898   4.947   4.890   3.419  0.2506 -0.7055  0.6757
  130OSM    H7S13899   4.842   4.924   3.404  0.8710  0.5326 -1.1371
  130OSM    H7T13900   5.026   4.958   3.382 -0.2814 -0.7209 -0.5521
  130OSM    C8S13901   4.966   4.888   3.571 -0.5120 -0.6497  0.5050
  130OSM    H8S13902   5.075   4.875   3.589 -0.6093  0.2564  1.7821
  130OSM    H8T13903   4.911   4.804   3.619 -2.0793  1.0757  1.8222
  130OSM    C9S13904   4.944   5.031   3.629 -0.0078 -0.3208 -0.3912
  130OSM    H9S13905   4.839   5.066   3.620  0.4354  1.2795  0.4179
  130OSM    H9T13906   5.020   5.088   3.573  0.9664  0.4373  1.6251
  130OSM   C10S13907   4.980   5.050   3.784 -0.0003  1.0230  0.3371
  130OSM   H10S13908   4.986   5.160   3.802  0.8865  0.5301  3.6689
  130OSM   H10T13909   5.078   5.001   3.804 -0.8735 -0.9068  0.0667
  130OSM   C11S13910   4.883   4.976   3.878 -0.3691 -0.4839 -0.1630
  130OSM   H11S13911   4.892   4.866   3.872  0.3665 -0.4047 -0.6783
  130OSM   H11T13912   4.783   5.008   3.843 -0.1390 -2.1772 -2.6156
  130OSM   C12S13913   4.906   5.010   4.024  0.2236  0.7320 -0.7001
  130OSM   H12S13914   4.907   5.119   4.044 -1.6661  0.7646 -0.6359
  130OSM   H12T13915   5.005   4.968   4.052 -0.9656 -0.0125  2.8034
  130OSM   C13S13916   4.804   4.948   4.121  0.8132  0.0560  0.2806
  130OSM   H13S13917   4.790   4.839   4.107  1.1879  0.1095 -0.5831
  130OSM   H13T13918   4.703   4.991   4.106  1.2139  0.3359 -1.9437
  130OSM   C14S13919   4.837   4.991   4.264 -0.2446  0.5528  0.4302
  130OSM   H14S13920   4.873   5.096   4.261 -1.2557  0.8987 -0.2104
  130OSM   H14T13921   4.917   4.923   4.302  1.8895  2.7956  0.2427
  130OSM   C15S13922   4.716   4.977   4.363 -0.2113  0.4198  0.7154
  130OSM   H15S13923   4.660   4.883   4.340  1.2846 -0.1707 -0.7463
  130OSM   H15T13924   4.645   5.057   4.334 -1.6940 -1.3847 -0.9172
  130OSM   C16S13925   4.763   4.958   4.505  0.4392 -0.1091 -0.3907
  130OSM   H16S13926   4.764   5.054   4.561 -2.2723 -0.0326 -0.3115
  130OSM   H16T13927   4.861   4.906   4.514 -0.6215 -1.9253  1.9366
  130OSM   C17S13928   4.664   4.862   4.586 -0.0164 -0.8019 -0.0443
  130OSM   H17S13929   4.560   4.888   4.557 -0.2467 -1.2002  0.3946
  130OSM   H17T13930   4.671   4.890   4.694 -1.5219 -0.0360 -0.1217
  130OSM   C18S13931   4.695   4.718   4.579 -0.5957 -0.0329  0.2997
  130OSM   H18S13932   4.704   4.690   4.472  0.2562 -0.3426  0.4408
  130OSM   H18T13933   4.629   4.652   4.639 -1.8032 -0.6369 -1.5993
  130OSM   H18U13934   4.799   4.717   4.618 -0.0277  1.9934 -1.0159
  130OSM    C1F13935   5.233   4.934   2.903 -0.2734  0.1159 -0.4209
  130OSM     OF13936   5.197   5.044   2.875  0.5898 -0.3990  0.2712
  130OSM    C2F13937   5.382   4.899   2.905 -0.2224 -0.5350 -0.2516
  130OSM    H2F13938   5.443   4.986   2.875  0.2293  0.2855  2.7004
  130OSM    H2G13939   5.407   4.815   2.837 -2.6833 -1.4324 -0.1603
  130OSM    C3F13940   5.416   4.840   3.044 -0.2006 -0.2706 -0.1357
  130OSM    H3F13941   5.510   4.783   3.032 -0.9081 -1.2633 -1.1187
  130OSM    H3G13942   5.335   4.773   3.079 -1.5914 -0.4972 -3.4296
  130OSM    C4F13943   5.444   4.947   3.150  0.1017  0.1127 -0.2094
  130OSM    H4F13944   5.359   5.018   3.141  0.6109  0.7486 -0.0445
  130OSM    H4G13945   5.537   5.001   3.126  0.6800  0.1158  1.8045
  130OSM    C5F13946   5.439   4.894   3.301 -0.2886 -0.4652  0.4645
  130OSM    H5F13947   5.528   4.828   3.307  1.3791  1.5847 -0.2909
  130OSM    H5G13948   5.349   4.832   3.320 -0.5447 -0.0486  0.6371
  130OSM    C6F13949   5.449   5.000   3.410  0.7430  0.6771  0.2805
  130OSM    H6F13950   5.363   5.068   3.393  0.1012 -0.2483 -0.2288
  130OSM    H6G13951   5.550   5.046   3.405  0.3429  1.6769  0.9395
  130OSM    C7F13952   5.428   4.938   3.545  0.0395  0.4470 -0.4351
  130OSM    H7F13953   5.524   4.887   3.569 -0.0851 -0.0655 -1.0177
  130OSM    H7G13954   5.348   4.862   3.546 -0.5116  1.0208 -0.1799
  130OSM    C8F13955   5.386   5.033   3.656 -0.4162 -0.4921 -0.1624
  130OSM    H8F13956   5.364   4.966   3.742  1.7046 -2.7933 -1.3067
  130OSM    H8G13957   5.294   5.088   3.627 -1.9371 -1.3972  2.5554
  130OSM    C9F13958   5.496   5.139   3.669 -0.0081  0.4435  0.3992
  130OSM    H9F13959   5.490   5.236   3.618  1.5852  0.8599  0.9510
  130OSM   C10F13960   5.595   5.134   3.760 -0.5183  0.3109  0.0156
  130OSM   H10F13961   5.654   5.227   3.768 -1.0179  0.6258  0.1208
  130OSM   C11F13962   5.623   5.025   3.861  0.4244  0.2833  0.5888
  130OSM   H11F13963   5.710   4.966   3.825  0.5481  0.1091  1.1769
  130OSM   H11G13964   5.542   4.950   3.864  1.2105 -0.6082  0.2563
  130OSM   C12F13965   5.658   5.074   3.998  0.5388 -0.5336 -0.2245
  130OSM   H12F13966   5.569   5.120   4.045  0.4560 -1.3205  0.4091
  130OSM   H12G13967   5.733   5.156   4.002 -1.4452  1.3157  0.3541
  130OSM   C13F13968   5.711   4.967   4.092 -0.4690 -0.0020  0.2456
  130OSM   H13F13969   5.819   4.946   4.077 -0.5377 -0.0933 -0.1399
  130OSM   H13G13970   5.659   4.869   4.084 -0.9414  0.0731  2.0450
  130OSM   C14F13971   5.685   5.006   4.242 -0.5423  0.3064 -0.7486
  130OSM   H14F13972   5.576   5.027   4.242 -1.1916 -2.5488 -2.6221
  130OSM   H14G13973   5.738   5.096   4.281 -1.8331  0.1536  1.4901
  130OSM   C15F13974   5.703   4.884   4.339 -0.3992  0.4827 -0.4492
  130OSM   H15F13975   5.801   4.840   4.312 -1.0833 -0.5235 -1.4037
  130OSM   H15G13976   5.618   4.814   4.327 -0.7755  0.5251  1.6337
  130OSM   C16F13977   5.722   4.916   4.488  0.0317 -0.2279 -0.3318
  130OSM   H16F13978   5.824   4.956   4.506 -0.6095  1.8117 -0.8439
  130OSM   H16G13979   5.722   4.824   4.550  2.3744 -1.2314 -1.7061
  130OSM   C17F13980   5.600   4.997   4.530 -0.2420 -0.3204 -0.2287
  130OSM   H17F13981   5.506   4.951   4.494 -0.6182  1.5623 -1.8465
  130OSM   H17G13982   5.620   5.100   4.492  0.5142 -0.4409 -0.1769
  130OSM   C18F13983   5.578   5.012   4.682 -0.2174  0.6000  0.6498
  130OSM   H18F13984   5.595   4.913   4.728  0.3088 -0.9636 -2.6141
  130OSM   H18G13985   5.470   5.031   4.699 -0.5387 -2.2195  2.4228
  130OSM   H18H13986   5.652   5.079   4.731  1.0569 -0.4783  0.2518
  131OSM      N13987   3.572   2.390   2.322 -0.4622  0.3532  0.5484
  131OSM    C1513988   3.621   2.345   2.188 -0.6923  0.7330  0.1118
  131OSM   H15A13989   3.727   2.362   2.176  0.0642 -3.7197 -1.4578
  131OSM   H15B13990   3.565   2.387   2.106  0.9089  2.3186 -0.2381
  131OSM   H15C13991   3.613   2.238   2.194 -1.9443  0.8687  1.6953
  131OSM    C1413992   3.617   2.530   2.365 -0.8086 -0.8758  0.7731
  131OSM   H14A13993   3.611   2.603   2.286  2.3762 -1.5274 -0.1998
  131OSM   H14B13994   3.724   2.525   2.378 -0.8486 -1.1590  1.0028
  131OSM   H14C13995   3.566   2.566   2.453 -1.4972  0.5759 -0.1754
  131OSM    C1313996   3.431   2.391   2.322  0.1691 -0.0083 -0.1671
  131OSM   H13A13997   3.393   2.408   2.422  0.9645 -0.9429  0.3083
  131OSM   H13B13998   3.385   2.296   2.297  0.0857 -0.3518  1.2269
  131OSM   H13C13999   3.382   2.456   2.251 -1.3772 -0.5341  0.3702
  131OSM    C1214000   3.612   2.294   2.430  0.1310  1.0653 -0.5889
  131OSM   H12A14001   3.576   2.329   2.526  0.5429  1.4616 -0.5732
  131OSM   H12B14002   3.719   2.301   2.440  0.4954 -3.5663  1.6399
  131OSM    C1114003   3.595   2.137   2.412 -0.2790  0.2234  0.6422
  131OSM   H11A14004   3.488   2.132   2.380 -0.5104 -0.3074  1.4659
  131OSM   H11B14005   3.608   2.079   2.505  0.8681 -0.9121 -0.2102
  131OSM      P14006   3.844   2.085   2.348  0.1072 -0.3967 -0.0083
  131OSM    O1314007   3.921   2.010   2.246 -0.0224 -0.2149 -0.0432
  131OSM    O1414008   3.889   2.221   2.381  0.3007 -0.0194 -0.5687
  131OSM    O1114009   3.845   2.004   2.476  0.0178  0.1109  0.9184
  131OSM    O1214010   3.686   2.087   2.306 -0.3676  0.4619 -0.0285
  131OSM    C1S14011   3.951   2.000   2.575 -0.4485 -1.0178 -0.1085
  131OSM    H1S14012   4.016   2.089   2.561  0.0457 -1.2978  0.3721
  131OSM    H1T14013   4.013   1.912   2.547 -0.9860 -1.0568 -1.2301
  131OSM     NF14014   4.031   2.021   2.809 -0.0475 -0.4881 -0.1297
  131OSM    HNF14015   4.060   1.934   2.849  1.5170 -0.4158 -1.0196
  131OSM    C2S14016   3.911   2.017   2.723  1.2000  0.1781 -0.0150
  131OSM    H2S14017   3.846   2.106   2.736  1.3804  0.7351 -2.3447
  131OSM    C3S14018   3.811   1.895   2.747 -0.0240 -0.3285 -0.1977
  131OSM    H3S14019   3.883   1.811   2.743  0.2472 -0.2221  1.6786
  131OSM     O314020   3.710   1.877   2.647  0.1523  0.7341  0.1439
  131OSM    HO314021   3.749   1.939   2.585 -0.2409  0.1939 -0.6628
  131OSM    C4S14022   3.761   1.881   2.891  0.1065 -0.3544  0.1895
  131OSM    H4S14023   3.819   1.806   2.945  1.0500 -1.0601 -1.7144
  131OSM    C5S14024   3.641   1.923   2.937  0.2444 -0.6414  0.2295
  131OSM    H5S14025   3.580   1.973   2.859 -0.8744 -2.5811 -0.2105
  131OSM    C6S14026   3.578   1.889   3.068  0.3222 -0.1686  0.3869
  131OSM    H6S14027   3.607   1.786   3.098  2.0501 -0.0572 -0.7590
  131OSM    H6T14028   3.467   1.880   3.060  0.1869  1.4300  0.1727
  131OSM    C7S14029   3.607   1.997   3.176  0.1785  0.2823  0.2553
  131OSM    H7S14030   3.523   2.066   3.154 -1.4687 -1.5696  0.5106
  131OSM    H7T14031   3.700   2.055   3.156  1.0268 -1.5419 -1.4625
  131OSM    C8S14032   3.578   1.943   3.321  0.1651 -0.3090 -0.4533
  131OSM    H8S14033   3.663   1.884   3.362 -0.1182 -0.7928 -0.5503
  131OSM    H8T14034   3.489   1.876   3.318  0.4888 -0.7351 -0.6263
  131OSM    C9S14035   3.537   2.064   3.403  0.4085 -0.4325 -0.3201
  131OSM    H9S14036   3.458   2.124   3.355 -1.3358 -0.4648  2.3067
  131OSM    H9T14037   3.637   2.112   3.408  1.7764 -2.7069 -2.8608
  131OSM   C10S14038   3.482   2.029   3.544 -0.7284  0.1683  1.3953
  131OSM   H10S14039   3.395   1.962   3.529  0.5774 -1.2419 -0.3917
  131OSM   H10T14040   3.440   2.126   3.580  0.0185  1.0387  0.0083
  131OSM   C11S14041   3.593   1.969   3.633 -0.2568  0.6328  0.3043
  131OSM   H11S14042   3.662   2.054   3.649  0.0475  1.0851 -2.8528
  131OSM   H11T14043   3.657   1.884   3.602 -1.5107 -1.1144  2.2720
  131OSM   C12S14044   3.540   1.912   3.762  0.1318  0.0133 -0.1323
  131OSM   H12S14045   3.514   1.806   3.739 -0.0743 -0.0336  0.2941
  131OSM   H12T14046   3.450   1.968   3.794  0.7400  2.3059 -2.1673
  131OSM   C13S14047   3.649   1.915   3.876 -0.0928  0.7084  0.7554
  131OSM   H13S14048   3.684   2.020   3.885  1.2380  0.4030 -0.4805
  131OSM   H13T14049   3.733   1.852   3.838 -1.3308  0.2956 -1.4866
  131OSM   C14S14050   3.591   1.849   3.998  0.4007  0.8594  0.6882
  131OSM   H14S14051   3.546   1.750   3.979 -1.0259  1.4050  1.0949
  131OSM   H14T14052   3.506   1.917   4.023  0.1288  0.6971  0.2040
  131OSM   C15S14053   3.685   1.852   4.121  1.0283  0.4215  0.1448
  131OSM   H15S14054   3.712   1.958   4.141 -0.4890  0.5334  1.7162
  131OSM   H15T14055   3.778   1.794   4.100 -0.4214 -2.5730  1.3697
  131OSM   C16S14056   3.620   1.784   4.241  0.4531 -0.7383 -1.2492
  131OSM   H16S14057   3.590   1.682   4.211  0.3255 -0.8258 -0.8297
  131OSM   H16T14058   3.533   1.848   4.267  0.0978 -2.0787  1.1379
  131OSM   C17S14059   3.716   1.781   4.369 -0.0437 -0.4788  0.2767
  131OSM   H17S14060   3.823   1.761   4.345  0.1799 -1.0511  1.6525
  131OSM   H17T14061   3.680   1.701   4.438 -1.1911 -1.0742 -0.9790
  131OSM   C18S14062   3.710   1.917   4.445 -0.2814 -0.2339 -0.1003
  131OSM   H18S14063   3.765   1.911   4.541  0.1208 -1.4308 -0.3805
  131OSM   H18T14064   3.602   1.937   4.460 -0.7952 -2.9885  0.3597
  131OSM   H18U14065   3.732   2.002   4.377 -3.1916 -0.7490 -1.8839
  131OSM    C1F14066   4.093   2.137   2.826 -0.1664  0.0038  0.1178
  131OSM     OF14067   4.055   2.239   2.781 -0.0498 -0.3472  0.0010
  131OSM    C2F14068   4.211   2.131   2.916 -0.6751  0.0325 -0.5057
  131OSM    H2F14069   4.302   2.117   2.853 -0.7731  1.5363 -1.0238
  131OSM    H2G14070   4.208   2.040   2.980  0.4002  0.5807  0.3586
  131OSM    C3F14071   4.214   2.254   3.015 -0.6728  0.6553  0.6427
  131OSM    H3F14072   4.142   2.240   3.099 -0.0796  0.4888  1.1264
  131OSM    H3G14073   4.204   2.351   2.961  2.7077  0.2436 -0.9325
  131OSM    C4F14074   4.348   2.263   3.094  0.5879  0.6547 -0.0353
  131OSM    H4F14075   4.428   2.300   3.026 -0.3563  0.1814 -1.4751
  131OSM    H4G14076   4.380   2.160   3.119  1.4030  1.1121  0.8542
  131OSM    C5F14077   4.341   2.340   3.223  0.2865  0.3775 -0.6921
  131OSM    H5F14078   4.257   2.304   3.287  1.3836 -1.1205 -0.0304
  131OSM    H5G14079   4.320   2.448   3.208 -0.8136  0.0807 -1.4514
  131OSM    C6F14080   4.462   2.307   3.307  0.7734  0.4571 -0.0591
  131OSM    H6F14081   4.551   2.308   3.241  0.7719 -0.5323 -0.0964
  131OSM    H6G14082   4.456   2.203   3.344  2.4342  0.3462 -0.0177
  131OSM    C7F14083   4.485   2.416   3.416  0.5903 -0.5933  1.1525
  131OSM    H7F14084   4.390   2.413   3.473  0.4745 -1.7228  0.9191
  131OSM    H7G14085   4.486   2.518   3.371  0.3685 -1.2882 -0.4998
  131OSM    C8F14086   4.601   2.379   3.501 -0.3704 -0.0567 -0.5445
  131OSM    H8F14087   4.689   2.395   3.434  0.3985 -2.6846 -0.2640
  131OSM    H8G14088   4.610   2.272   3.530  1.1085 -0.1060 -1.0904
  131OSM    C9F14089   4.620   2.473   3.615  1.0872 -0.0307 -0.7468
  131OSM    H9F14090   4.684   2.561   3.601  0.9512  0.5539  1.9221
  131OSM   C10F14091   4.571   2.453   3.740  0.0024  0.1022  0.3680
  131OSM   H10F14092   4.593   2.522   3.823  2.8002  1.8722 -1.6930
  131OSM   C11F14093   4.499   2.331   3.771  0.4110 -0.0647 -0.1661
  131OSM   H11F14094   4.560   2.269   3.841  2.3305  1.3089 -0.5348
  131OSM   H11G14095   4.480   2.268   3.682 -1.0612 -0.0788  0.1402
  131OSM   C12F14096   4.354   2.351   3.830  0.0606  0.1377  0.1390
  131OSM   H12F14097   4.307   2.253   3.856  3.4981 -0.8267  3.6721
  131OSM   H12G14098   4.290   2.411   3.762 -1.2820  1.2602  2.2620
  131OSM   C13F14099   4.358   2.420   3.965 -0.5572  0.1434 -0.4888
  131OSM   H13F14100   4.257   2.428   4.010 -0.3861 -0.9530  0.1196
  131OSM   H13G14101   4.398   2.522   3.946 -0.5440  0.4715  1.1300
  131OSM   C14F14102   4.451   2.375   4.084  0.4541 -0.2039  0.1758
  131OSM   H14F14103   4.442   2.445   4.170 -0.9156  2.3891 -1.9181
  131OSM   H14G14104   4.557   2.377   4.053  0.8961  1.2614  1.6313
  131OSM   C15F14105   4.408   2.236   4.132 -0.1330  0.9336  0.3912
  131OSM   H15F14106   4.415   2.177   4.039 -1.9225  1.5541 -0.1778
  131OSM   H15G14107   4.304   2.256   4.166  0.8833  5.3464  1.5679
  131OSM   C16F14108   4.490   2.169   4.239 -0.1268  0.2018 -0.6791
  131OSM   H16F14109   4.599   2.168   4.219 -0.0257  2.8072 -0.6023
  131OSM   H16G14110   4.458   2.064   4.255  1.5714 -0.0659  1.6016
  131OSM   C17F14111   4.480   2.251   4.374  0.1747  0.1185 -0.0086
  131OSM   H17F14112   4.374   2.268   4.402  0.7381 -0.8403  2.9901
  131OSM   H17G14113   4.522   2.354   4.365 -2.7687  1.3893 -0.3955
  131OSM   C18F14114   4.560   2.188   4.488  0.1962 -0.1227  0.3787
  131OSM   H18F14115   4.554   2.260   4.573  1.0887  0.0783  0.2840
  131OSM   H18G14116   4.668   2.165   4.472  0.2119 -0.4332  0.9080
  131OSM   H18H14117   4.502   2.099   4.519  0.4270 -1.0834 -1.7632
  132OSM      N14118   2.209   1.758   2.747 -0.3338  0.0175 -0.4163
  132OSM    C1514119   2.203   1.657   2.861 -0.3606  0.1248 -0.4880
  132OSM   H15A14120   2.153   1.564   2.836 -0.0228 -0.0997 -0.3336
  132OSM   H15B14121   2.154   1.705   2.944 -3.3178  1.2701 -2.7022
  132OSM   H15C14122   2.299   1.623   2.897 -0.5213 -0.5717 -0.7022
  132OSM    C1414123   2.320   1.856   2.778  0.3142  0.0704  0.0277
  132OSM   H14A14124   2.308   1.888   2.880  2.9103  3.0776 -0.4797
  132OSM   H14B14125   2.318   1.945   2.717 -1.3127  0.2393  0.2748
  132OSM   H14C14126   2.417   1.812   2.761 -0.3865 -0.3930 -3.8577
  132OSM    C1314127   2.235   1.675   2.629 -0.2637 -0.0114 -0.2748
  132OSM   H13A14128   2.144   1.625   2.599 -0.4998  0.7707 -0.8783
  132OSM   H13B14129   2.310   1.596   2.630 -1.7569 -1.4847  1.0200
  132OSM   H13C14130   2.248   1.737   2.542 -0.8190 -1.9334 -1.7997
  132OSM    C1214131   2.068   1.826   2.732  0.0688  0.6867 -0.8656
  132OSM   H12A14132   2.003   1.745   2.702  1.6390 -0.6517 -0.7972
  132OSM   H12B14133   2.066   1.890   2.645 -0.5708  0.3211 -1.1256
  132OSM    C1114134   2.011   1.906   2.844 -0.0713 -0.0849 -0.3461
  132OSM   H11A14135   1.954   1.988   2.797  0.6247  2.7535  3.2793
  132OSM   H11B14136   2.097   1.955   2.895 -1.2141  0.0157  1.5965
  132OSM      P14137   1.948   1.838   3.081 -0.2976  0.2240 -0.1608
  132OSM    O1314138   1.826   1.778   3.140  0.4793 -0.0126 -0.0165
  132OSM    O1414139   2.077   1.781   3.125  0.5065 -0.1479 -0.3040
  132OSM    O1114140   1.954   1.997   3.094  0.0973 -0.0172 -0.0905
  132OSM    O1214141   1.931   1.824   2.922 -0.1107  0.7228 -0.3425
  132OSM    C1S14142   1.935   2.067   3.219  0.0140 -0.4956 -0.1121
  132OSM    H1S14143   1.845   2.024   3.269 -0.7175 -0.3342 -1.2657
  132OSM    H1T14144   1.921   2.174   3.194  0.0134 -0.6212 -0.6673
  132OSM     NF14145   2.011   2.098   3.452  0.5336  0.4257 -0.4283
  132OSM    HNF14146   2.033   2.192   3.475  3.3609 -0.0161 -0.9784
  132OSM    C2S14147   2.051   2.053   3.321 -1.0323 -0.2035  0.1489
  132OSM    H2S14148   2.071   1.944   3.325 -0.3341 -0.2289 -2.2171
  132OSM    C3S14149   2.182   2.125   3.267  0.6266 -0.0334 -1.0682
  132OSM    H3S14150   2.165   2.234   3.257 -0.8377  0.2666  2.8998
  132OSM     O314151   2.222   2.074   3.142  0.3133 -0.0030  0.2368
  132OSM    HO314152   2.139   2.043   3.104  0.0355 -0.4019  1.1362
  132OSM    C4S14153   2.291   2.112   3.370 -0.1861  0.0566  0.2920
  132OSM    H4S14154   2.322   2.009   3.396  0.8452  0.2323 -0.1960
  132OSM    C5S14155   2.360   2.212   3.425  0.8571  0.3027  0.0061
  132OSM    H5S14156   2.328   2.315   3.401 -1.6155 -0.7560 -1.5964
  132OSM    C6S14157   2.468   2.208   3.532  0.1718 -0.4171  0.3325
  132OSM    H6S14158   2.564   2.241   3.487 -0.9500 -0.0497 -1.9049
  132OSM    H6T14159   2.479   2.115   3.591 -0.3039 -1.0208 -0.5054
  132OSM    C7S14160   2.430   2.327   3.631 -0.3811  0.9188 -0.2347
  132OSM    H7S14161   2.399   2.418   3.575  2.2884  0.8991 -1.9020
  132OSM    H7T14162   2.516   2.370   3.686  2.2335 -2.6560 -1.1237
  132OSM    C8S14163   2.315   2.295   3.729 -0.4880 -0.9107  0.4222
  132OSM    H8S14164   2.351   2.237   3.817 -0.5161 -1.7641 -0.1189
  132OSM    H8T14165   2.236   2.240   3.674 -1.4924  2.6548 -2.0813
  132OSM    C9S14166   2.241   2.418   3.777  0.1967  0.4973  0.1967
  132OSM    H9S14167   2.200   2.458   3.681 -0.4464 -1.4585 -0.3974
  132OSM    H9T14168   2.306   2.497   3.821 -1.1330  0.1914  2.8804
  132OSM   C10S14169   2.128   2.386   3.869  0.1074  0.2190  0.0856
  132OSM   H10S14170   2.060   2.310   3.825 -1.6970  2.5795 -1.5030
  132OSM   H10T14171   2.071   2.481   3.884  0.7205  0.6832 -0.4821
  132OSM   C11S14172   2.180   2.355   4.007  0.6079 -0.9856 -0.0073
  132OSM   H11S14173   2.278   2.407   4.014  0.0224  0.0156  1.2283
  132OSM   H11T14174   2.204   2.247   4.007  1.3143 -0.8576  1.7994
  132OSM   C12S14175   2.073   2.392   4.114 -0.1215 -0.6392  0.4568
  132OSM   H12S14176   1.986   2.322   4.109 -0.5464 -0.2319  1.7192
  132OSM   H12T14177   2.041   2.495   4.091 -1.4671 -0.9894  0.6284
  132OSM   C13S14178   2.129   2.399   4.260 -0.0930  0.1466 -0.2087
  132OSM   H13S14179   2.175   2.302   4.286 -0.6388 -0.1188 -0.2288
  132OSM   H13T14180   2.041   2.424   4.323  0.1704 -0.8883  0.5755
  132OSM   C14S14181   2.241   2.503   4.270 -0.2408  0.4946  0.3708
  132OSM   H14S14182   2.222   2.579   4.192 -1.9097 -0.8854 -0.6283
  132OSM   H14T14183   2.331   2.463   4.218 -0.2715  1.7745 -0.7256
  132OSM   C15S14184   2.277   2.549   4.413 -0.9354 -0.4791 -0.2660
  132OSM   H15S14185   2.201   2.623   4.447  0.2304  0.0163  1.3696
  132OSM   H15T14186   2.378   2.595   4.414 -1.3835  0.5665 -0.8767
  132OSM   C16S14187   2.270   2.436   4.518  0.4142  0.4357 -0.1935
  132OSM   H16S14188   2.173   2.381   4.518 -0.2425  1.5585  0.3516
  132OSM   H16T14189   2.277   2.481   4.620 -1.1041  0.7335 -0.1968
  132OSM   C17S14190   2.392   2.343   4.523 -0.8207  0.0613 -0.5155
  132OSM   H17S14191   2.487   2.397   4.545 -1.0196  0.4031 -0.4957
  132OSM   H17T14192   2.409   2.308   4.419 -2.6800  1.4661 -1.3616
  132OSM   C18S14193   2.378   2.236   4.625 -0.5050 -0.9819 -0.2510
  132OSM   H18S14194   2.473   2.180   4.638  0.2557  0.4775  0.7605
  132OSM   H18T14195   2.302   2.159   4.596  0.3809 -1.9033 -0.1858
  132OSM   H18U14196   2.334   2.270   4.722 -1.2989 -1.2695 -0.4980
  132OSM    C1F14197   1.930   2.025   3.538 -0.4993 -0.0189  0.8667
  132OSM     OF14198   1.883   1.912   3.510 -0.2404 -0.6645  0.4064
  132OSM    C2F14199   1.896   2.093   3.658  0.3365 -0.2821  0.0585
  132OSM    H2F14200   1.786   2.086   3.670  0.3354 -1.0125 -0.3488
  132OSM    H2G14201   1.932   2.198   3.661  0.0524 -0.1997  0.9314
  132OSM    C3F14202   1.946   2.018   3.783  0.5914  0.1097  0.0423
  132OSM    H3F14203   2.056   2.033   3.791  0.9696 -0.0664 -3.3951
  132OSM    H3G14204   1.928   1.909   3.774 -1.0062  0.4500 -1.2899
  132OSM    C4F14205   1.883   2.062   3.913 -0.1469  0.0476 -0.2788
  132OSM    H4F14206   1.773   2.056   3.900 -0.1652  1.0321 -0.7126
  132OSM    H4G14207   1.901   2.172   3.922 -2.7396  0.6546 -1.4267
  132OSM    C5F14208   1.928   1.990   4.039  0.2876 -0.1998 -0.8532
  132OSM    H5F14209   2.022   2.028   4.084 -1.0011  0.8475  1.0907
  132OSM    H5G14210   1.933   1.883   4.008 -0.8606 -1.3694  2.5368
  132OSM    C6F14211   1.826   1.995   4.153 -0.7969 -0.0764  0.4059
  132OSM    H6F14212   1.860   1.907   4.211 -0.0156 -0.3519 -0.4417
  132OSM    H6G14213   1.726   1.976   4.109  0.3252 -1.9413 -1.5364
  132OSM    C7F14214   1.841   2.114   4.250 -0.2280  0.1676  0.2708
  132OSM    H7F14215   1.830   2.212   4.199 -4.4178 -0.7243 -0.9689
  132OSM    H7G14216   1.945   2.102   4.289 -0.3081  1.6778  1.0138
  132OSM    C8F14217   1.739   2.119   4.365  0.1939 -0.3686  0.2184
  132OSM    H8F14218   1.646   2.105   4.307  1.7601 -0.3990 -2.4508
  132OSM    H8G14219   1.742   2.220   4.410  2.5373  0.1646 -0.9538
  132OSM    C9F14220   1.760   2.014   4.476 -0.4512 -0.3354  1.0210
  132OSM    H9F14221   1.864   2.000   4.508 -1.4565 -1.9066  3.9400
  132OSM   C10F14222   1.656   1.952   4.534 -0.3517 -0.2909 -0.0218
  132OSM   H10F14223   1.674   1.878   4.614 -0.7814 -2.2540 -1.6720
  132OSM   C11F14224   1.513   1.974   4.521  0.2826 -1.2929  0.1928
  132OSM   H11F14225   1.487   1.927   4.424 -3.3968  1.9161 -0.6267
  132OSM   H11G14226   1.486   2.081   4.508  2.1635 -0.7450  0.5092
  132OSM   C12F14227   1.429   1.911   4.637 -0.8830  0.6128  0.0218
  132OSM   H12F14228   1.452   1.802   4.639 -1.7510  0.3896 -1.1564
  132OSM   H12G14229   1.322   1.930   4.618 -0.1096  3.1665 -2.5661
  132OSM   C13F14230   1.465   1.957   4.776 -0.4589 -0.0771  0.4220
  132OSM   H13F14231   1.453   2.067   4.791  2.2456  0.6692 -2.0263
  132OSM   H13G14232   1.574   1.942   4.793  0.3708  0.9183 -3.2390
  132OSM   C14F14233   1.385   1.887   4.892  0.1550 -0.1475  0.1694
  132OSM   H14F14234   1.421   1.782   4.890  1.7038  0.3566 -0.3305
  132OSM   H14G14235   1.277   1.888   4.867 -0.0047  2.5275  0.6310
  132OSM   C15F14236   1.390   1.954   5.034  0.9295 -0.6543 -0.4464
  132OSM   H15F14237   1.310   1.903   5.092  0.6387 -2.4274 -2.2922
  132OSM   H15G14238   1.366   2.063   5.028  1.2485 -0.4670  1.1297
  132OSM   C16F14239   1.529   1.952   5.102  0.3200  0.3114 -0.3007
  132OSM   H16F14240   1.608   1.971   5.026 -0.8377 -0.4754 -1.7736
  132OSM   H16G14241   1.548   1.850   5.141  0.8122  1.6436  3.2948
  132OSM   C17F14242   1.528   2.045   5.221  0.1341 -0.6824  0.5642
  132OSM   H17F14243   1.430   2.069   5.268  0.7254  1.1931  0.9289
  132OSM   H17G14244   1.552   2.143   5.176 -0.2668 -1.1353 -0.6694
  132OSM   C18F14245   1.618   1.993   5.331  0.4624  0.0543 -0.0331
  132OSM   H18F14246   1.599   2.047   5.427 -1.5359 -2.7191  1.2579
  132OSM   H18G14247   1.727   2.000   5.307  0.4192 -1.8053 -0.9251
  132OSM   H18H14248   1.605   1.884   5.347  1.8471 -0.3686 -1.4808
  133OSM      N14249   0.866   1.490   3.125  0.2727  0.5973 -0.2110
  133OSM    C1514250   0.857   1.438   2.986  0.2082  0.3510  0.0740
  133OSM   H15A14251   0.884   1.333   2.991 -1.8480 -0.2529 -0.6805
  133OSM   H15B14252   0.926   1.490   2.921  0.7433  1.9577  1.8353
  133OSM   H15C14253   0.755   1.443   2.953 -1.1956 -0.9430  3.7247
  133OSM    C1414254   0.816   1.372   3.201 -0.2342 -0.5674 -0.7046
  133OSM   H14A14255   0.807   1.388   3.307 -1.2416 -0.9274 -0.7258
  133OSM   H14B14256   0.887   1.291   3.203  0.9104  0.4257  0.5139
  133OSM   H14C14257   0.728   1.333   3.151  0.1245  0.0711 -1.8795
  133OSM    C1314258   1.006   1.511   3.156 -0.1316 -0.2284 -0.3825
  133OSM   H13A14259   1.049   1.597   3.108 -0.0386  1.2344  2.1447
  133OSM   H13B14260   1.069   1.426   3.135 -0.6055 -0.3812 -1.2634
  133OSM   H13C14261   1.005   1.534   3.261 -1.7032 -0.2256 -0.3756
  133OSM    C1214262   0.785   1.617   3.146  0.5305 -0.1600  0.5445
  133OSM   H12A14263   0.797   1.637   3.252 -1.6494 -2.0833  1.2384
  133OSM   H12B14264   0.680   1.595   3.138  1.0633 -2.3470 -1.7551
  133OSM    C1114265   0.817   1.739   3.062  0.1415  0.2897 -0.5189
  133OSM   H11A14266   0.928   1.749   3.070  0.0670  0.6092  0.2622
  133OSM   H11B14267   0.772   1.832   3.102 -0.9638 -1.6878  3.3581
  133OSM      P14268   0.619   1.708   2.896 -0.4256 -0.4515  0.3326
  133OSM    O1314269   0.596   1.791   2.776  0.0631 -0.0429  0.2942
  133OSM    O1414270   0.602   1.562   2.894 -0.0559 -0.4908 -0.0545
  133OSM    O1114271   0.542   1.779   3.020  0.1483  0.1056 -0.5474
  133OSM    O1214272   0.777   1.728   2.927 -0.3188  0.2596 -0.2669
  133OSM    C1S14273   0.397   1.804   2.999  0.2230  0.0203  0.3575
  133OSM    H1S14274   0.353   1.712   2.953  0.7700 -0.0416 -0.0411
  133OSM    H1T14275   0.365   1.888   2.934  0.7187 -1.6526 -2.1905
  133OSM     NF14276   0.196   1.828   3.108  0.5634  0.3206 -0.4728
  133OSM    HNF14277   0.134   1.906   3.118  0.8499  0.3172  1.8723
  133OSM    C2S14278   0.336   1.843   3.131  0.3988 -0.6226 -0.0041
  133OSM    H2S14279   0.364   1.775   3.215 -1.7432 -1.6082 -0.0029
  133OSM    C3S14280   0.397   1.977   3.164 -0.2321  0.2776  0.6858
  133OSM    H3S14281   0.397   2.040   3.072  2.1507 -1.1571 -0.3771
  133OSM     O314282   0.538   1.975   3.192  0.1859 -0.4203  0.0478
  133OSM    HO314283   0.569   1.897   3.146  0.8585 -0.1697  0.0659
  133OSM    C4S14284   0.333   2.048   3.276  1.0326 -1.1359  0.1143
  133OSM    H4S14285   0.319   1.988   3.367 -0.8872  1.7720  1.8833
  133OSM    C5S14286   0.290   2.177   3.282  0.7758  0.7214  1.1118
  133OSM    H5S14287   0.301   2.243   3.195 -4.0343 -0.5481 -0.7567
  133OSM    C6S14288   0.209   2.229   3.400  0.8782 -0.9401  0.2579
  133OSM    H6S14289   0.103   2.200   3.383  1.3039 -1.0955 -2.7831
  133OSM    H6T14290   0.205   2.339   3.413 -0.5696 -0.9857  0.4121
  133OSM    C7S14291   0.262   2.170   3.538 -0.0710 -0.1001 -0.5115
  133OSM    H7S14292   0.373   2.165   3.537 -0.0452 -0.2923  1.1901
  133OSM    H7T14293   0.221   2.067   3.539  0.0976 -0.2286 -2.2622
  133OSM    C8S14294   0.212   2.251   3.654  0.0963  0.3392  0.1657
  133OSM    H8S14295   0.103   2.270   3.662  0.4011  3.4344 -1.5499
  133OSM    H8T14296   0.259   2.351   3.647 -1.4167  1.0588 -0.0632
  133OSM    C9S14297   0.265   2.195   3.787 -0.4948  0.4204  1.1836
  133OSM    H9S14298   0.371   2.182   3.755 -1.3827 -0.9166 -1.5620
  133OSM    H9T14299   0.220   2.097   3.813  0.7811 -0.5168 -0.0140
  133OSM   C10S14300   0.256   2.296   3.900 -0.0223 -0.2120 -0.4473
  133OSM   H10S14301   0.149   2.318   3.921  1.1085  3.1979  2.6986
  133OSM   H10T14302   0.309   2.389   3.868  1.4274 -0.1032  2.0646
  133OSM   C11S14303   0.333   2.261   4.032  0.1928 -0.3460 -0.0826
  133OSM   H11S14304   0.440   2.261   4.002 -0.0946  0.8475 -1.2090
  133OSM   H11T14305   0.307   2.158   4.064 -0.5762  0.6197  2.6532
  133OSM   C12S14306   0.302   2.360   4.142 -0.2797  0.0582 -0.3769
  133OSM   H12S14307   0.192   2.372   4.145 -0.0744  2.1709  1.5961
  133OSM   H12T14308   0.345   2.457   4.109  3.5096 -1.1910  0.3748
  133OSM   C13S14309   0.351   2.313   4.280 -0.6965  0.1698 -0.1249
  133OSM   H13S14310   0.326   2.393   4.354 -1.5950  0.5752 -0.8342
  133OSM   H13T14311   0.458   2.289   4.268 -0.8583 -0.1160 -1.0815
  133OSM   C14S14312   0.265   2.191   4.333  0.1057  0.1592 -0.3812
  133OSM   H14S14313   0.273   2.105   4.264 -2.3087 -0.2948 -0.1929
  133OSM   H14T14314   0.156   2.209   4.317 -0.0357 -1.7878 -1.8804
  133OSM   C15S14315   0.282   2.164   4.486 -0.5054 -0.1540 -0.6038
  133OSM   H15S14316   0.385   2.199   4.508 -0.3607 -1.5041  1.0639
  133OSM   H15T14317   0.267   2.055   4.502  1.2321 -0.2441  0.6628
  133OSM   C16S14318   0.171   2.235   4.566 -0.5787 -0.3437  0.0181
  133OSM   H16S14319   0.080   2.189   4.522  0.6604 -1.8549 -1.0934
  133OSM   H16T14320   0.164   2.345   4.554  2.2005 -0.0464  0.3540
  133OSM   C17S14321   0.170   2.203   4.718  0.0337  0.2119  0.1457
  133OSM   H17S14322   0.261   2.254   4.758 -0.8363  2.0651 -0.1253
  133OSM   H17T14323   0.174   2.092   4.721  1.0417  0.2472  0.5934
  133OSM   C18S14324   0.052   2.267   4.783  0.9552  0.1262  0.0535
  133OSM   H18S14325   0.035   2.372   4.749 -0.4247  0.2320  0.9629
  133OSM   H18T14326   0.065   2.264   4.893  0.2912  3.1559  0.3084
  133OSM   H18U14327  -0.049   2.223   4.771 -0.1082  1.5894  2.6224
  133OSM    C1F14328   0.132   1.714   3.102 -0.3196  0.1345 -0.2030
  133OSM     OF14329   0.188   1.605   3.123  0.1315 -0.4010 -0.5539
  133OSM    C2F14330  -0.021   1.734   3.097 -1.0208 -0.1147 -0.4099
  133OSM    H2F14331  -0.073   1.638   3.115 -1.7318  0.4200  0.4502
  133OSM    H2G14332  -0.038   1.763   2.991  0.1826 -0.3126 -0.6751
  133OSM    C3F14333  -0.074   1.840   3.197  0.1473 -0.3149  0.2641
  133OSM    H3F14334  -0.171   1.864   3.149  0.7498  0.8312 -0.4135
  133OSM    H3G14335  -0.024   1.940   3.198 -1.3769  0.4775  0.0557
  133OSM    C4F14336  -0.095   1.792   3.345  0.0830 -0.0053  0.2297
  133OSM    H4F14337   0.000   1.746   3.379 -0.2413  0.1085  1.3087
  133OSM    H4G14338  -0.178   1.718   3.345  0.2574 -0.2679  2.6626
  133OSM    C5F14339  -0.144   1.913   3.430 -1.1385  0.7979  0.0622
  133OSM    H5F14340  -0.243   1.935   3.385 -1.4130  1.1068  0.8092
  133OSM    H5G14341  -0.078   2.001   3.413 -0.4435  0.3689  0.4891
  133OSM    C6F14342  -0.143   1.872   3.574 -0.5178 -0.4963 -1.0128
  133OSM    H6F14343  -0.044   1.834   3.608 -0.9744 -0.5756  0.2901
  133OSM    H6G14344  -0.206   1.781   3.581 -1.0853 -0.1674 -1.7215
  133OSM    C7F14345  -0.167   1.994   3.674  0.2643  0.6336  0.6572
  133OSM    H7F14346  -0.085   2.069   3.667  0.5847  0.2637  0.4305
  133OSM    H7G14347  -0.157   1.950   3.775  1.1667 -0.3774  0.1484
  133OSM    C8F14348  -0.311   2.044   3.655  0.2254  0.1825 -0.4945
  133OSM    H8F14349  -0.388   1.966   3.670 -1.3744  1.6765 -0.5816
  133OSM    H8G14350  -0.331   2.073   3.549 -0.3618 -0.1242 -0.4716
  133OSM    C9F14351  -0.342   2.164   3.746  0.7224  0.5264  0.9245
  133OSM    H9F14352  -0.326   2.262   3.700 -1.4326 -0.0502 -1.2725
  133OSM   C10F14353  -0.385   2.153   3.874 -0.0471 -0.3462  0.1002
  133OSM   H10F14354  -0.398   2.248   3.928 -1.9266  0.4154 -1.5323
  133OSM   C11F14355  -0.399   2.033   3.961  0.0766  0.1845 -0.0249
  133OSM   H11F14356  -0.336   1.948   3.927  1.1282  0.3632  1.3737
  133OSM   H11G14357  -0.502   1.993   3.969  0.1629  0.0538  0.4440
  133OSM   C12F14358  -0.356   2.071   4.105 -0.2692  0.0799  0.0635
  133OSM   H12F14359  -0.257   2.123   4.106 -0.7228  0.9905  1.7443
  133OSM   H12G14360  -0.340   1.981   4.168 -2.2258 -0.5420 -0.2786
  133OSM   C13F14361  -0.465   2.155   4.183  0.2484 -0.0865  0.2864
  133OSM   H13F14362  -0.569   2.134   4.149 -1.0720  3.4289  1.6250
  133OSM   H13G14363  -0.468   2.261   4.151 -0.9836 -0.3654 -0.6000
  133OSM   C14F14364  -0.443   2.156   4.328  0.4855 -0.0297 -0.0981
  133OSM   H14F14365  -0.337   2.177   4.352 -0.4140  2.9675  1.7681
  133OSM   H14G14366  -0.452   2.050   4.362 -0.5452 -0.5063 -1.7086
  133OSM   C15F14367  -0.532   2.252   4.405  0.2770  0.0311 -0.4708
  133OSM   H15F14368  -0.633   2.265   4.359  0.4180 -0.5835 -0.9825
  133OSM   H15G14369  -0.482   2.351   4.410 -1.4344  0.9822 -1.3119
  133OSM   C16F14370  -0.553   2.199   4.547 -0.0878 -0.3864  0.5239
  133OSM   H16F14371  -0.467   2.132   4.564  1.6347  0.6909 -2.9354
  133OSM   H16G14372  -0.639   2.130   4.559  0.4408 -0.8982  1.3727
  133OSM   C17F14373  -0.569   2.319   4.645 -0.7793 -0.8228 -0.4155
  133OSM   H17F14374  -0.584   2.270   4.743 -3.8707 -0.5346 -0.6265
  133OSM   H17G14375  -0.662   2.375   4.619 -0.8713 -0.9524 -0.3620
  133OSM   C18F14376  -0.441   2.409   4.654 -0.5763 -0.3954  0.1054
  133OSM   H18F14377  -0.458   2.464   4.749 -0.7169  1.6722 -1.0607
  133OSM   H18G14378  -0.432   2.484   4.573  2.0031 -1.3146 -0.5607
  133OSM   H18H14379  -0.344   2.356   4.664  1.0299  2.3973  0.2818
  134OSM      N14380   0.368   4.428   2.757 -0.0590  0.0765  0.9126
  134OSM    C1514381   0.342   4.351   2.634 -0.3957 -0.0266  0.3690
  134OSM   H15A14382   0.258   4.395   2.581 -1.6605 -1.2493  1.2608
  134OSM   H15B14383   0.293   4.255   2.638 -2.3070  0.8955  0.5591
  134OSM   H15C14384   0.435   4.355   2.581 -0.3292  2.3171  0.5301
  134OSM    C1414385   0.248   4.432   2.843 -0.7089 -0.0101 -0.2662
  134OSM   H14A14386   0.272   4.469   2.941 -2.7352 -0.6697  0.5288
  134OSM   H14B14387   0.215   4.329   2.848  0.7883 -0.4710  3.5330
  134OSM   H14C14388   0.175   4.499   2.800  1.5773  1.5242 -2.0302
  134OSM    C1314389   0.474   4.364   2.840 -0.7347  0.5804 -0.1202
  134OSM   H13A14390   0.569   4.367   2.787  0.6973  0.3754  2.3087
  134OSM   H13B14391   0.456   4.265   2.878  3.2283 -0.4495 -0.4556
  134OSM   H13C14392   0.480   4.425   2.928 -2.5591  1.2650 -0.4320
  134OSM    C1214393   0.409   4.560   2.714  0.3995  0.3386 -0.1464
  134OSM   H12A14394   0.335   4.600   2.646 -0.8513  2.7189  2.4134
  134OSM   H12B14395   0.506   4.564   2.665 -0.0813 -0.2017 -1.1664
  134OSM    C1114396   0.437   4.666   2.825  0.4829 -0.0179  0.0336
  134OSM   H11A14397   0.360   4.653   2.904 -1.0463  3.9750 -0.5664
  134OSM   H11B14398   0.411   4.768   2.790  0.8149 -0.1524 -0.6282
  134OSM      P14399   0.701   4.687   2.776 -0.1380 -0.4042 -0.2951
  134OSM    O1314400   0.727   4.566   2.701 -0.5679  0.6007 -0.4366
  134OSM    O1414401   0.666   4.809   2.695 -0.2294 -0.1650  0.0448
  134OSM    O1114402   0.819   4.722   2.881 -0.3227  0.5579  0.4226
  134OSM    O1214403   0.577   4.659   2.869  0.7550 -0.2578 -0.1308
  134OSM    C1S14404   0.793   4.798   2.999 -0.4489  0.2956 -0.3882
  134OSM    H1S14405   0.719   4.746   3.064  0.1729  0.5997  0.5858
  134OSM    H1T14406   0.768   4.904   2.975  0.8078  0.1309 -2.7012
  134OSM     NF14407   0.877   4.813   3.230  0.5118  0.2815 -1.0749
  134OSM    HNF14408   0.900   4.904   3.262 -0.2644 -0.2529  1.2089
  134OSM    C2S14409   0.916   4.786   3.093  0.0103  0.5362  0.3511
  134OSM    H2S14410   0.943   4.679   3.093 -0.5194  0.3657  2.4440
  134OSM    C3S14411   1.032   4.870   3.039  0.7275  0.9127  0.2373
  134OSM    H3S14412   0.996   4.974   3.057 -2.3133  0.4314 -2.1669
  134OSM     O314413   1.050   4.856   2.907  0.3475  0.2705 -0.4751
  134OSM    HO314414   0.979   4.796   2.882  1.3540 -2.0431  1.7552
  134OSM    C4S14415   1.159   4.842   3.111  0.4674 -0.1240 -0.7586
  134OSM    H4S14416   1.201   4.743   3.087  2.8436 -0.0256  2.3023
  134OSM    C5S14417   1.227   4.925   3.191  0.0309 -0.7023  0.1874
  134OSM    H5S14418   1.185   5.024   3.214  1.6499  0.0001  0.2375
  134OSM    C6S14419   1.350   4.880   3.267 -0.1843  0.1502 -0.1547
  134OSM    H6S14420   1.428   4.956   3.244 -1.9830  2.7902  1.8072
  134OSM    H6T14421   1.381   4.777   3.240 -1.6385 -0.9114  1.8736
  134OSM    C7S14422   1.314   4.868   3.406 -0.2805  0.2347 -0.3515
  134OSM    H7S14423   1.245   4.784   3.426  1.3076 -0.8714  0.7921
  134OSM    H7T14424   1.273   4.967   3.436 -0.8885  0.8609 -3.0132
  134OSM    C8S14425   1.437   4.850   3.497 -0.0140  0.0140  0.5558
  134OSM    H8S14426   1.518   4.925   3.484  0.2802 -0.1665  1.3166
  134OSM    H8T14427   1.501   4.762   3.474 -0.2023 -0.1941  0.8226
  134OSM    C9S14428   1.415   4.846   3.653  0.0977  0.7359  0.0724
  134OSM    H9S14429   1.361   4.938   3.685 -1.9480  1.3734 -4.4339
  134OSM    H9T14430   1.520   4.845   3.688 -0.1118  1.3879  0.7340
  134OSM   C10S14431   1.360   4.714   3.702 -0.2677  0.1760  0.0915
  134OSM   H10S14432   1.423   4.641   3.647 -0.3294 -0.5801  1.0009
  134OSM   H10T14433   1.255   4.696   3.672 -0.3125 -1.5228  1.1401
  134OSM   C11S14434   1.366   4.698   3.854  0.5180  0.5874  0.6174
  134OSM   H11S14435   1.314   4.784   3.901 -2.3340 -0.0206 -1.2120
  134OSM   H11T14436   1.470   4.693   3.894  0.6610  2.4952  0.5875
  134OSM   C12S14437   1.282   4.580   3.901  0.2752 -0.3022 -0.7051
  134OSM   H12S14438   1.316   4.489   3.848 -0.3574 -0.8415 -0.2140
  134OSM   H12T14439   1.178   4.608   3.872  0.0925  0.4839  0.6343
  134OSM   C13S14440   1.292   4.550   4.047 -0.4684 -0.1680  0.4564
  134OSM   H13S14441   1.401   4.550   4.069 -0.0581 -2.1409 -1.2823
  134OSM   H13T14442   1.267   4.444   4.068 -0.8373 -0.0993  0.3680
  134OSM   C14S14443   1.215   4.651   4.139  0.2885 -0.4898 -0.0213
  134OSM   H14S14444   1.118   4.665   4.086  0.6168  2.8726  0.0304
  134OSM   H14T14445   1.256   4.755   4.144 -0.4780 -0.2644  3.1710
  134OSM   C15S14446   1.197   4.622   4.285  0.0627 -0.7365 -0.2089
  134OSM   H15S14447   1.162   4.719   4.327 -2.1983 -2.2445  1.6797
  134OSM   H15T14448   1.294   4.591   4.329  1.6293 -0.0219 -2.9740
  134OSM   C16S14449   1.092   4.506   4.284  0.8971 -0.8275 -0.1976
  134OSM   H16S14450   1.141   4.406   4.282  0.6702 -0.9815  1.0272
  134OSM   H16T14451   1.010   4.522   4.211 -1.2615  1.7726  2.5393
  134OSM   C17S14452   1.022   4.504   4.419 -0.4960 -0.5654 -0.8210
  134OSM   H17S14453   0.948   4.422   4.410 -0.8583 -0.1204 -2.1298
  134OSM   H17T14454   0.957   4.590   4.445  0.6156 -0.0521  0.3944
  134OSM   C18S14455   1.120   4.484   4.527  0.0801  0.0880  0.1043
  134OSM   H18S14456   1.075   4.454   4.624 -3.1088 -0.1596 -1.3400
  134OSM   H18T14457   1.186   4.574   4.535 -1.0922  0.9687  0.0501
  134OSM   H18U14458   1.186   4.397   4.506 -1.1803 -1.2319  1.4562
  134OSM    C1F14459   0.798   4.733   3.297  0.2081  0.3846 -0.6084
  134OSM     OF14460   0.767   4.620   3.255 -0.1142 -0.1556  0.1241
  134OSM    C2F14461   0.751   4.788   3.434 -1.1522 -0.1957 -0.3782
  134OSM    H2F14462   0.656   4.738   3.459 -0.7664  0.0316  1.6803
  134OSM    H2G14463   0.733   4.897   3.433  0.8749  0.2198  1.2644
  134OSM    C3F14464   0.862   4.766   3.538 -0.2937  0.6968 -0.2299
  134OSM    H3F14465   0.943   4.834   3.503  1.4217 -0.5274  1.2105
  134OSM    H3G14466   0.912   4.667   3.541 -0.6730  0.5293  0.7659
  134OSM    C4F14467   0.820   4.816   3.678 -0.0151  0.2626 -0.4751
  134OSM    H4F14468   0.777   4.918   3.667  0.3455  0.2936 -1.7317
  134OSM    H4G14469   0.912   4.839   3.735 -1.6903  3.1303  1.3501
  134OSM    C5F14470   0.738   4.723   3.757 -0.0304 -0.1880  0.3450
  134OSM    H5F14471   0.806   4.641   3.790 -0.2052  0.4842  2.5752
  134OSM    H5G14472   0.657   4.675   3.698 -0.5174 -1.0426  1.6591
  134OSM    C6F14473   0.678   4.787   3.880  0.7453  0.1367 -0.4297
  134OSM    H6F14474   0.582   4.734   3.900  1.0536  0.3148  1.7531
  134OSM    H6G14475   0.652   4.892   3.857  0.6843  0.4967  1.1579
  134OSM    C7F14476   0.764   4.783   4.003 -0.3936  1.0257 -0.1753
  134OSM    H7F14477   0.868   4.820   3.987 -0.3091  0.0322 -2.4541
  134OSM    H7G14478   0.772   4.678   4.037  0.2859  1.0465 -0.2440
  134OSM    C8F14479   0.721   4.888   4.099 -0.1819 -0.6234  0.2975
  134OSM    H8F14480   0.615   4.864   4.123 -0.9451 -0.2444 -2.3474
  134OSM    H8G14481   0.710   4.989   4.054 -0.0119 -0.3444  0.8784
  134OSM    C9F14482   0.812   4.900   4.218  0.1181  0.8897 -0.0951
  134OSM    H9F14483   0.911   4.858   4.197 -0.9924 -1.0833 -1.8882
  134OSM   C10F14484   0.785   4.956   4.338 -0.3723  0.6027 -0.1864
  134OSM   H10F14485   0.865   4.963   4.414 -1.4871  1.5986  0.9487
  134OSM   C11F14486   0.650   5.012   4.379  0.5315 -0.0955 -0.1952
  134OSM   H11F14487   0.567   4.944   4.349  0.2444 -0.4446  1.3165
  134OSM   H11G14488   0.634   5.112   4.334  1.0037  0.9421  1.8141
  134OSM   C12F14489   0.630   5.025   4.529 -0.2180  0.0784 -0.4505
  134OSM   H12F14490   0.703   5.088   4.584  1.2086 -1.9049  0.0168
  134OSM   H12G14491   0.647   4.928   4.579  0.4982  0.1335 -0.5811
  134OSM   C13F14492   0.484   5.078   4.555 -1.0456 -0.0182 -0.4063
  134OSM   H13F14493   0.415   4.999   4.519  1.3572 -1.3319 -2.4936
  134OSM   H13G14494   0.475   5.177   4.505 -0.9400  0.3008  0.1932
  134OSM   C14F14495   0.450   5.093   4.705  0.0971 -0.4717  0.2300
  134OSM   H14F14496   0.426   4.996   4.753  1.5869 -1.7773 -1.5198
  134OSM   H14G14497   0.362   5.160   4.706  0.2731 -0.1968 -0.8799
  134OSM   C15F14498   0.555   5.169   4.790 -0.5994  0.4342 -0.1143
  134OSM   H15F14499   0.595   5.257   4.735  3.8819 -1.2100  0.1323
  134OSM   H15G14500   0.640   5.101   4.810  0.4657  2.0705  1.0930
  134OSM   C16F14501   0.494   5.212   4.926 -0.0069  0.0385  0.2092
  134OSM   H16F14502   0.430   5.128   4.960 -0.8167 -0.3620 -2.1444
  134OSM   H16G14503   0.420   5.294   4.912  0.1987 -0.2906 -3.8998
  134OSM   C17F14504   0.607   5.248   5.023  0.9370  0.2243  0.3644
  134OSM   H17F14505   0.682   5.319   4.982 -0.6414  1.8091  0.1226
  134OSM   H17G14506   0.659   5.151   5.042  0.0817  0.0372  1.8987
  134OSM   C18F14507   0.549   5.304   5.149  0.3325  0.2599 -0.7190
  134OSM   H18F14508   0.631   5.350   5.208 -1.8024  0.8524  1.9310
  134OSM   H18G14509   0.499   5.227   5.211 -0.0783  1.6952  0.8017
  134OSM   H18H14510   0.475   5.387   5.143  0.4690  0.8535  3.3756
  135OSM      N14511   1.544   2.897   2.288  0.3492 -0.5996  0.1724
  135OSM    C1514512   1.650   2.824   2.204  0.0957 -0.3430 -0.1639
  135OSM   H15A14513   1.639   2.718   2.219  0.9920 -0.5190 -0.6795
  135OSM   H15B14514   1.751   2.858   2.222  0.0475  0.8782 -1.9814
  135OSM   H15C14515   1.638   2.839   2.098 -1.8569  3.1990  0.4232
  135OSM    C1414516   1.534   3.044   2.243  0.2671  0.6932 -0.4569
  135OSM   H14A14517   1.615   3.103   2.283 -0.5685  1.2313  0.4793
  135OSM   H14B14518   1.439   3.091   2.262  0.2249  0.9864 -1.3133
  135OSM   H14C14519   1.547   3.050   2.135  0.8855  1.6536 -0.3406
  135OSM    C1314520   1.414   2.830   2.260 -0.1549  0.4920  0.3862
  135OSM   H13A14521   1.336   2.869   2.324 -0.0287  0.0706  0.7996
  135OSM   H13B14522   1.426   2.723   2.274 -1.1208  0.4239  0.7724
  135OSM   H13C14523   1.382   2.849   2.159 -1.1274 -4.0339 -0.3726
  135OSM    C1214524   1.574   2.883   2.438 -0.0788  0.6119  0.0286
  135OSM   H12A14525   1.582   2.779   2.467  2.6001  0.4016 -1.2123
  135OSM   H12B14526   1.488   2.916   2.495  0.7449 -1.1309  2.4653
  135OSM    C1114527   1.703   2.963   2.485  0.1060 -0.3638  1.1881
  135OSM   H11A14528   1.706   2.945   2.595  1.5315  1.9254  1.6135
  135OSM   H11B14529   1.690   3.073   2.474  3.6041  0.0472 -0.2527
  135OSM      P14530   1.921   3.015   2.352 -0.1443 -0.6739  0.1195
  135OSM    O1314531   2.059   2.960   2.340  0.3168  0.4810  0.4356
  135OSM    O1414532   1.860   3.078   2.234 -0.3583 -0.2905 -0.3872
  135OSM    O1114533   1.932   3.116   2.477  0.3148  0.2318 -0.1048
  135OSM    O1214534   1.824   2.910   2.420  0.2836  0.2519  0.7898
  135OSM    C1S14535   1.984   3.083   2.604 -0.0694  0.0383  0.2768
  135OSM    H1S14536   2.091   3.054   2.601 -0.4260 -1.5479  1.7172
  135OSM    H1T14537   1.921   3.005   2.652  0.0604 -0.2042  0.0570
  135OSM     NF14538   2.031   3.160   2.830 -0.6204  0.2147 -0.1206
  135OSM    HNF14539   1.971   3.092   2.872  2.1950 -1.4120  1.5760
  135OSM    C2S14540   1.984   3.203   2.703  0.2294 -0.3557 -0.2395
  135OSM    H2S14541   2.053   3.283   2.666 -0.2038 -0.9500 -2.5095
  135OSM    C3S14542   1.847   3.277   2.705 -0.4326  0.8425 -0.6704
  135OSM    H3S14543   1.774   3.197   2.728  2.6506 -1.3165  2.7010
  135OSM     O314544   1.826   3.337   2.581 -0.0496  0.1150  0.3055
  135OSM    HO314545   1.898   3.294   2.534  0.7694  0.3712  1.2855
  135OSM    C4S14546   1.865   3.383   2.810  0.2005 -0.8654  0.4454
  135OSM    H4S14547   1.945   3.455   2.788  0.4715 -1.4957 -0.7618
  135OSM    C5S14548   1.800   3.382   2.930  0.2412 -0.4596  0.2228
  135OSM    H5S14549   1.739   3.293   2.953 -1.2181 -0.6693 -3.6485
  135OSM    C6S14550   1.820   3.472   3.046 -0.0403 -0.0078 -0.0690
  135OSM    H6S14551   1.719   3.493   3.087 -1.0075  0.2272 -2.4240
  135OSM    H6T14552   1.849   3.572   3.007 -2.1568  1.1734  1.1628
  135OSM    C7S14553   1.904   3.417   3.161  0.8535  0.4048 -0.2773
  135OSM    H7S14554   1.905   3.504   3.231  2.2372  0.6391 -0.5640
  135OSM    H7T14555   2.010   3.395   3.138  0.8327  0.6319 -0.5877
  135OSM    C8S14556   1.844   3.291   3.227 -0.4391 -0.0944 -0.0088
  135OSM    H8S14557   1.868   3.215   3.150  2.2439 -1.3927  1.9892
  135OSM    H8T14558   1.734   3.303   3.241  0.0285  1.8719  2.8081
  135OSM    C9S14559   1.908   3.256   3.362 -0.1540  0.2092  0.6622
  135OSM    H9S14560   2.014   3.287   3.371 -0.7164  1.8516  2.2180
  135OSM    H9T14561   1.899   3.145   3.373 -1.9505  0.4323  1.9643
  135OSM   C10S14562   1.818   3.298   3.474 -0.3725  0.0239 -0.1099
  135OSM   H10S14563   1.715   3.281   3.436 -0.0387  0.5059 -1.2627
  135OSM   H10T14564   1.827   3.406   3.499 -2.3512 -0.0427  1.1526
  135OSM   C11S14565   1.854   3.221   3.601 -0.1700 -0.4855 -0.2211
  135OSM   H11S14566   1.961   3.228   3.629 -0.3105 -0.3517  0.2943
  135OSM   H11T14567   1.829   3.114   3.590  1.8734 -0.9824 -0.4783
  135OSM   C12S14568   1.785   3.280   3.729 -0.8958 -0.1906  0.0520
  135OSM   H12S14569   1.675   3.272   3.720 -0.7295 -2.0922 -0.7685
  135OSM   H12T14570   1.808   3.388   3.741  2.8992 -0.9319  0.8304
  135OSM   C13S14571   1.823   3.195   3.854  0.7053  0.3350  0.9439
  135OSM   H13S14572   1.932   3.197   3.877  0.8281 -0.0968  0.4086
  135OSM   H13T14573   1.817   3.090   3.818  1.6428  1.3326 -2.4697
  135OSM   C14S14574   1.752   3.239   3.981 -0.6835 -0.1721  0.3200
  135OSM   H14S14575   1.643   3.224   3.963 -0.1825 -3.1493 -0.8764
  135OSM   H14T14576   1.771   3.348   3.984  1.3993 -0.3929 -2.0293
  135OSM   C15S14577   1.814   3.166   4.101  0.5095  0.2319  0.5916
  135OSM   H15S14578   1.925   3.175   4.096  0.4821 -0.2679 -2.4730
  135OSM   H15T14579   1.785   3.060   4.089  0.5894  0.4047 -1.3086
  135OSM   C16S14580   1.747   3.225   4.223 -0.2476  0.2491  1.0172
  135OSM   H16S14581   1.637   3.215   4.220 -0.1425 -0.8896  0.5205
  135OSM   H16T14582   1.763   3.335   4.224  0.4309  0.2232 -1.2114
  135OSM   C17S14583   1.802   3.160   4.355 -0.1443 -0.5588 -0.1317
  135OSM   H17S14584   1.911   3.169   4.339 -0.0897 -0.7973  0.0981
  135OSM   H17T14585   1.793   3.049   4.359 -0.0103 -0.5501  0.6281
  135OSM   C18S14586   1.743   3.221   4.486  0.9131  0.0774  0.3444
  135OSM   H18S14587   1.649   3.172   4.520 -0.2825  1.3726 -0.9871
  135OSM   H18T14588   1.728   3.330   4.475 -0.5250 -0.0964  0.4784
  135OSM   H18U14589   1.808   3.199   4.574 -0.4098 -0.7847  1.1469
  135OSM    C1F14590   2.161   3.152   2.854 -0.7135  0.0330  0.4045
  135OSM     OF14591   2.247   3.213   2.790 -0.1904  0.4343  0.1945
  135OSM    C2F14592   2.198   3.058   2.970 -0.2978 -0.9243 -0.2381
  135OSM    H2F14593   2.267   2.978   2.937  0.9706 -0.1053  0.3556
  135OSM    H2G14594   2.108   3.000   3.000 -0.0997 -0.3906  1.5009
  135OSM    C3F14595   2.244   3.142   3.090 -0.0214 -0.8106 -0.2241
  135OSM    H3F14596   2.161   3.205   3.127 -0.4003 -1.2509 -0.3211
  135OSM    H3G14597   2.311   3.223   3.055 -1.2921 -0.4456 -1.9546
  135OSM    C4F14598   2.303   3.068   3.211  0.2619 -0.1082 -0.4786
  135OSM    H4F14599   2.404   3.026   3.192 -0.4155 -1.5929 -1.0268
  135OSM    H4G14600   2.248   2.973   3.229  1.8736 -1.1416 -0.7324
  135OSM    C5F14601   2.315   3.151   3.339  0.6319  0.4778 -0.0067
  135OSM    H5F14602   2.213   3.188   3.365  0.3040  0.0154 -0.6079
  135OSM    H5G14603   2.381   3.240   3.327 -0.4572  1.6334  2.0989
  135OSM    C6F14604   2.373   3.069   3.457  0.9570  0.0138  0.0037
  135OSM    H6F14605   2.479   3.037   3.451  0.4691 -1.8154  0.6257
  135OSM    H6G14606   2.325   2.970   3.473  0.6628  0.2891  0.8924
  135OSM    C7F14607   2.355   3.148   3.598 -0.5415  0.6321 -0.1467
  135OSM    H7F14608   2.249   3.143   3.629 -0.0112  0.9122  1.8154
  135OSM    H7G14609   2.377   3.255   3.579 -0.3508  0.6388  0.1114
  135OSM    C8F14610   2.444   3.088   3.712 -0.5428 -0.0280  0.0093
  135OSM    H8F14611   2.542   3.071   3.661 -0.4795 -1.9412  0.6895
  135OSM    H8G14612   2.426   2.983   3.740 -0.8902  0.1279  0.3782
  135OSM    C9F14613   2.427   3.176   3.830 -0.0233  0.0110  0.4776
  135OSM    H9F14614   2.329   3.180   3.879 -1.3238  0.0302 -1.9756
  135OSM   C10F14615   2.529   3.230   3.895 -0.8794 -0.4345  0.9152
  135OSM   H10F14616   2.502   3.284   3.987  1.1896  2.0643  0.1468
  135OSM   C11F14617   2.674   3.222   3.853  0.3829  0.2625  0.1825
  135OSM   H11F14618   2.693   3.330   3.835 -4.2340  1.0345 -1.2595
  135OSM   H11G14619   2.684   3.166   3.758 -1.5222 -1.7346  1.0548
  135OSM   C12F14620   2.782   3.171   3.951 -0.0066 -0.6564  0.2842
  135OSM   H12F14621   2.878   3.208   3.911 -1.7291  2.3890 -1.4513
  135OSM   H12G14622   2.773   3.061   3.946 -2.2807 -0.4856 -1.1798
  135OSM   C13F14623   2.761   3.229   4.088  0.1238 -0.1976 -0.4517
  135OSM   H13F14624   2.660   3.222   4.131  0.2905 -1.9160 -0.2602
  135OSM   H13G14625   2.776   3.339   4.095 -0.4173 -0.2056  1.2233
  135OSM   C14F14626   2.851   3.154   4.189  0.1506  0.6486 -0.0072
  135OSM   H14F14627   2.954   3.164   4.150 -0.6306  1.5741 -1.9748
  135OSM   H14G14628   2.818   3.048   4.197 -2.2391  1.4725  2.0414
  135OSM   C15F14629   2.838   3.206   4.329 -0.3995 -0.5170 -0.6109
  135OSM   H15F14630   2.739   3.230   4.374  0.7122  1.4959  0.9729
  135OSM   H15G14631   2.902   3.295   4.347  0.5556 -1.5795  1.7174
  135OSM   C16F14632   2.906   3.107   4.431  0.0569 -0.1091  0.5999
  135OSM   H16F14633   3.012   3.115   4.399 -0.1608  0.5010  0.0015
  135OSM   H16G14634   2.876   3.005   4.401  1.1793 -0.2169 -0.2368
  135OSM   C17F14635   2.879   3.129   4.578 -0.2616  0.0249  0.0680
  135OSM   H17F14636   2.945   3.210   4.615  1.5856 -0.6977 -1.4829
  135OSM   H17G14637   2.910   3.039   4.635 -0.4723  0.6170  1.1377
  135OSM   C18F14638   2.737   3.162   4.618  0.2697  0.1988  0.3210
  135OSM   H18F14639   2.723   3.179   4.727 -0.5409  0.1675  0.2307
  135OSM   H18G14640   2.668   3.082   4.582 -0.3172  0.7698  0.1472
  135OSM   H18H14641   2.714   3.265   4.584  2.1366  0.4050 -0.4321
  136OSM      N14642   5.277   5.173   2.483 -0.4345 -0.3560 -0.1718
  136OSM    C1514643   5.329   5.243   2.607 -0.2671  0.3545 -0.3481
  136OSM   H15A14644   5.252   5.246   2.682 -0.2047  1.1874 -0.3102
  136OSM   H15B14645   5.364   5.339   2.572  0.8185 -0.4657 -1.6496
  136OSM   H15C14646   5.418   5.188   2.635 -0.6331 -1.1705 -2.0034
  136OSM    C1414647   5.252   5.026   2.519  0.3515 -0.0040  0.1683
  136OSM   H14A14648   5.158   5.019   2.573  1.2490  1.7754  2.1268
  136OSM   H14B14649   5.330   4.993   2.586 -0.0066 -1.4759 -0.1053
  136OSM   H14C14650   5.254   4.975   2.424  2.8054  2.2877 -1.1501
  136OSM    C1314651   5.159   5.235   2.420 -0.3872  0.8003  0.4009
  136OSM   H13A14652   5.180   5.334   2.384  2.6962 -0.2569 -1.0620
  136OSM   H13B14653   5.070   5.236   2.482  0.0255 -0.9077  1.1124
  136OSM   H13C14654   5.118   5.177   2.339  0.2979 -0.2582  0.7824
  136OSM    C1214655   5.381   5.165   2.370 -0.6539 -0.0705 -0.0213
  136OSM   H12A14656   5.333   5.135   2.278 -4.1923  3.0348  0.5751
  136OSM   H12B14657   5.457   5.093   2.394  1.7268  2.4815  0.6703
  136OSM    C1114658   5.459   5.299   2.345 -0.2135  0.6290 -0.4452
  136OSM   H11A14659   5.375   5.371   2.352 -2.6926 -2.0039 -1.1001
  136OSM   H11B14660   5.490   5.309   2.239 -0.9917 -2.4972 -1.0925
  136OSM      P14661   5.699   5.227   2.416  0.1554  0.3577  0.1108
  136OSM    O1314662   5.650   5.088   2.383 -0.0778 -0.1320 -1.0259
  136OSM    O1414663   5.793   5.291   2.323 -0.1242  0.5779 -0.3645
  136OSM    O1114664   5.769   5.235   2.561 -0.8407  0.2050 -0.1935
  136OSM    O1214665   5.571   5.323   2.434 -0.7519 -0.1357  0.0411
  136OSM    C1S14666   5.734   5.343   2.652 -0.5183 -0.3977  0.0631
  136OSM    H1S14667   5.626   5.332   2.671 -0.4621  1.1199  1.4625
  136OSM    H1T14668   5.755   5.438   2.598  1.6115 -0.5594  0.5106
  136OSM     NF14669   5.737   5.425   2.880 -0.0280 -0.2518 -0.2276
  136OSM    HNF14670   5.740   5.522   2.902 -0.9517 -0.2875  0.0820
  136OSM    C2S14671   5.822   5.358   2.779 -0.2923  0.5893 -0.7771
  136OSM    H2S14672   5.852   5.255   2.809  1.0638  0.4276 -2.5266
  136OSM    C3S14673   5.951   5.431   2.745  0.4515  0.2775  0.3582
  136OSM    H3S14674   5.926   5.535   2.714  2.0958  0.5102 -0.2643
  136OSM     O314675   6.024   5.367   2.641  0.0453 -0.4796  0.4877
  136OSM    HO314676   5.959   5.325   2.585  1.5507 -0.8680 -1.0829
  136OSM    C4S14677   6.026   5.438   2.874  0.4602 -0.0928 -0.0666
  136OSM    H4S14678   5.992   5.511   2.948 -0.5823 -1.4165  0.8053
  136OSM    C5S14679   6.116   5.343   2.913  0.6974 -0.3150 -0.1981
  136OSM    H5S14680   6.127   5.254   2.849  1.0599  0.0728 -0.6769
  136OSM    C6S14681   6.181   5.325   3.046  0.1321 -0.5932 -0.1193
  136OSM    H6S14682   6.291   5.344   3.039 -0.1170  0.3315 -2.0623
  136OSM    H6T14683   6.156   5.224   3.085  1.5412 -0.7342  0.4808
  136OSM    C7S14684   6.134   5.434   3.147 -0.6007  0.0677 -0.4332
  136OSM    H7S14685   6.023   5.443   3.146 -0.5401  1.0451 -2.0721
  136OSM    H7T14686   6.167   5.538   3.129 -1.0427  0.2241 -0.3483
  136OSM    C8S14687   6.170   5.401   3.298  0.2601 -0.8841  0.3677
  136OSM    H8S14688   6.274   5.363   3.303  1.3166  1.6185 -0.4864
  136OSM    H8T14689   6.104   5.318   3.332 -3.1151  1.8394  1.0742
  136OSM    C9S14690   6.146   5.516   3.401  0.4930  0.1467 -0.5434
  136OSM    H9S14691   6.037   5.533   3.405  0.6253  0.7619  1.1213
  136OSM    H9T14692   6.197   5.607   3.361  1.4565 -0.5513 -0.9335
  136OSM   C10S14693   6.189   5.470   3.542 -0.6826  0.1414  0.1322
  136OSM   H10S14694   6.295   5.438   3.533 -0.4751  0.9517 -0.4033
  136OSM   H10T14695   6.139   5.374   3.566  0.1407 -0.1613  0.6872
  136OSM   C11S14696   6.195   5.574   3.646  0.0407  0.2025 -0.4660
  136OSM   H11S14697   6.105   5.638   3.648 -0.2581 -0.1061 -2.1807
  136OSM   H11T14698   6.284   5.639   3.628 -0.6005  1.3894  0.5131
  136OSM   C12S14699   6.214   5.512   3.786  0.2457  0.0352  0.1318
  136OSM   H12S14700   6.294   5.434   3.788 -0.2608 -0.5075 -0.3632
  136OSM   H12T14701   6.122   5.456   3.814  1.2437 -2.2960 -0.9147
  136OSM   C13S14702   6.232   5.619   3.896 -0.5025  0.4914 -0.1262
  136OSM   H13S14703   6.134   5.668   3.918  0.3466  1.5267  1.5670
  136OSM   H13T14704   6.303   5.700   3.869 -0.6367  0.9628  0.8903
  136OSM   C14S14705   6.281   5.564   4.032  0.5881  0.3495  0.6028
  136OSM   H14S14706   6.375   5.505   4.024  0.1201 -0.2147 -1.3894
  136OSM   H14T14707   6.203   5.494   4.069  1.3641  0.4079  2.4735
  136OSM   C15S14708   6.289   5.678   4.134  0.5504 -0.2798  0.0121
  136OSM   H15S14709   6.185   5.704   4.164  1.4672  2.4268  1.1624
  136OSM   H15T14710   6.332   5.775   4.098  0.5899  0.0281  0.8546
  136OSM   C16S14711   6.350   5.626   4.263  0.1155 -0.0768 -0.2840
  136OSM   H16S14712   6.375   5.718   4.319 -0.6117  0.5712 -1.0110
  136OSM   H16T14713   6.449   5.581   4.238  1.2911  3.1053 -1.8951
  136OSM   C17S14714   6.269   5.515   4.333 -0.2642  0.0848 -1.6241
  136OSM   H17S14715   6.260   5.428   4.264 -1.8759 -0.5539 -0.6578
  136OSM   H17T14716   6.167   5.547   4.361  0.1006  1.2422 -1.5803
  136OSM   C18S14717   6.327   5.474   4.462  0.1553 -0.6120  0.2822
  136OSM   H18S14718   6.419   5.411   4.465 -0.2017 -1.1247  2.7107
  136OSM   H18T14719   6.248   5.419   4.518 -1.2370  0.4648 -0.5829
  136OSM   H18U14720   6.353   5.566   4.519 -1.1958  0.1219 -0.2447
  136OSM    C1F14721   5.635   5.350   2.935 -0.5297 -0.8019 -1.8920
  136OSM     OF14722   5.657   5.232   2.943 -0.3212  0.0368  0.8273
  136OSM    C2F14723   5.510   5.415   2.978  1.0682  0.3410 -0.7432
  136OSM    H2F14724   5.441   5.428   2.891  0.4458  0.4092 -0.2479
  136OSM    H2G14725   5.533   5.517   3.017  1.8871 -0.8721  2.1711
  136OSM    C3F14726   5.455   5.335   3.102 -0.1786 -0.3521 -0.4111
  136OSM    H3F14727   5.438   5.230   3.070 -0.6423 -0.4126  0.0345
  136OSM    H3G14728   5.358   5.373   3.140  0.7667  0.0563  1.7710
  136OSM    C4F14729   5.546   5.326   3.225  0.0196  0.1315  0.1345
  136OSM    H4F14730   5.638   5.270   3.197  1.1907  2.2193 -0.4196
  136OSM    H4G14731   5.488   5.257   3.290  1.4854  1.8614  3.4712
  136OSM    C5F14732   5.591   5.454   3.306 -0.0551 -0.6631 -0.5930
  136OSM    H5F14733   5.494   5.492   3.343 -0.4892 -1.0405 -1.3334
  136OSM    H5G14734   5.640   5.533   3.245 -0.1636  0.6850  1.0088
  136OSM    C6F14735   5.683   5.416   3.422  0.7108  0.3234  1.3936
  136OSM    H6F14736   5.777   5.366   3.392  0.9927  1.0092  1.1050
  136OSM    H6G14737   5.626   5.334   3.471  0.2188  0.3349  0.8545
  136OSM    C7F14738   5.712   5.520   3.524 -0.8665 -0.1762  0.1789
  136OSM    H7F14739   5.617   5.555   3.572  0.0984  1.2048  1.1633
  136OSM    H7G14740   5.762   5.603   3.469 -1.7876  0.8186  0.7843
  136OSM    C8F14741   5.812   5.465   3.630 -0.3355 -0.2142  0.0086
  136OSM    H8F14742   5.906   5.432   3.580  0.5469  2.0039  0.0932
  136OSM    H8G14743   5.769   5.373   3.673  1.7445 -0.8892  0.7616
  136OSM    C9F14744   5.846   5.583   3.725 -0.2611 -0.0962 -0.1695
  136OSM    H9F14745   5.855   5.675   3.667  0.9969 -0.2905 -0.3127
  136OSM   C10F14746   5.878   5.587   3.858 -0.4356  0.1381  0.9159
  136OSM   H10F14747   5.894   5.685   3.904  1.5958  1.7807 -2.8851
  136OSM   C11F14748   5.865   5.462   3.942 -0.0055 -0.4722 -0.3482
  136OSM   H11F14749   5.968   5.432   3.971 -1.0025 -0.8542  3.2093
  136OSM   H11G14750   5.821   5.371   3.895 -0.1047 -0.5191 -0.1625
  136OSM   C12F14751   5.799   5.514   4.072  1.1137 -0.2763  0.2241
  136OSM   H12F14752   5.692   5.543   4.061  0.6345 -1.7051  0.9544
  136OSM   H12G14753   5.847   5.604   4.116  0.8636  0.6220 -1.2704
  136OSM   C13F14754   5.784   5.402   4.176  0.5172 -0.3720  0.5052
  136OSM   H13F14755   5.882   5.359   4.206  1.6675  0.5297 -1.7784
  136OSM   H13G14756   5.721   5.322   4.132  1.3845 -1.1379  0.6121
  136OSM   C14F14757   5.709   5.449   4.305 -0.2518 -0.3927 -0.5329
  136OSM   H14F14758   5.739   5.554   4.328 -0.5481 -0.4507  0.1264
  136OSM   H14G14759   5.745   5.392   4.393 -0.2686  2.1247  1.2210
  136OSM   C15F14760   5.555   5.434   4.297  0.5817  0.2250 -0.3890
  136OSM   H15F14761   5.529   5.328   4.279  0.4685  0.6765 -3.2698
  136OSM   H15G14762   5.508   5.477   4.206 -1.8293 -1.3683  0.0210
  136OSM   C16F14763   5.496   5.483   4.428  0.1096 -0.2254 -0.5733
  136OSM   H16F14764   5.385   5.486   4.422  0.0121  0.8644  1.2164
  136OSM   H16G14765   5.521   5.590   4.445 -1.3227  0.2792 -1.4374
  136OSM   C17F14766   5.529   5.385   4.539  0.1034  0.5279  0.4976
  136OSM   H17F14767   5.639   5.374   4.543 -0.0911 -1.6999  0.6757
  136OSM   H17G14768   5.492   5.287   4.502  2.2721  0.0177 -0.4562
  136OSM   C18F14769   5.476   5.421   4.673 -0.2465 -0.2906 -0.5745
  136OSM   H18F14770   5.501   5.524   4.706  1.4530  0.1936 -3.0734
  136OSM   H18G14771   5.514   5.347   4.746  1.8432 -0.9300 -2.2263
  136OSM   H18H14772   5.367   5.401   4.669 -0.1619 -1.3965  1.5924
  137OSM      N14773   2.712   4.075   1.944  0.4390 -0.2085 -0.1369
  137OSM    C1514774   2.820   4.138   1.866 -0.5489  0.4682 -0.1357
  137OSM   H15A14775   2.783   4.148   1.765 -0.7290 -2.6937 -0.4737
  137OSM   H15B14776   2.907   4.075   1.859 -0.6131  0.2033  1.2081
  137OSM   H15C14777   2.856   4.232   1.906  0.6128 -0.3359  0.7753
  137OSM    C1414778   2.610   4.172   1.974 -0.6152 -0.8247  0.1308
  137OSM   H14A14779   2.523   4.135   2.027  0.7197 -2.1694  1.4512
  137OSM   H14B14780   2.578   4.224   1.885 -1.1574  0.0708  0.8282
  137OSM   H14C14781   2.649   4.251   2.036 -0.2809 -0.5712 -0.3898
  137OSM    C1314782   2.656   3.967   1.860  0.4688 -0.1343 -0.5300
  137OSM   H13A14783   2.626   3.987   1.758 -2.6428 -0.1899  0.2917
  137OSM   H13B14784   2.565   3.921   1.896 -0.3449  2.0547  0.3475
  137OSM   H13C14785   2.727   3.885   1.855  2.0177  1.0717  0.5354
  137OSM    C1214786   2.777   4.014   2.069  0.2671 -0.1811 -0.0419
  137OSM   H12A14787   2.831   4.088   2.126  0.2960  1.1592 -1.7607
  137OSM   H12B14788   2.858   3.946   2.047  0.6790 -0.0133  0.9277
  137OSM    C1114789   2.684   3.942   2.175 -0.2070 -0.3196  0.1904
  137OSM   H11A14790   2.749   3.896   2.252 -1.2593 -1.6361  0.3371
  137OSM   H11B14791   2.638   3.857   2.120  2.2870 -1.7433  0.1627
  137OSM      P14792   2.620   4.149   2.319 -0.0261 -0.1914  0.0952
  137OSM    O1314793   2.765   4.148   2.347  0.3435  0.5043 -0.3933
  137OSM    O1414794   2.572   4.282   2.269 -0.1210 -0.6123 -0.0378
  137OSM    O1114795   2.549   4.120   2.462 -0.3775  0.2657  0.5212
  137OSM    O1214796   2.581   4.024   2.226  0.1509 -0.1098  0.2416
  137OSM    C1S14797   2.501   3.991   2.498  1.2183 -0.0506  0.2747
  137OSM    H1S14798   2.574   3.915   2.462 -0.0085 -0.1185 -2.3005
  137OSM    H1T14799   2.403   3.975   2.449  0.3952  2.2280  1.0080
  137OSM     NF14800   2.465   3.864   2.716 -0.1929  0.1486  0.0414
  137OSM    HNF14801   2.390   3.838   2.776 -0.0750  0.6441  0.4174
  137OSM    C2S14802   2.482   3.996   2.650  0.0738  0.8095 -0.5570
  137OSM    H2S14803   2.577   4.030   2.695  0.8476 -1.8506 -0.0050
  137OSM    C3S14804   2.369   4.084   2.697 -0.5575  0.1562  0.1517
  137OSM    H3S14805   2.274   4.036   2.667 -1.9369  2.1270  1.1477
  137OSM     O314806   2.357   4.201   2.618 -0.3950 -0.1946  0.5980
  137OSM    HO314807   2.416   4.174   2.548  1.2664 -0.9142  2.1841
  137OSM    C4S14808   2.352   4.107   2.842 -0.4437  0.2582  0.5446
  137OSM    H4S14809   2.301   4.027   2.898 -2.3389  1.4551  0.6357
  137OSM    C5S14810   2.410   4.208   2.914  0.5245  0.5364  1.0079
  137OSM    H5S14811   2.458   4.295   2.868  1.9614  0.0446  1.5148
  137OSM    C6S14812   2.397   4.224   3.061  0.0335  0.6063  0.0868
  137OSM    H6S14813   2.349   4.320   3.088  1.2054  0.4033  3.3884
  137OSM    H6T14814   2.501   4.217   3.099 -0.1881 -0.6579  0.5307
  137OSM    C7S14815   2.325   4.115   3.143  0.1795  0.1311  0.0309
  137OSM    H7S14816   2.369   4.014   3.128 -0.4330 -0.2289  0.5636
  137OSM    H7T14817   2.215   4.109   3.134  0.1341  0.8948  0.0072
  137OSM    C8S14818   2.333   4.144   3.298 -0.1283  0.1998 -0.4972
  137OSM    H8S14819   2.270   4.235   3.309 -0.7274 -0.1709 -0.8075
  137OSM    H8T14820   2.432   4.181   3.331 -1.7112  2.1890  2.4757
  137OSM    C9S14821   2.287   4.032   3.400 -0.5704 -0.4800 -0.0458
  137OSM    H9S14822   2.364   3.953   3.391 -0.4652 -0.1721 -2.5061
  137OSM    H9T14823   2.183   3.994   3.389 -1.4497  0.8026  2.7996
  137OSM   C10S14824   2.287   4.079   3.549 -0.0881  0.1921  0.1853
  137OSM   H10S14825   2.213   4.162   3.548 -2.3860 -1.7233 -1.1939
  137OSM   H10T14826   2.384   4.126   3.577  0.2195 -0.6495  0.5796
  137OSM   C11S14827   2.249   3.977   3.652 -0.3190 -0.5126 -0.0711
  137OSM   H11S14828   2.292   3.876   3.631 -0.0212 -0.0654 -1.7854
  137OSM   H11T14829   2.141   3.959   3.635 -0.4937  1.3500 -1.2478
  137OSM   C12S14830   2.275   4.021   3.797  0.2094 -0.3598  0.3322
  137OSM   H12S14831   2.237   4.125   3.806  0.1131 -0.4246  0.6912
  137OSM   H12T14832   2.385   4.028   3.812 -0.0015 -0.8167  2.4826
  137OSM   C13S14833   2.207   3.933   3.905 -0.6307 -0.6745 -0.2899
  137OSM   H13S14834   2.242   3.828   3.894 -1.0599 -0.7057 -1.5440
  137OSM   H13T14835   2.096   3.934   3.892 -0.5046 -1.3432 -1.5426
  137OSM   C14S14836   2.235   3.982   4.054 -0.7249 -0.0061  0.3347
  137OSM   H14S14837   2.141   4.002   4.108  0.0733  0.3720  1.6293
  137OSM   H14T14838   2.298   4.074   4.057 -0.6271 -0.0874  0.8301
  137OSM   C15S14839   2.316   3.884   4.143  0.1095 -0.4040 -0.4032
  137OSM   H15S14840   2.420   3.879   4.104 -0.9537  0.1445 -3.5748
  137OSM   H15T14841   2.277   3.780   4.149  0.7274 -0.5990  0.4494
  137OSM   C16S14842   2.315   3.944   4.278  0.0756 -0.0847 -0.4012
  137OSM   H16S14843   2.222   3.929   4.337 -0.5994  0.6604 -1.2399
  137OSM   H16T14844   2.343   4.052   4.269 -1.3496  0.1657 -2.5191
  137OSM   C17S14845   2.426   3.870   4.353  0.2544  0.1695 -0.4982
  137OSM   H17S14846   2.519   3.871   4.293  0.5480  3.9600 -0.2399
  137OSM   H17T14847   2.400   3.766   4.379 -1.4668  0.4174 -1.0956
  137OSM   C18S14848   2.468   3.925   4.493 -0.1164  0.0510  0.5327
  137OSM   H18S14849   2.566   3.887   4.527  0.2774  1.6421  1.2561
  137OSM   H18T14850   2.387   3.898   4.564 -0.5927 -1.2092 -0.4673
  137OSM   H18U14851   2.470   4.036   4.484 -1.7748  0.0689  0.0072
  137OSM    C1F14852   2.579   3.782   2.708  0.2139 -0.0591  0.2287
  137OSM     OF14853   2.688   3.832   2.678 -0.0553 -0.4591  0.4179
  137OSM    C2F14854   2.566   3.641   2.738  0.1822 -0.2451 -0.2789
  137OSM    H2F14855   2.638   3.581   2.677  1.1095  0.3209  0.2255
  137OSM    H2G14856   2.466   3.603   2.711 -0.6228  0.4595  1.5744
  137OSM    C3F14857   2.593   3.612   2.891 -0.3847 -1.0334  0.2194
  137OSM    H3F14858   2.578   3.505   2.916 -0.6963 -0.8079  1.0443
  137OSM    H3G14859   2.530   3.679   2.954 -2.2092 -2.2279 -0.2763
  137OSM    C4F14860   2.734   3.664   2.927 -0.0374  0.8293  0.1082
  137OSM    H4F14861   2.738   3.775   2.920  0.0353  0.7278 -1.7851
  137OSM    H4G14862   2.813   3.621   2.862  0.1997  0.8658  0.3710
  137OSM    C5F14863   2.769   3.627   3.076  0.7073  0.5075  0.2138
  137OSM    H5F14864   2.863   3.671   3.115 -0.2835  0.2611  3.1251
  137OSM    H5G14865   2.800   3.521   3.067  1.6534  0.9630 -4.3093
  137OSM    C6F14866   2.665   3.651   3.183 -0.2355  0.0452  0.1145
  137OSM    H6F14867   2.710   3.619   3.279 -3.4912 -1.4398  1.2823
  137OSM    H6G14868   2.575   3.586   3.176  1.4219 -2.7175  2.4305
  137OSM    C7F14869   2.624   3.797   3.195  0.1598 -0.6347  0.5436
  137OSM    H7F14870   2.549   3.811   3.274  0.9233  3.8970  0.7275
  137OSM    H7G14871   2.577   3.823   3.098  1.6022  1.6360  0.3627
  137OSM    C8F14872   2.741   3.903   3.217 -0.0175 -1.1075  0.6437
  137OSM    H8F14873   2.808   3.906   3.129 -1.3847  1.4175 -0.3995
  137OSM    H8G14874   2.797   3.863   3.304 -0.0086 -3.4937 -0.3789
  137OSM    C9F14875   2.684   4.040   3.251  0.1196  0.2062  0.0957
  137OSM    H9F14876   2.602   4.067   3.182  2.3675  0.1049 -2.8167
  137OSM   C10F14877   2.727   4.121   3.352 -0.0553 -0.0048 -0.4841
  137OSM   H10F14878   2.680   4.220   3.352 -3.1723 -1.3908 -0.3730
  137OSM   C11F14879   2.818   4.097   3.469 -0.1925 -0.1421  0.3155
  137OSM   H11F14880   2.882   4.185   3.489 -2.4807  1.4752  0.9089
  137OSM   H11G14881   2.884   4.016   3.432  2.8669  2.6050 -0.7521
  137OSM   C12F14882   2.748   4.050   3.602  0.4608 -0.3973  0.9256
  137OSM   H12F14883   2.669   4.123   3.629  0.3534  1.2443 -3.1906
  137OSM   H12G14884   2.820   4.056   3.687  0.6117  2.5919  0.6852
  137OSM   C13F14885   2.673   3.919   3.598  0.3644 -1.2708 -0.6745
  137OSM   H13F14886   2.723   3.847   3.529 -0.2848 -0.4187 -2.0840
  137OSM   H13G14887   2.578   3.945   3.546 -0.4053  1.0037  1.6727
  137OSM   C14F14888   2.652   3.863   3.739  0.1217 -0.3316 -0.1759
  137OSM   H14F14889   2.577   3.927   3.790 -0.6175 -0.1802 -1.4131
  137OSM   H14G14890   2.747   3.855   3.796 -0.0157 -2.5096 -0.1787
  137OSM   C15F14891   2.605   3.713   3.745  0.1693 -0.5050  0.7360
  137OSM   H15F14892   2.647   3.659   3.657 -1.7236 -0.8280 -0.0109
  137OSM   H15G14893   2.496   3.733   3.748 -0.0402 -1.6066  4.1956
  137OSM   C16F14894   2.644   3.633   3.867  0.5716 -0.4717 -0.2532
  137OSM   H16F14895   2.755   3.635   3.875  0.5404 -0.9909  0.3437
  137OSM   H16G14896   2.615   3.527   3.847  2.9467 -1.3575  0.6245
  137OSM   C17F14897   2.576   3.677   3.996  0.7481  0.2489 -0.3990
  137OSM   H17F14898   2.468   3.675   3.973  0.9404  1.3020 -1.4454
  137OSM   H17G14899   2.596   3.785   4.011 -3.4331  1.1115 -0.0171
  137OSM   C18F14900   2.613   3.585   4.113 -0.0403  0.4384  0.4773
  137OSM   H18F14901   2.564   3.610   4.209  0.7828  2.4643  0.4241
  137OSM   H18G14902   2.720   3.567   4.133 -0.2825 -1.2957  0.3722
  137OSM   H18H14903   2.559   3.491   4.091  2.1911 -0.5510 -1.0538
  138OSM      N14904   0.223   6.233   2.458 -0.4571  0.3715 -0.4938
  138OSM    C1514905   0.137   6.125   2.397  0.5488  0.2487 -0.1210
  138OSM   H15A14906   0.203   6.059   2.344  0.6829  1.2754 -1.2793
  138OSM   H15B14907   0.075   6.162   2.318  1.2715  1.5516 -0.1178
  138OSM   H15C14908   0.082   6.076   2.476 -0.7589 -0.5434 -1.4900
  138OSM    C1414909   0.325   6.273   2.365  0.4757 -0.6644  0.2982
  138OSM   H14A14910   0.286   6.311   2.272 -0.7033  1.5589  1.5991
  138OSM   H14B14911   0.374   6.178   2.347 -0.2728 -1.5396  2.5369
  138OSM   H14C14912   0.386   6.352   2.408 -0.7849  0.9387 -0.7452
  138OSM    C1314913   0.135   6.353   2.499 -0.7829 -0.3590  0.3514
  138OSM   H13A14914   0.070   6.378   2.416 -0.6903 -0.1112  0.3500
  138OSM   H13B14915   0.199   6.438   2.520  1.0325 -1.3922 -0.7174
  138OSM   H13C14916   0.080   6.325   2.587  0.7759  0.5188  1.6726
  138OSM    C1214917   0.293   6.194   2.589  0.2676  0.8225  0.2555
  138OSM   H12A14918   0.368   6.118   2.570  0.9782  0.8545  2.6901
  138OSM   H12B14919   0.224   6.150   2.658  2.3869  0.1296  2.0341
  138OSM    C1114920   0.357   6.306   2.682  0.3725 -0.5042 -0.1003
  138OSM   H11A14921   0.385   6.249   2.773  2.2891  0.4072 -0.0560
  138OSM   H11B14922   0.286   6.379   2.725  1.4826 -0.2052  1.2947
  138OSM      P14923   0.489   6.518   2.624  0.5002 -0.1142  0.0886
  138OSM    O1314924   0.610   6.581   2.561 -0.2643 -0.4235 -0.1370
  138OSM    O1414925   0.362   6.575   2.574  0.1280  0.0179 -0.5330
  138OSM    O1114926   0.494   6.557   2.780 -0.1656  0.4847 -0.0902
  138OSM    O1214927   0.480   6.361   2.623 -0.3134 -0.0562  0.6178
  138OSM    C1S14928   0.601   6.505   2.858  0.2142  0.1038  0.1809
  138OSM    H1S14929   0.695   6.541   2.812 -1.7107  2.0296 -2.5377
  138OSM    H1T14930   0.591   6.396   2.878 -2.1574 -0.1335 -1.8949
  138OSM     NF14931   0.714   6.519   3.075 -0.4165 -0.7065 -0.1893
  138OSM    HNF14932   0.696   6.459   3.153 -2.9343  2.9417  2.3731
  138OSM    C2S14933   0.593   6.556   2.999 -0.2019  0.1554 -0.2454
  138OSM    H2S14934   0.598   6.667   2.998  2.5778  0.0911 -1.0158
  138OSM    C3S14935   0.453   6.523   3.073 -0.5484  0.2966  0.9259
  138OSM    H3S14936   0.446   6.413   3.088 -0.6931  0.3379  1.1630
  138OSM     O314937   0.343   6.540   2.984  0.2706  0.0468 -0.6304
  138OSM    HO314938   0.387   6.551   2.900  0.5623 -0.7490 -0.5838
  138OSM    C4S14939   0.433   6.580   3.215  0.5367  0.0360 -0.0121
  138OSM    H4S14940   0.427   6.690   3.214 -0.8327  0.0532 -3.5446
  138OSM    C5S14941   0.413   6.508   3.330  0.4164  0.4570 -0.9640
  138OSM    H5S14942   0.396   6.400   3.330 -1.4239  0.6203  2.1496
  138OSM    C6S14943   0.380   6.570   3.461  0.1466 -0.3731  0.1971
  138OSM    H6S14944   0.286   6.535   3.507 -0.2804 -0.0765 -0.4469
  138OSM    H6T14945   0.383   6.679   3.439  0.5892 -0.8003 -2.0918
  138OSM    C7S14946   0.500   6.538   3.560 -0.0815 -0.5897 -0.3513
  138OSM    H7S14947   0.590   6.593   3.524  0.5956 -0.4455  1.4406
  138OSM    H7T14948   0.539   6.435   3.568 -1.0364 -0.9616 -0.3909
  138OSM    C8S14949   0.470   6.584   3.704 -0.2767  0.1347 -0.8545
  138OSM    H8S14950   0.378   6.526   3.726 -2.5630  3.4909 -0.9879
  138OSM    H8T14951   0.425   6.685   3.704 -0.1905  0.2753  2.6974
  138OSM    C9S14952   0.586   6.582   3.804  0.0653 -0.1080  0.3868
  138OSM    H9S14953   0.651   6.669   3.778 -0.2505  0.0633  0.1605
  138OSM    H9T14954   0.645   6.488   3.796 -0.4228 -0.5226  1.4723
  138OSM   C10S14955   0.553   6.597   3.955 -1.1029 -0.2869  0.6242
  138OSM   H10S14956   0.482   6.683   3.961  1.0731  1.6447 -0.0308
  138OSM   H10T14957   0.648   6.624   4.006 -1.2959  0.6181  0.5280
  138OSM   C11S14958   0.489   6.467   4.015  0.7634 -0.7272  0.6430
  138OSM   H11S14959   0.558   6.380   4.017  1.0695 -0.6082 -1.6931
  138OSM   H11T14960   0.410   6.419   3.953  0.2287 -2.7484  2.7203
  138OSM   C12S14961   0.430   6.481   4.152 -0.3960  0.0455 -0.0339
  138OSM   H12S14962   0.383   6.382   4.173  2.0599 -0.7058  2.5770
  138OSM   H12T14963   0.352   6.559   4.154 -0.0118  0.5391 -2.1776
  138OSM   C13S14964   0.541   6.501   4.262 -0.9035  0.3756  0.3210
  138OSM   H13S14965   0.589   6.597   4.236  1.4665 -0.6297  0.6938
  138OSM   H13T14966   0.614   6.417   4.263 -2.0037 -0.6155  1.8332
  138OSM   C14S14967   0.478   6.487   4.402 -0.0723 -0.3440 -0.5244
  138OSM   H14S14968   0.436   6.386   4.420  1.0967 -0.8760 -0.7383
  138OSM   H14T14969   0.394   6.560   4.402 -0.0066 -0.2451 -2.3025
  138OSM   C15S14970   0.579   6.524   4.511  0.5199 -0.3818  0.3676
  138OSM   H15S14971   0.611   6.628   4.489 -2.3306  0.4145 -0.3195
  138OSM   H15T14972   0.674   6.466   4.512  0.1006 -1.0716  0.7164
  138OSM   C16S14973   0.507   6.521   4.647 -0.3139  0.0632 -0.5112
  138OSM   H16S14974   0.473   6.416   4.662 -3.9386  0.8333 -2.1624
  138OSM   H16T14975   0.422   6.592   4.653 -0.2618  0.0138  1.6661
  138OSM   C17S14976   0.611   6.557   4.756  0.0204 -0.1117  0.2998
  138OSM   H17S14977   0.668   6.649   4.732 -2.0800  1.2800  0.3881
  138OSM   H17T14978   0.683   6.473   4.748 -0.9094 -0.8954  0.0419
  138OSM   C18S14979   0.564   6.586   4.900 -0.2213 -0.0689 -0.0929
  138OSM   H18S14980   0.491   6.669   4.903 -0.9901 -0.6721 -1.3600
  138OSM   H18T14981   0.656   6.615   4.957 -1.4188  0.3073  1.7331
  138OSM   H18U14982   0.521   6.492   4.942 -0.5864  0.0382 -0.2344
  138OSM    C1F14983   0.839   6.562   3.051  0.2289 -0.0597 -0.4328
  138OSM     OF14984   0.866   6.640   2.961 -0.0069 -0.4673 -0.4365
  138OSM    C2F14985   0.945   6.507   3.139 -0.6480  0.6366 -0.2470
  138OSM    H2F14986   0.939   6.396   3.143  0.5160  0.5438 -0.6740
  138OSM    H2G14987   0.926   6.551   3.239  0.7684  0.7550 -0.0071
  138OSM    C3F14988   1.092   6.542   3.093  0.5093  0.3491 -0.0809
  138OSM    H3F14989   1.103   6.648   3.061 -0.0366  0.4007 -0.1096
  138OSM    H3G14990   1.114   6.486   3.000 -3.3232 -1.6500  0.0289
  138OSM    C4F14991   1.202   6.509   3.197 -0.0612  0.1068  0.0058
  138OSM    H4F14992   1.303   6.530   3.154 -0.4125  0.2613 -0.7601
  138OSM    H4G14993   1.189   6.404   3.230 -1.8716  0.2538 -0.1698
  138OSM    C5F14994   1.184   6.595   3.317  0.8518 -0.3618 -0.4809
  138OSM    H5F14995   1.086   6.579   3.367  1.5193 -2.4996  0.2787
  138OSM    H5G14996   1.190   6.692   3.264  1.5239 -0.1900 -0.1032
  138OSM    C6F14997   1.294   6.587   3.421 -0.2524  0.1823 -0.4544
  138OSM    H6F14998   1.381   6.587   3.353  0.8764 -0.4150  0.9480
  138OSM    H6G14999   1.312   6.484   3.459  0.4632 -0.1798 -1.7280
  138OSM    C7F15000   1.308   6.701   3.524 -0.2140 -0.3674  0.7142
  138OSM    H7F15001   1.242   6.785   3.495  0.6859 -0.0742 -0.5682
  138OSM    H7G15002   1.415   6.731   3.519  0.0410 -1.4137 -0.9958
  138OSM    C8F15003   1.266   6.662   3.667 -0.5061  0.2647 -0.2979
  138OSM    H8F15004   1.284   6.749   3.734 -0.5663  0.2517 -0.2638
  138OSM    H8G15005   1.327   6.576   3.699  0.0902  0.8917  0.2897
  138OSM    C9F15006   1.118   6.627   3.681 -0.0913 -0.0052  1.0616
  138OSM    H9F15007   1.064   6.639   3.586  1.0582  2.0182  0.6089
  138OSM   C10F15008   1.050   6.615   3.793  0.2098 -0.1966 -0.5874
  138OSM   H10F15009   0.944   6.588   3.782  0.2414  0.1718 -2.0616
  138OSM   C11F15010   1.102   6.634   3.933 -0.5482  0.9069  0.1864
  138OSM   H11F15011   1.201   6.683   3.927  0.6104 -1.1920  1.0804
  138OSM   H11G15012   1.117   6.539   3.988  3.1516  1.4200  0.2765
  138OSM   C12F15013   1.004   6.714   4.010 -0.0304  0.0191 -0.4113
  138OSM   H12F15014   0.904   6.666   4.003 -0.5259  1.0703 -0.8063
  138OSM   H12G15015   0.998   6.813   3.959  2.1509 -0.1102 -1.0182
  138OSM   C13F15016   1.040   6.736   4.156 -0.1562  0.2118 -0.4346
  138OSM   H13F15017   1.117   6.817   4.151  2.5736 -2.2662 -1.2207
  138OSM   H13G15018   1.075   6.645   4.209  3.3328  1.2113 -0.7537
  138OSM   C14F15019   0.923   6.801   4.244  0.9656  0.4512  0.3505
  138OSM   H14F15020   0.848   6.723   4.270  0.0912  0.9181 -0.6874
  138OSM   H14G15021   0.882   6.875   4.173  2.1496 -0.0898 -0.9313
  138OSM   C15F15022   0.979   6.877   4.365 -0.1323 -0.7249 -0.5061
  138OSM   H15F15023   1.032   6.968   4.327  0.2090  0.4217  2.4490
  138OSM   H15G15024   1.060   6.828   4.423 -1.3915  0.4542  2.4739
  138OSM   C16F15025   0.871   6.922   4.468 -0.2419 -0.2842  0.0109
  138OSM   H16F15026   0.840   6.834   4.529 -1.6600  1.0435  1.2955
  138OSM   H16G15027   0.787   6.967   4.410  1.3954  1.9502 -0.7484
  138OSM   C17F15028   0.912   7.023   4.570 -0.4081 -0.0271 -0.6026
  138OSM   H17F15029   0.937   7.121   4.523  0.2440  0.6325  1.0158
  138OSM   H17G15030   1.009   6.992   4.613 -0.4697 -2.1298 -1.8454
  138OSM   C18F15031   0.804   7.059   4.671  0.3867  0.2989  0.1856
  138OSM   H18F15032   0.770   6.972   4.730  0.4398 -1.0746 -1.7238
  138OSM   H18G15033   0.718   7.099   4.612  0.6739  0.3344 -0.2086
  138OSM   H18H15034   0.829   7.146   4.735 -2.3744  2.4152 -1.3496
  139OSM      N15035   4.401   2.730   2.448  0.3594 -0.2518 -0.4587
  139OSM    C1515036   4.479   2.619   2.389 -0.5015  0.5710  0.0962
  139OSM   H15A15037   4.426   2.525   2.402  0.2160  0.1321 -0.1150
  139OSM   H15B15038   4.569   2.603   2.446 -0.8682 -0.0641  0.5122
  139OSM   H15C15039   4.492   2.639   2.284 -1.3738 -0.2897 -0.1871
  139OSM    C1415040   4.356   2.695   2.585 -0.1156  0.3478  0.2385
  139OSM   H14A15041   4.309   2.600   2.567 -0.7769  1.2851 -3.7676
  139OSM   H14B15042   4.279   2.763   2.617 -1.2352 -0.4340 -0.7259
  139OSM   H14C15043   4.436   2.702   2.658  0.9867 -0.7584 -0.8296
  139OSM    C1315044   4.481   2.855   2.457 -0.4504  0.2495  0.4199
  139OSM   H13A15045   4.530   2.888   2.366 -1.0436 -1.3335 -0.5193
  139OSM   H13B15046   4.565   2.839   2.524 -1.3722  2.0036  2.0928
  139OSM   H13C15047   4.419   2.933   2.497 -2.1008 -1.9611  2.4817
  139OSM    C1215048   4.278   2.748   2.366 -0.3953  0.1788  0.0925
  139OSM   H12A15049   4.211   2.664   2.382  0.2538 -0.8695 -2.2345
  139OSM   H12B15050   4.308   2.758   2.263  2.0377  1.7549  0.8685
  139OSM    C1115051   4.203   2.874   2.399  0.2571  0.0124 -0.0469
  139OSM   H11A15052   4.116   2.873   2.330  2.0546  0.7932 -2.4607
  139OSM   H11B15053   4.262   2.966   2.380 -1.3535  1.3942  1.3067
  139OSM      P15054   4.043   3.002   2.549 -0.1188  0.4125 -0.3547
  139OSM    O1315055   4.104   3.131   2.509 -0.0688  0.5731  0.0686
  139OSM    O1415056   3.919   2.972   2.479  0.1596  0.2819 -0.0645
  139OSM    O1115057   4.013   3.006   2.702  0.2084 -0.7104  0.3424
  139OSM    O1215058   4.143   2.881   2.528 -0.3517  0.2263 -0.3239
  139OSM    C1S15059   4.057   2.919   2.801  0.2512 -0.3009  0.1645
  139OSM    H1S15060   4.162   2.947   2.825 -0.2221  0.5794  1.2976
  139OSM    H1T15061   4.054   2.814   2.765 -0.5260 -0.4233  0.5703
  139OSM     NF15062   4.033   2.843   3.034  0.3904  0.1965  0.2714
  139OSM    HNF15063   3.994   2.757   3.065 -1.7186  1.3083  0.8442
  139OSM    C2S15064   3.971   2.917   2.925  0.0745 -0.4767 -0.0331
  139OSM    H2S15065   3.966   3.022   2.961  2.1386 -0.1259 -0.6547
  139OSM    C3S15066   3.821   2.878   2.882 -0.2150  0.1625 -0.4834
  139OSM    H3S15067   3.820   2.782   2.826  2.1726 -0.4837  0.4915
  139OSM     O315068   3.747   2.969   2.804 -0.1678  0.1208 -0.5154
  139OSM    HO315069   3.818   3.015   2.758 -0.0595 -0.4080 -0.8907
  139OSM    C4S15070   3.748   2.844   3.009  0.5155  0.1183  0.7725
  139OSM    H4S15071   3.777   2.749   3.057 -0.3287 -0.0462  0.9770
  139OSM    C5S15072   3.662   2.927   3.073 -0.2890 -0.2299 -0.1720
  139OSM    H5S15073   3.646   3.027   3.030  2.5157  0.4938  0.2249
  139OSM    C6S15074   3.578   2.895   3.194  0.4677 -0.3297  0.5373
  139OSM    H6S15075   3.565   2.785   3.191 -1.0395 -0.1510 -0.1723
  139OSM    H6T15076   3.482   2.947   3.175  1.5002  1.4221 -0.1437
  139OSM    C7S15077   3.639   2.952   3.327 -0.2051 -0.2285 -0.5750
  139OSM    H7S15078   3.562   2.933   3.405 -1.3295  0.6109 -1.4528
  139OSM    H7T15079   3.675   3.056   3.319  0.1176 -0.1640  1.1940
  139OSM    C8S15080   3.757   2.865   3.363 -0.0095 -0.2657 -0.4210
  139OSM    H8S15081   3.836   2.895   3.290  0.2122  1.2418  0.4019
  139OSM    H8T15082   3.740   2.755   3.353  1.1982 -0.6396  1.1575
  139OSM    C9S15083   3.815   2.893   3.500 -0.1499 -0.4977 -0.0155
  139OSM    H9S15084   3.835   3.001   3.513 -2.3417  0.1531 -1.5310
  139OSM    H9T15085   3.918   2.852   3.508 -0.2308 -0.4697  1.4156
  139OSM   C10S15086   3.729   2.856   3.623  0.0598 -0.0132 -0.3303
  139OSM   H10S15087   3.683   2.755   3.612 -0.2599  0.0711  0.1775
  139OSM   H10T15088   3.640   2.923   3.625 -0.1136 -0.1601 -1.8831
  139OSM   C11S15089   3.785   2.891   3.763 -0.2932  0.4547  0.0386
  139OSM   H11S15090   3.813   2.998   3.777  5.1605 -0.9068  2.5053
  139OSM   H11T15091   3.888   2.849   3.761 -0.7268 -0.5822 -0.8845
  139OSM   C12S15092   3.706   2.831   3.878  0.3676 -0.2167  0.5292
  139OSM   H12S15093   3.727   2.722   3.879  4.1300  0.3554 -0.2792
  139OSM   H12T15094   3.598   2.853   3.885  0.5866  1.0844  0.1957
  139OSM   C13S15095   3.758   2.884   4.010  0.3033 -0.4130  0.3891
  139OSM   H13S15096   3.751   2.995   4.017  1.6014 -0.3057  0.2173
  139OSM   H13T15097   3.864   2.852   4.014  1.0490  1.4858 -1.7951
  139OSM   C14S15098   3.682   2.845   4.138 -0.3252  0.0479 -0.7369
  139OSM   H14S15099   3.740   2.771   4.197 -0.6319 -0.3286 -0.9023
  139OSM   H14T15100   3.587   2.795   4.110 -2.1607  1.0027  3.0278
  139OSM   C15S15101   3.665   2.969   4.228  0.0242  0.7930  0.3292
  139OSM   H15S15102   3.576   3.028   4.196 -2.4092 -1.6795  1.9830
  139OSM   H15T15103   3.758   3.029   4.238  1.3876 -0.8910 -1.4764
  139OSM   C16S15104   3.615   2.915   4.364  0.4263 -0.7957 -0.0080
  139OSM   H16S15105   3.527   2.849   4.350  0.3310 -0.3604 -1.6500
  139OSM   H16T15106   3.582   3.004   4.422 -0.5712 -1.7189  0.8805
  139OSM   C17S15107   3.728   2.843   4.445 -0.0028 -0.0705 -0.1898
  139OSM   H17S15108   3.809   2.919   4.446 -1.1122  1.1591  0.6525
  139OSM   H17T15109   3.755   2.742   4.406  0.6027  0.1041 -0.2330
  139OSM   C18S15110   3.665   2.825   4.587  0.1884  0.8322 -0.4593
  139OSM   H18S15111   3.565   2.778   4.586 -0.2336  1.6968 -0.2485
  139OSM   H18T15112   3.650   2.920   4.642 -2.5532 -0.6308  1.5211
  139OSM   H18U15113   3.720   2.750   4.648  0.6634 -0.0500 -1.9224
  139OSM    C1F15114   4.149   2.887   3.089  0.2009  0.3366 -0.4103
  139OSM     OF15115   4.180   3.002   3.073  0.6927  0.1324 -0.5618
  139OSM    C2F15116   4.234   2.787   3.163  0.1480 -1.0938 -0.3875
  139OSM    H2F15117   4.309   2.740   3.095  0.8931  0.9843 -1.0813
  139OSM    H2G15118   4.172   2.702   3.199 -0.6213 -0.3679  0.0296
  139OSM    C3F15119   4.317   2.853   3.274  0.1778  0.1868  0.1623
  139OSM    H3F15120   4.396   2.914   3.224 -1.1069 -0.4802 -2.9518
  139OSM    H3G15121   4.371   2.771   3.326 -0.0791  1.3739  2.4347
  139OSM    C4F15122   4.243   2.937   3.383  0.0867 -0.7628  0.4787
  139OSM    H4F15123   4.132   2.924   3.387 -0.2546  1.9225  2.4745
  139OSM    H4G15124   4.261   3.045   3.369  1.3219 -0.9653  0.4204
  139OSM    C5F15125   4.310   2.896   3.520 -0.0855  0.0621 -0.0837
  139OSM    H5F15126   4.420   2.899   3.506  0.1092 -0.6602  1.1368
  139OSM    H5G15127   4.280   2.789   3.526  0.2045 -0.0726 -1.0308
  139OSM    C6F15128   4.274   2.982   3.637  0.4905 -0.3352 -0.1348
  139OSM    H6F15129   4.163   2.983   3.649  0.3692  0.2030 -1.2181
  139OSM    H6G15130   4.305   3.088   3.626  2.0631 -0.7028  0.4674
  139OSM    C7F15131   4.332   2.923   3.765 -0.8860  0.2305 -0.4936
  139OSM    H7F15132   4.440   2.948   3.763 -0.6708 -0.4731  0.9858
  139OSM    H7G15133   4.337   2.812   3.761 -1.1334  0.2408 -3.0098
  139OSM    C8F15134   4.280   2.981   3.901  0.4200 -0.9510  0.2101
  139OSM    H8F15135   4.301   3.090   3.898  0.2138 -0.6869  3.9140
  139OSM    H8G15136   4.352   2.944   3.978  0.7868 -0.5780  0.0505
  139OSM    C9F15137   4.135   2.977   3.959  0.0507  0.1316 -0.9087
  139OSM    H9F15138   4.052   2.933   3.902 -0.9993  1.5556 -0.5285
  139OSM   C10F15139   4.112   3.028   4.087 -0.1347  0.5548  0.1660
  139OSM   H10F15140   4.007   3.015   4.119  0.1645 -3.3559 -0.0032
  139OSM   C11F15141   4.206   3.089   4.174 -0.5368  0.4907 -0.6101
  139OSM   H11F15142   4.156   3.183   4.204 -1.3361 -0.0867 -0.0949
  139OSM   H11G15143   4.301   3.121   4.125  0.2579  0.1957  0.6799
  139OSM   C12F15144   4.241   2.994   4.292 -0.9383 -0.4052 -0.1644
  139OSM   H12F15145   4.300   2.913   4.246  2.7113  1.4306  0.9475
  139OSM   H12G15146   4.148   2.947   4.331 -0.9772 -0.3209 -0.1534
  139OSM   C13F15147   4.324   3.073   4.396 -0.2962  0.4386  0.0208
  139OSM   H13F15148   4.273   3.169   4.419 -0.9946 -0.3080  1.7746
  139OSM   H13G15149   4.425   3.090   4.352 -1.1573 -0.0688 -2.2512
  139OSM   C14F15150   4.332   3.019   4.548 -0.0044 -0.4869 -0.1947
  139OSM   H14F15151   4.380   2.919   4.554  0.3009 -0.2612  2.1923
  139OSM   H14G15152   4.227   3.028   4.582 -0.1358 -0.5498 -0.5794
  139OSM   C15F15153   4.425   3.112   4.624  0.0309 -0.6790 -0.6191
  139OSM   H15F15154   4.377   3.212   4.621  3.1058  0.9264 -0.9098
  139OSM   H15G15155   4.521   3.116   4.567 -0.7409  0.3107 -1.9001
  139OSM   C16F15156   4.447   3.099   4.778  0.2641 -0.3551  0.6740
  139OSM   H16F15157   4.364   3.042   4.825  0.3765 -1.7541 -0.7610
  139OSM   H16G15158   4.447   3.206   4.807  3.2576  0.7244 -2.6411
  139OSM   C17F15159   4.583   3.037   4.823 -0.1833  0.9404  0.4037
  139OSM   H17F15160   4.593   2.936   4.777  3.3547  1.6665 -0.7613
  139OSM   H17G15161   4.588   3.044   4.934 -0.9401  3.3814  0.3347
  139OSM   C18F15162   4.711   3.111   4.770  0.6944 -0.8672  0.3422
  139OSM   H18F15163   4.721   3.217   4.803  1.3113 -1.5046  2.3423
  139OSM   H18G15164   4.733   3.103   4.661  2.4963  0.5433  0.5485
  139OSM   H18H15165   4.804   3.069   4.813  1.4175  1.8071  1.6240
  140OSM      N15166   1.331   0.629   2.760  0.1324  0.0577  0.6395
  140OSM    C1515167   1.280   0.491   2.746 -0.2527  0.4074  0.2542
  140OSM   H15A15168   1.227   0.478   2.653 -1.7860  0.5250  1.0796
  140OSM   H15B15169   1.211   0.469   2.826  0.0828  3.3708  1.4820
  140OSM   H15C15170   1.364   0.423   2.748  0.6664  1.5118  2.0232
  140OSM    C1415171   1.441   0.655   2.663  0.1260  0.5430  0.4787
  140OSM   H14A15172   1.413   0.644   2.559  1.4391 -1.8684  0.2976
  140OSM   H14B15173   1.522   0.586   2.683  0.0131 -0.2156 -1.4649
  140OSM   H14C15174   1.473   0.758   2.668 -0.9139  0.9294 -0.4584
  140OSM    C1315175   1.225   0.729   2.726 -0.2350  0.0872 -0.2815
  140OSM   H13A15176   1.132   0.716   2.780  0.3123 -1.0305  0.4195
  140OSM   H13B15177   1.218   0.729   2.619  1.7529 -0.3789 -0.4506
  140OSM   H13C15178   1.257   0.827   2.760 -0.2395 -0.0200  0.0352
  140OSM    C1215179   1.382   0.659   2.898 -0.1005 -0.5418  0.0010
  140OSM   H12A15180   1.299   0.651   2.966 -1.3859 -0.5791 -1.5009
  140OSM   H12B15181   1.421   0.759   2.907  0.3103 -0.7624  0.7579
  140OSM    C1115182   1.491   0.555   2.946 -0.0770 -0.3184  0.0143
  140OSM   H11A15183   1.436   0.464   2.979  1.6174 -0.3647  2.9748
  140OSM   H11B15184   1.541   0.596   3.036 -0.3109  1.4395 -0.6155
  140OSM      P15185   1.674   0.384   2.853  0.0130 -0.6216  0.1976
  140OSM    O1315186   1.585   0.273   2.853  0.0451  0.6253  0.1855
  140OSM    O1415187   1.774   0.403   2.748  0.0042  0.6957  0.3541
  140OSM    O1115188   1.751   0.384   2.993  0.4764 -0.6021  0.1275
  140OSM    O1215189   1.598   0.524   2.852  0.2800 -0.4301 -0.5115
  140OSM    C1S15190   1.847   0.488   3.011 -0.0818 -0.1979 -0.5875
  140OSM    H1S15191   1.815   0.587   2.972 -0.8787 -0.6153 -1.0159
  140OSM    H1T15192   1.934   0.466   2.946  0.0253 -0.9475 -0.2048
  140OSM     NF15193   1.955   0.626   3.188 -0.1143 -0.2605 -0.6959
  140OSM    HNF15194   2.052   0.628   3.208 -0.7735  2.8218  3.6118
  140OSM    C2S15195   1.892   0.495   3.162 -0.1369 -0.5717 -0.7147
  140OSM    H2S15196   1.797   0.494   3.219  0.1315  0.8066 -0.2289
  140OSM    C3S15197   1.974   0.369   3.196  0.4193 -0.7569 -0.3424
  140OSM    H3S15198   2.074   0.382   3.149 -0.6826 -0.5862 -2.8054
  140OSM     O315199   1.922   0.245   3.140 -0.6198  0.8703 -0.4805
  140OSM    HO315200   1.854   0.283   3.083  0.7161  0.9620 -2.0987
  140OSM    C4S15201   1.994   0.354   3.348  0.0301 -0.3873 -0.8742
  140OSM    H4S15202   2.074   0.418   3.386  0.7799 -1.1548 -1.1402
  140OSM    C5S15203   1.926   0.285   3.441  0.1750 -0.5351  0.1761
  140OSM    H5S15204   1.832   0.228   3.431 -1.3078  1.4246  2.0683
  140OSM    C6S15205   1.964   0.294   3.582 -0.4978  0.8947 -0.4809
  140OSM    H6S15206   2.016   0.389   3.607  1.2430 -0.1246 -0.0731
  140OSM    H6T15207   2.047   0.222   3.595 -1.5432 -0.2468  0.1446
  140OSM    C7S15208   1.857   0.247   3.677 -0.0481 -0.2567  0.0233
  140OSM    H7S15209   1.829   0.143   3.649 -2.3184  0.2080  0.3532
  140OSM    H7T15210   1.771   0.314   3.652 -1.8041 -2.3925  0.0283
  140OSM    C8S15211   1.893   0.262   3.824  0.3094 -0.4147 -0.4136
  140OSM    H8S15212   1.807   0.257   3.894  1.1010 -3.1079  0.4735
  140OSM    H8T15213   1.930   0.363   3.850  0.5655 -0.9264  1.3561
  140OSM    C9S15214   1.985   0.150   3.879 -0.0809 -0.0909 -0.2548
  140OSM    H9S15215   2.062   0.134   3.801  0.5552 -1.9952  0.6759
  140OSM    H9T15216   1.921   0.059   3.886  1.5332 -1.1495  2.2525
  140OSM   C10S15217   2.047   0.183   4.018 -0.0531  1.0429  0.6772
  140OSM   H10S15218   2.097   0.087   4.040 -1.1316 -0.2988 -2.2094
  140OSM   H10T15219   1.978   0.195   4.104 -0.0072  0.6891  0.7632
  140OSM   C11S15220   2.152   0.296   4.002  0.1257  0.6255 -0.1795
  140OSM   H11S15221   2.108   0.385   3.952  0.0992  0.4292 -0.5072
  140OSM   H11T15222   2.232   0.266   3.931 -1.0317  1.5814 -1.9800
  140OSM   C12S15223   2.226   0.336   4.129  0.4626 -0.0300 -0.0971
  140OSM   H12S15224   2.165   0.394   4.201 -0.8804 -1.4285 -0.0460
  140OSM   H12T15225   2.318   0.394   4.105 -0.2468  0.2080 -2.5441
  140OSM   C13S15226   2.289   0.220   4.206  0.1105  0.2628 -0.0066
  140OSM   H13S15227   2.356   0.171   4.132  0.8087 -0.0481  0.8077
  140OSM   H13T15228   2.216   0.137   4.217 -0.2556  0.5975  0.0862
  140OSM   C14S15229   2.366   0.253   4.335 -0.5332 -0.1945  1.1328
  140OSM   H14S15230   2.293   0.314   4.393  1.5781 -0.3578  4.2335
  140OSM   H14T15231   2.451   0.319   4.308 -1.0472  0.1120  0.2208
  140OSM   C15S15232   2.397   0.137   4.423  0.2121 -0.2855  0.0517
  140OSM   H15S15233   2.486   0.089   4.379 -0.6571 -0.7129 -1.2853
  140OSM   H15T15234   2.318   0.059   4.427  0.5370 -0.6844 -1.0894
  140OSM   C16S15235   2.424   0.172   4.571 -0.2230  0.0565  0.4642
  140OSM   H16S15236   2.343   0.238   4.610  0.6021  1.4470 -0.1110
  140OSM   H16T15237   2.519   0.229   4.577  0.1860 -0.5889  0.1068
  140OSM   C17S15238   2.434   0.056   4.668  0.3333 -0.1497  0.2599
  140OSM   H17S15239   2.510  -0.020   4.640  0.4186  0.7739 -2.3322
  140OSM   H17T15240   2.342  -0.005   4.663 -0.3529  0.7503  1.4004
  140OSM   C18S15241   2.433   0.091   4.817  0.1142 -0.3402 -0.0213
  140OSM   H18S15242   2.533   0.131   4.845  0.0040  0.3688 -0.6047
  140OSM   H18T15243   2.411   0.008   4.887  1.1057 -1.2733 -0.7895
  140OSM   H18U15244   2.366   0.177   4.837  1.1585  0.1143  1.7103
  140OSM    C1F15245   1.900   0.751   3.188  1.0135 -0.3678  0.2615
  140OSM     OF15246   1.777   0.765   3.181 -0.1049  0.0682 -0.3477
  140OSM    C2F15247   1.998   0.862   3.196 -0.0897  0.0357  0.9863
  140OSM    H2F15248   2.065   0.862   3.107 -1.4622  0.6114 -0.0813
  140OSM    H2G15249   2.072   0.837   3.275 -0.6920 -1.3811  1.1200
  140OSM    C3F15250   1.927   1.005   3.195 -0.1359 -0.2658  0.7808
  140OSM    H3F15251   1.856   1.011   3.280 -0.5201  0.7505  0.3939
  140OSM    H3G15252   1.860   1.012   3.107 -1.1706 -0.1758  1.5546
  140OSM    C4F15253   2.024   1.120   3.193  0.2203  0.0264 -0.1407
  140OSM    H4F15254   1.968   1.216   3.188 -0.4645 -0.3907 -0.8409
  140OSM    H4G15255   2.095   1.120   3.107  1.1930  0.4716  0.6344
  140OSM    C5F15256   2.105   1.126   3.325 -0.4268 -0.3552 -0.0350
  140OSM    H5F15257   2.155   1.225   3.324 -1.0201 -0.0434 -1.3108
  140OSM    H5G15258   2.181   1.046   3.316 -1.9793 -1.7320 -1.6593
  140OSM    C6F15259   2.033   1.117   3.461 -0.3251 -0.0355 -0.3454
  140OSM    H6F15260   2.115   1.109   3.535 -0.0325  0.3831 -0.6234
  140OSM    H6G15261   1.965   1.032   3.483 -1.5976  1.2418  0.9004
  140OSM    C7F15262   1.953   1.247   3.500  0.2185  0.0983 -0.5683
  140OSM    H7F15263   1.854   1.242   3.450 -0.6042 -0.2737  1.0195
  140OSM    H7G15264   2.003   1.339   3.462  0.5887 -0.1369 -0.6579
  140OSM    C8F15265   1.912   1.272   3.655  0.4747  0.6198  0.0684
  140OSM    H8F15266   1.849   1.192   3.700  0.0991 -0.8061 -2.7370
  140OSM    H8G15267   1.844   1.360   3.647  0.7212  0.9164  1.1021
  140OSM    C9F15268   2.044   1.295   3.735 -0.1726  0.2442  0.1597
  140OSM    H9F15269   2.113   1.376   3.705  1.4990 -0.5866  1.5550
  140OSM   C10F15270   2.091   1.219   3.833  0.6076 -0.2167  0.0873
  140OSM   H10F15271   2.192   1.247   3.868  0.6050 -1.0368  0.7888
  140OSM   C11F15272   2.027   1.090   3.884 -0.0802 -0.1471 -0.4297
  140OSM   H11F15273   2.052   1.006   3.815  2.2862 -0.9839  1.3034
  140OSM   H11G15274   1.917   1.094   3.899 -0.2876 -0.0936 -1.8199
  140OSM   C12F15275   2.092   1.044   4.019  0.0759 -0.4638 -0.1510
  140OSM   H12F15276   2.191   1.090   4.036 -1.5481  3.7106 -0.7326
  140OSM   H12G15277   2.093   0.933   4.014  0.4623 -0.4538 -0.2917
  140OSM   C13F15278   2.023   1.093   4.146  0.3327 -0.2475 -0.9213
  140OSM   H13F15279   1.930   1.032   4.151  0.0787  0.2300  1.4624
  140OSM   H13G15280   2.000   1.201   4.136  2.9504  0.3095 -1.5195
  140OSM   C14F15281   2.098   1.086   4.286 -0.3675 -0.5845  0.4859
  140OSM   H14F15282   2.162   1.176   4.281 -1.3455  0.0789 -3.3716
  140OSM   H14G15283   2.167   0.998   4.292  0.4850 -0.1293 -1.6452
  140OSM   C15F15284   2.002   1.098   4.406  0.1498 -0.3364  0.5590
  140OSM   H15F15285   1.950   1.000   4.413  0.7995 -0.8619 -1.3797
  140OSM   H15G15286   1.926   1.173   4.376  1.6099  0.8408 -0.3019
  140OSM   C16F15287   2.066   1.126   4.543  0.0086 -0.2367 -0.7113
  140OSM   H16F15288   1.979   1.146   4.608 -0.9095  1.3371 -2.3263
  140OSM   H16G15289   2.123   1.222   4.539 -0.0463 -0.1819 -0.1777
  140OSM   C17F15290   2.159   1.019   4.592  0.6091  0.3860  0.4742
  140OSM   H17F15291   2.229   0.990   4.511  1.5365  2.8500  0.3302
  140OSM   H17G15292   2.091   0.935   4.617  1.0812 -0.0345  0.3710
  140OSM   C18F15293   2.243   1.064   4.709 -0.8168 -0.6105 -0.1102
  140OSM   H18F15294   2.326   0.992   4.729 -0.1433 -0.0291 -0.7516
  140OSM   H18G15295   2.176   1.082   4.796 -1.3635  2.6805 -1.0788
  140OSM   H18H15296   2.296   1.158   4.683  0.8865 -1.4818  0.0571
  141OSM      N15297   2.669   5.917   2.553  0.0312  0.2594  0.3384
  141OSM    C1515298   2.800   5.854   2.564 -0.2456 -0.5215  0.3387
  141OSM   H15A15299   2.876   5.918   2.522  0.8110 -0.6911  1.9130
  141OSM   H15B15300   2.806   5.763   2.506  2.8437 -0.1747 -0.0743
  141OSM   H15C15301   2.838   5.822   2.660  4.1520 -0.2754 -1.0809
  141OSM    C1415302   2.665   6.040   2.642  0.6208 -0.0842  0.2166
  141OSM   H14A15303   2.727   6.120   2.605  0.5881 -0.4420 -0.6253
  141OSM   H14B15304   2.697   6.023   2.744  0.4369  1.3538  0.5348
  141OSM   H14C15305   2.571   6.093   2.647  0.4975 -0.3709  1.1656
  141OSM    C1315306   2.643   5.950   2.403 -0.4606  0.3301  1.0550
  141OSM   H13A15307   2.556   6.015   2.400  0.2835  1.3074 -0.9112
  141OSM   H13B15308   2.628   5.865   2.339 -0.9822  2.2251 -1.5260
  141OSM   H13C15309   2.731   6.006   2.374 -1.4813  1.9114  0.8537
  141OSM    C1215310   2.570   5.811   2.600 -0.6988 -0.1342  0.2354
  141OSM   H12A15311   2.474   5.856   2.623  0.2977  1.6621  1.0905
  141OSM   H12B15312   2.591   5.784   2.703  0.9207  1.2601  0.3179
  141OSM    C1115313   2.552   5.679   2.511 -0.1444 -0.4653 -0.8580
  141OSM   H11A15314   2.541   5.698   2.402 -1.5255 -3.1155 -1.2588
  141OSM   H11B15315   2.454   5.642   2.546 -0.6761  0.6111 -1.1573
  141OSM      P15316   2.673   5.491   2.643  0.0903 -0.2061 -0.3332
  141OSM    O1315317   2.556   5.398   2.646 -0.9430  0.3701 -0.4069
  141OSM    O1415318   2.804   5.425   2.634 -0.3910 -0.2169  0.3031
  141OSM    O1115319   2.674   5.587   2.767  0.1291  0.3148 -0.1451
  141OSM    O1215320   2.666   5.595   2.525 -0.6693 -0.1302 -0.1771
  141OSM    C1S15321   2.592   5.558   2.881  0.4428 -0.3119 -0.8622
  141OSM    H1S15322   2.502   5.497   2.859 -0.0275  0.1151 -0.1641
  141OSM    H1T15323   2.548   5.653   2.918  1.2439  0.2926 -1.4139
  141OSM     NF15324   2.578   5.496   3.109  0.1292  0.9048 -0.5575
  141OSM    HNF15325   2.564   5.565   3.180 -2.6434 -1.9548  2.0393
  141OSM    C2S15326   2.675   5.511   3.004  0.8068  0.5263  0.2352
  141OSM    H2S15327   2.712   5.411   2.972 -0.1972  0.6769 -1.5287
  141OSM    C3S15328   2.791   5.602   3.044 -0.1448 -0.3845  0.0882
  141OSM    H3S15329   2.749   5.703   3.065 -2.5854 -1.1121 -0.9694
  141OSM     O315330   2.883   5.621   2.935  0.0514 -0.0836  0.2220
  141OSM    HO315331   2.841   5.577   2.860  1.0805  0.9883 -1.0491
  141OSM    C4S15332   2.866   5.543   3.161  0.9972 -0.3483 -0.6301
  141OSM    H4S15333   2.890   5.435   3.159 -1.5176 -1.0014  0.5796
  141OSM    C5S15334   2.877   5.607   3.285  0.1539 -0.8426  0.0966
  141OSM    H5S15335   2.857   5.714   3.301 -0.2356 -1.1331  1.6673
  141OSM    C6S15336   2.943   5.531   3.396  0.6486 -0.7548 -0.2722
  141OSM    H6S15337   2.957   5.427   3.361  1.5295 -0.1592 -1.7787
  141OSM    H6T15338   2.877   5.536   3.486 -0.8800 -0.6598 -1.3654
  141OSM    C7S15339   3.083   5.591   3.419 -0.2360  0.4928  0.8168
  141OSM    H7S15340   3.092   5.701   3.430  1.3095  0.2909  1.7349
  141OSM    H7T15341   3.142   5.563   3.329  0.6027  1.0185  1.2007
  141OSM    C8S15342   3.154   5.516   3.533  0.1372  1.0236 -0.2314
  141OSM    H8S15343   3.252   5.566   3.551  0.7122  0.1110 -0.7725
  141OSM    H8T15344   3.170   5.410   3.506 -2.0956  0.4295  0.5951
  141OSM    C9S15345   3.081   5.531   3.668  0.4183 -0.1524  0.2975
  141OSM    H9S15346   2.987   5.471   3.665 -0.0872  0.5778  1.1556
  141OSM    H9T15347   3.046   5.634   3.689  0.5437  0.0069 -0.2615
  141OSM   C10S15348   3.163   5.481   3.786 -0.1736  0.5047 -0.2081
  141OSM   H10S15349   3.248   5.551   3.799 -0.0084  0.0230  1.5838
  141OSM   H10T15350   3.207   5.385   3.751  2.2026  1.5246 -0.1622
  141OSM   C11S15351   3.078   5.468   3.914 -0.2469  0.5494  0.5627
  141OSM   H11S15352   3.013   5.380   3.894  0.6350  0.1569 -0.7276
  141OSM   H11T15353   3.031   5.567   3.933 -2.2879 -0.8327  3.5702
  141OSM   C12S15354   3.158   5.428   4.042 -0.2008 -0.1411 -0.8270
  141OSM   H12S15355   3.227   5.513   4.063 -1.7360  0.9593 -0.0649
  141OSM   H12T15356   3.212   5.331   4.033 -2.0946 -1.1693 -1.6120
  141OSM   C13S15357   3.056   5.410   4.157 -0.0750  0.0142  0.4268
  141OSM   H13S15358   3.005   5.314   4.136  0.3133 -0.0280 -0.3544
  141OSM   H13T15359   2.976   5.487   4.167  0.1663  0.0430  2.4464
  141OSM   C14S15360   3.133   5.410   4.293 -0.2872  0.7688  0.0211
  141OSM   H14S15361   3.193   5.503   4.304  1.2833 -0.3757  1.6365
  141OSM   H14T15362   3.200   5.322   4.298 -2.2990 -0.8615 -0.2336
  141OSM   C15S15363   3.038   5.394   4.414 -0.1169  0.0118  0.0220
  141OSM   H15S15364   3.004   5.288   4.411 -0.1205  0.0250 -1.1509
  141OSM   H15T15365   2.950   5.462   4.406  0.6699  0.8642 -2.7253
  141OSM   C16S15366   3.101   5.392   4.558  0.6063 -0.5036 -0.5949
  141OSM   H16S15367   3.106   5.494   4.601 -0.3499 -0.0581 -1.5131
  141OSM   H16T15368   3.204   5.351   4.548  0.9412 -0.0242  0.6470
  141OSM   C17S15369   3.024   5.288   4.634 -0.1584  0.8886 -0.5399
  141OSM   H17S15370   3.041   5.185   4.596  1.2768  1.0022 -0.2428
  141OSM   H17T15371   2.915   5.298   4.612 -1.1252  0.3310  3.3020
  141OSM   C18S15372   3.041   5.279   4.790 -0.2191  0.3444  0.0118
  141OSM   H18S15373   3.146   5.262   4.820 -0.5517 -2.2295 -0.0470
  141OSM   H18T15374   2.991   5.185   4.823  0.8312 -0.8307 -1.6100
  141OSM   H18U15375   2.988   5.357   4.849  0.8920  1.4841 -0.4574
  141OSM    C1F15376   2.499   5.387   3.124 -0.1084 -0.1551  0.0839
  141OSM     OF15377   2.489   5.312   3.027  0.4568 -0.3006 -0.0495
  141OSM    C2F15378   2.449   5.351   3.259  0.0670  0.3434  0.1369
  141OSM    H2F15379   2.389   5.437   3.297  1.0454  0.4144  1.5767
  141OSM    H2G15380   2.534   5.329   3.327 -1.1781  0.0837  1.6827
  141OSM    C3F15381   2.357   5.225   3.264  0.0077  0.7529  0.1011
  141OSM    H3F15382   2.425   5.141   3.241  1.1078  1.3177  1.1889
  141OSM    H3G15383   2.269   5.222   3.195 -0.5167  2.4637  0.6425
  141OSM    C4F15384   2.299   5.219   3.410  0.3669 -0.3082  0.3873
  141OSM    H4F15385   2.215   5.291   3.422  0.2113  0.2016 -2.7868
  141OSM    H4G15386   2.378   5.225   3.488  2.2322 -3.1033 -1.1272
  141OSM    C5F15387   2.240   5.085   3.449 -0.1694 -0.3573  0.8165
  141OSM    H5F15388   2.179   5.042   3.366  1.6796  1.9763 -1.9426
  141OSM    H5G15389   2.172   5.096   3.536  0.9209 -4.1676  2.3328
  141OSM    C6F15390   2.348   4.978   3.481  0.4043  0.5249 -0.0940
  141OSM    H6F15391   2.425   5.019   3.550  2.0756 -0.9132 -1.0115
  141OSM    H6G15392   2.406   4.951   3.390  0.1849 -0.2930 -0.0056
  141OSM    C7F15393   2.290   4.847   3.529  0.2056 -0.1792  0.2241
  141OSM    H7F15394   2.365   4.767   3.508  1.5460  1.1074 -0.0902
  141OSM    H7G15395   2.209   4.832   3.455 -1.5063 -0.3707  2.0635
  141OSM    C8F15396   2.225   4.857   3.668  0.3453  0.2188  0.4518
  141OSM    H8F15397   2.135   4.792   3.668 -0.6487  1.5579  0.5228
  141OSM    H8G15398   2.181   4.956   3.691 -1.5846 -0.8293  1.5069
  141OSM    C9F15399   2.316   4.805   3.781  0.0912 -0.7655  0.8913
  141OSM    H9F15400   2.410   4.863   3.787  1.1539 -2.5703  2.8535
  141OSM   C10F15401   2.303   4.695   3.865  0.2481  0.2565  0.6374
  141OSM   H10F15402   2.385   4.674   3.936  2.4229  1.4515 -1.3874
  141OSM   C11F15403   2.173   4.624   3.881  0.6407 -0.1344  0.0670
  141OSM   H11F15404   2.187   4.514   3.868 -0.4198 -0.4178  1.1878
  141OSM   H11G15405   2.095   4.648   3.806 -1.3177  1.6289  2.5027
  141OSM   C12F15406   2.110   4.651   4.015  0.3961 -0.6921 -0.1549
  141OSM   H12F15407   2.016   4.593   4.016  0.8737 -1.5135 -1.4046
  141OSM   H12G15408   2.081   4.757   4.029 -0.3941 -1.1560  2.3084
  141OSM   C13F15409   2.183   4.598   4.137 -0.3709 -0.0910  0.5250
  141OSM   H13F15410   2.272   4.660   4.159  1.1670 -1.8094 -0.5388
  141OSM   H13G15411   2.235   4.501   4.122  0.2997 -0.0589  2.4879
  141OSM   C14F15412   2.075   4.587   4.251  0.5205  0.0345 -0.7017
  141OSM   H14F15413   1.997   4.516   4.216 -1.6238  2.1778 -0.4918
  141OSM   H14G15414   2.029   4.685   4.276  0.0165 -0.6370  1.1800
  141OSM   C15F15415   2.127   4.519   4.384  0.2148  0.0343  0.0841
  141OSM   H15F15416   2.174   4.597   4.448 -0.0820 -0.1828  0.5681
  141OSM   H15G15417   2.206   4.444   4.363 -0.8814 -0.8338 -1.0879
  141OSM   C16F15418   2.021   4.455   4.475  0.3232 -0.3187  1.1739
  141OSM   H16F15419   1.944   4.405   4.413  1.6074 -0.3147 -0.5064
  141OSM   H16G15420   1.961   4.532   4.528  2.0346  0.3214  2.2789
  141OSM   C17F15421   2.083   4.366   4.581  0.4473  0.4920  0.0184
  141OSM   H17F15422   2.146   4.296   4.521  0.4828  0.8016 -0.3048
  141OSM   H17G15423   1.995   4.312   4.623 -0.3352 -0.1950 -2.3649
  141OSM   C18F15424   2.175   4.428   4.678 -0.2424 -0.4117 -0.0521
  141OSM   H18F15425   2.261   4.460   4.615 -0.8514 -0.0300 -0.7054
  141OSM   H18G15426   2.200   4.352   4.756 -0.2611 -2.8102 -2.2407
  141OSM   H18H15427   2.129   4.510   4.737 -0.9271 -0.1901 -0.8821
  142OSM      N15428   3.961   0.223   2.714  0.7261 -0.8454 -0.4171
  142OSM    C1515429   3.983   0.082   2.688  0.8475  0.1562  0.0196
  142OSM   H15A15430   3.896   0.023   2.662  0.8165  1.1106 -2.2013
  142OSM   H15B15431   4.038   0.029   2.765  1.4659  2.0447  0.9262
  142OSM   H15C15432   4.055   0.072   2.608 -0.6755 -0.0475 -1.3626
  142OSM    C1415433   3.883   0.241   2.838 -0.0450 -0.6310  0.8113
  142OSM   H14A15434   3.798   0.174   2.840 -0.6948  0.2036  2.0278
  142OSM   H14B15435   3.848   0.343   2.843  1.3136 -0.1533  0.9552
  142OSM   H14C15436   3.946   0.222   2.923  1.0146  2.1832  0.7721
  142OSM    C1315437   4.100   0.288   2.723  0.1191 -0.5321 -0.4573
  142OSM   H13A15438   4.139   0.278   2.823 -2.1171  1.2207  0.6920
  142OSM   H13B15439   4.098   0.396   2.723  3.0983 -0.4030 -0.0937
  142OSM   H13C15440   4.169   0.239   2.656 -0.1584  0.1079 -1.2315
  142OSM    C1215441   3.882   0.284   2.600  0.4222 -0.4497  0.0749
  142OSM   H12A15442   3.780   0.249   2.601  0.2593 -0.1963 -2.5361
  142OSM   H12B15443   3.928   0.255   2.507 -0.2934  0.3485 -0.5351
  142OSM    C1115444   3.882   0.444   2.604 -0.6987 -0.4234 -0.3356
  142OSM   H11A15445   3.972   0.489   2.557 -0.7093 -0.6381 -0.5690
  142OSM   H11B15446   3.885   0.465   2.713  0.5514 -0.1167 -0.4173
  142OSM      P15447   3.759   0.656   2.536  0.2058 -0.0682 -0.0071
  142OSM    O1315448   3.884   0.712   2.489 -0.1477 -0.1853  0.8213
  142OSM    O1415449   3.643   0.690   2.451  0.1795 -0.4087 -0.5924
  142OSM    O1115450   3.731   0.679   2.690  0.3296 -0.5087  0.6602
  142OSM    O1215451   3.758   0.495   2.541 -0.1354  0.1888  0.2064
  142OSM    C1S15452   3.772   0.795   2.760  0.3323  0.0139 -0.5266
  142OSM    H1S15453   3.711   0.884   2.732 -2.8258 -1.3196  1.4467
  142OSM    H1T15454   3.882   0.809   2.755 -0.0474  4.3099 -0.2538
  142OSM     NF15455   3.737   0.904   2.984 -0.1508 -0.1047  0.2965
  142OSM    HNF15456   3.813   0.902   3.049 -0.5157  0.4685  0.7426
  142OSM    C2S15457   3.727   0.775   2.908 -0.0549 -0.5189  0.9692
  142OSM    H2S15458   3.617   0.764   2.898 -0.0330  0.8970 -1.6569
  142OSM    C3S15459   3.784   0.653   2.977 -0.3114  0.5700 -0.7802
  142OSM    H3S15460   3.895   0.666   2.975 -0.2738  1.0966  1.5520
  142OSM     O315461   3.760   0.532   2.907  0.1950 -0.0341  0.3186
  142OSM    HO315462   3.743   0.557   2.816  0.3834 -1.3527 -0.0925
  142OSM    C4S15463   3.749   0.643   3.122 -0.0147  0.0131  0.3415
  142OSM    H4S15464   3.646   0.608   3.137  0.0277 -0.4124 -0.3363
  142OSM    C5S15465   3.836   0.646   3.227 -0.4305  0.0868 -0.1370
  142OSM    H5S15466   3.943   0.669   3.221 -0.0390 -0.1983  3.5135
  142OSM    C6S15467   3.794   0.618   3.371 -1.0967 -0.4882 -0.6149
  142OSM    H6S15468   3.868   0.542   3.404  0.7206  1.4276  0.0361
  142OSM    H6T15469   3.690   0.581   3.373 -2.9534  3.8721 -2.5441
  142OSM    C7S15470   3.801   0.738   3.466 -0.2262  0.2777 -0.4671
  142OSM    H7S15471   3.704   0.792   3.460 -0.0715  0.5119 -0.9874
  142OSM    H7T15472   3.876   0.816   3.440 -1.4176  1.8627  0.6707
  142OSM    C8S15473   3.820   0.698   3.611  0.1593  0.1736 -0.3020
  142OSM    H8S15474   3.921   0.652   3.617  0.4290  0.6900 -0.8005
  142OSM    H8T15475   3.738   0.631   3.643  1.2627 -0.5837  1.0416
  142OSM    C9S15476   3.818   0.807   3.719  0.2981  0.0380 -0.0949
  142OSM    H9S15477   3.726   0.870   3.717  0.0464 -0.3437 -0.9495
  142OSM    H9T15478   3.911   0.868   3.719  0.2637  0.2034  2.6788
  142OSM   C10S15479   3.814   0.744   3.857 -0.1990  0.0317  0.1203
  142OSM   H10S15480   3.873   0.650   3.863 -1.7193 -0.9034  1.4035
  142OSM   H10T15481   3.706   0.723   3.872 -0.4292  0.8785 -0.3027
  142OSM   C11S15482   3.862   0.844   3.966  0.1338  0.2661  0.1958
  142OSM   H11S15483   3.790   0.927   3.953  1.3458  1.1993 -0.8093
  142OSM   H11T15484   3.964   0.880   3.942  0.0411  0.8348  0.6344
  142OSM   C12S15485   3.860   0.783   4.104  0.0770  0.0109 -0.1568
  142OSM   H12S15486   3.937   0.703   4.099  0.9875  0.9019 -0.9180
  142OSM   H12T15487   3.769   0.729   4.137  0.7790  0.1673  2.2198
  142OSM   C13S15488   3.897   0.882   4.216  0.6626 -0.7357  0.4205
  142OSM   H13S15489   3.826   0.968   4.223  1.7585  0.1111  1.4538
  142OSM   H13T15490   3.995   0.928   4.193 -0.6933  1.7355 -0.9006
  142OSM   C14S15491   3.890   0.833   4.359 -0.1311  0.1999  0.2305
  142OSM   H14S15492   3.791   0.788   4.382 -2.4943  4.0181 -1.4685
  142OSM   H14T15493   3.890   0.911   4.438  2.9274 -1.0793  1.6788
  142OSM   C15S15494   4.007   0.745   4.409  0.6108  0.0828  0.0999
  142OSM   H15S15495   4.102   0.788   4.372  1.7600 -0.5893  2.1173
  142OSM   H15T15496   3.989   0.645   4.365  0.5532  0.0993  0.0864
  142OSM   C16S15497   4.026   0.736   4.561 -0.3996  0.2152 -0.2743
  142OSM   H16S15498   3.936   0.704   4.618  0.1117 -0.2313  0.2942
  142OSM   H16T15499   4.057   0.837   4.594 -1.5522  0.9853 -1.4796
  142OSM   C17S15500   4.138   0.634   4.574 -0.1801  0.7898 -0.5698
  142OSM   H17S15501   4.228   0.637   4.509  0.0397 -1.0969 -0.3871
  142OSM   H17T15502   4.099   0.533   4.554 -0.9830  0.6284  1.5851
  142OSM   C18S15503   4.170   0.625   4.718 -0.5291  0.0516 -0.2392
  142OSM   H18S15504   4.223   0.715   4.754  1.8888 -1.5001  0.3383
  142OSM   H18T15505   4.239   0.541   4.742  1.2438  1.9308  1.6407
  142OSM   H18U15506   4.084   0.599   4.783  0.4200  0.0270  1.0555
  142OSM    C1F15507   3.662   1.013   2.975 -0.1621  0.1302 -0.1450
  142OSM     OF15508   3.561   1.018   2.905  0.4213 -0.3021  0.3478
  142OSM    C2F15509   3.713   1.129   3.059 -0.2300  0.2719 -0.9732
  142OSM    H2F15510   3.824   1.117   3.062 -0.0539  1.8631 -0.2128
  142OSM    H2G15511   3.678   1.122   3.164 -1.7119  1.5123 -1.3360
  142OSM    C3F15512   3.679   1.276   3.008  0.2041 -0.3605 -0.5349
  142OSM    H3F15513   3.568   1.279   3.009  0.2120  2.5328  0.6753
  142OSM    H3G15514   3.724   1.290   2.907 -0.0915 -4.5601 -1.4295
  142OSM    C4F15515   3.737   1.393   3.095 -0.1563 -0.5799 -0.3621
  142OSM    H4F15516   3.682   1.398   3.192  0.1698 -0.0693 -0.1989
  142OSM    H4G15517   3.710   1.484   3.038  0.8198 -0.5404 -0.7776
  142OSM    C5F15518   3.888   1.393   3.135  0.0657 -0.0973  0.9207
  142OSM    H5F15519   3.950   1.388   3.044  0.2358  0.6469  0.9938
  142OSM    H5G15520   3.905   1.292   3.177  3.5655  0.1777  0.4822
  142OSM    C6F15521   3.927   1.511   3.224 -0.6001 -0.2117  0.2862
  142OSM    H6F15522   4.036   1.498   3.247 -1.1304 -1.9994  2.1399
  142OSM    H6G15523   3.877   1.498   3.322 -2.3774  0.4885 -0.5023
  142OSM    C7F15524   3.905   1.642   3.154 -0.6005 -0.3829 -0.3522
  142OSM    H7F15525   3.800   1.670   3.133  0.4950  3.0267 -2.0290
  142OSM    H7G15526   3.940   1.629   3.050 -1.9852  1.5136 -1.1062
  142OSM    C8F15527   3.969   1.767   3.220  0.3777 -0.0272 -0.9512
  142OSM    H8F15528   3.941   1.783   3.326 -1.0058  1.4499 -1.5003
  142OSM    H8G15529   3.931   1.857   3.167 -0.8734 -0.0842 -0.1793
  142OSM    C9F15530   4.117   1.770   3.208 -0.1176 -0.0199  1.4214
  142OSM    H9F15531   4.163   1.678   3.169 -1.1307  0.2030 -0.4342
  142OSM   C10F15532   4.190   1.862   3.262 -0.1222  0.0376 -0.8054
  142OSM   H10F15533   4.300   1.864   3.254 -0.0266 -0.1519  0.3261
  142OSM   C11F15534   4.138   1.986   3.337 -0.1952 -0.7483 -0.0371
  142OSM   H11F15535   4.048   2.027   3.287  0.4676  3.3160  1.7443
  142OSM   H11G15536   4.211   2.069   3.321  0.4544 -1.1326  0.8180
  142OSM   C12F15537   4.103   1.973   3.485  0.6866 -0.3945 -0.4414
  142OSM   H12F15538   4.194   1.972   3.548  1.1212  0.8261 -1.0136
  142OSM   H12G15539   4.045   1.882   3.510  0.8406 -0.5569 -0.6670
  142OSM   C13F15540   4.013   2.094   3.538 -0.1186  0.1713 -0.2224
  142OSM   H13F15541   3.933   2.117   3.465 -1.4555 -0.5352  0.9885
  142OSM   H13G15542   4.081   2.181   3.551  0.1311 -0.3622  2.8127
  142OSM   C14F15543   3.946   2.061   3.676 -0.0237  0.2093 -0.1110
  142OSM   H14F15544   3.883   1.969   3.679  1.0063 -0.5357 -0.6604
  142OSM   H14G15545   3.873   2.143   3.692  0.8005  0.7588  0.9723
  142OSM   C15F15546   4.047   2.042   3.788 -0.2871 -0.1153  0.4959
  142OSM   H15F15547   4.127   2.116   3.765  0.8779 -1.2717  0.6788
  142OSM   H15G15548   4.098   1.944   3.784  1.3549  0.6751  1.0477
  142OSM   C16F15549   3.976   2.050   3.922 -0.1974 -0.5168  0.3733
  142OSM   H16F15550   3.933   1.951   3.949 -2.2583  0.7813  2.2134
  142OSM   H16G15551   3.901   2.131   3.906  0.6709  0.2723  0.2700
  142OSM   C17F15552   4.081   2.105   4.033  0.1890 -0.4775  0.3415
  142OSM   H17F15553   4.119   2.203   3.998 -0.8291  0.8637  2.7344
  142OSM   H17G15554   4.171   2.039   4.034 -0.1266 -0.9198  1.4707
  142OSM   C18F15555   4.027   2.117   4.179 -0.1030  0.1410  0.2310
  142OSM   H18F15556   3.989   2.016   4.204  2.3192 -1.4453 -1.9677
  142OSM   H18G15557   3.949   2.197   4.181  1.0340  1.3969 -1.7012
  142OSM   H18H15558   4.109   2.153   4.245 -0.7333  1.7947  0.1709
  143OSM      N15559   3.404   0.456   2.596  0.4091 -0.0071  1.1558
  143OSM    C1515560   3.383   0.597   2.561 -0.2597  0.6894 -0.6165
  143OSM   H15A15561   3.479   0.647   2.554  1.7884 -2.8627 -0.1649
  143OSM   H15B15562   3.332   0.647   2.642 -0.1986  1.3455 -0.9689
  143OSM   H15C15563   3.330   0.603   2.467 -0.7306 -0.0735 -0.3988
  143OSM    C1415564   3.268   0.392   2.603 -0.5523 -0.1912  0.1835
  143OSM   H14A15565   3.285   0.288   2.630 -0.9083 -0.1621  0.5222
  143OSM   H14B15566   3.213   0.408   2.511 -0.7677  1.2525  0.5382
  143OSM   H14C15567   3.207   0.436   2.679 -1.2894 -1.8733  0.6213
  143OSM    C1315568   3.485   0.393   2.484  0.2712  0.0607 -0.4649
  143OSM   H13A15569   3.450   0.428   2.388 -3.5026 -0.5691  0.5319
  143OSM   H13B15570   3.470   0.286   2.493 -1.2927  0.3935  1.7071
  143OSM   H13C15571   3.591   0.411   2.498  0.1319  1.5438 -1.1657
  143OSM    C1215572   3.472   0.442   2.735 -0.3380  0.0157  0.3198
  143OSM   H12A15573   3.424   0.506   2.807 -2.3650 -0.3550 -0.6191
  143OSM   H12B15574   3.577   0.469   2.731  0.0459 -1.4335 -0.0671
  143OSM    C1115575   3.496   0.292   2.786  0.0091  0.4592  0.1214
  143OSM   H11A15576   3.394   0.249   2.795 -0.1470  0.3274 -1.8012
  143OSM   H11B15577   3.546   0.304   2.884  2.3818 -0.7870 -0.8497
  143OSM      P15578   3.563   0.068   2.689 -0.1479  0.1960  0.1078
  143OSM    O1315579   3.426   0.027   2.717  0.9289 -0.2380 -0.3948
  143OSM    O1415580   3.612   0.028   2.553 -0.2994  0.9902 -0.2096
  143OSM    O1115581   3.665   0.020   2.801 -0.1834 -0.0233 -0.1352
  143OSM    O1215582   3.574   0.224   2.692 -0.4174  1.2283  0.3312
  143OSM    C1S15583   3.616   0.020   2.937 -0.1064  0.7062 -0.2705
  143OSM    H1S15584   3.525   0.079   2.960 -0.0586  0.5051  0.4442
  143OSM    H1T15585   3.688   0.066   3.008 -1.0060  2.9138 -0.6902
  143OSM     NF15586   3.553  -0.116   3.142  0.6177  0.5200  0.4250
  143OSM    HNF15587   3.629  -0.103   3.205 -0.2039  0.1333  1.5295
  143OSM    C2S15588   3.589  -0.118   2.999  0.4895  0.9649  0.0328
  143OSM    H2S15589   3.508  -0.172   2.945  1.1185 -0.3919  0.3814
  143OSM    C3S15590   3.720  -0.207   2.971  0.4217  0.0916 -0.7534
  143OSM    H3S15591   3.801  -0.145   3.016 -0.4725  0.4778  0.3923
  143OSM     O315592   3.750  -0.229   2.834  0.2661  0.6010 -0.6572
  143OSM    HO315593   3.698  -0.154   2.804  0.1779  0.4472 -0.8870
  143OSM    C4S15594   3.704  -0.344   3.032 -0.0844 -0.3625  0.3632
  143OSM    H4S15595   3.606  -0.395   3.038  0.3209 -1.0171  2.3019
  143OSM    C5S15596   3.798  -0.403   3.108 -0.1139  0.2536 -0.0270
  143OSM    H5S15597   3.895  -0.362   3.139 -1.2792  1.9648  1.5508
  143OSM    C6S15598   3.767  -0.537   3.176 -0.3998  0.1545  0.0846
  143OSM    H6S15599   3.823  -0.615   3.120  1.7947  2.4151 -1.0987
  143OSM    H6T15600   3.661  -0.570   3.174 -0.0095 -1.5633 -4.0780
  143OSM    C7S15601   3.814  -0.549   3.325 -0.7995  1.1878 -0.5647
  143OSM    H7S15602   3.750  -0.487   3.391 -0.4827  0.2901  0.6237
  143OSM    H7T15603   3.915  -0.508   3.345 -0.7906  0.6870  0.5057
  143OSM    C8S15604   3.804  -0.699   3.367 -0.1944  0.1914  0.2956
  143OSM    H8S15605   3.874  -0.753   3.300  1.4618  2.1882  0.3241
  143OSM    H8T15606   3.699  -0.733   3.354 -0.3166  0.6638  0.0568
  143OSM    C9S15607   3.832  -0.723   3.515 -0.7092 -1.2545  0.2556
  143OSM    H9S15608   3.802  -0.829   3.532 -1.0057 -1.3489 -0.8028
  143OSM    H9T15609   3.770  -0.659   3.581  0.7172  1.1440 -0.5728
  143OSM   C10S15610   3.976  -0.696   3.554 -0.1895 -0.5704  0.0635
  143OSM   H10S15611   4.017  -0.607   3.502 -0.6311 -0.9334 -0.9269
  143OSM   H10T15612   4.033  -0.789   3.532 -1.0237 -0.7123 -1.6304
  143OSM   C11S15613   4.005  -0.682   3.708  0.1982 -0.2609  0.0100
  143OSM   H11S15614   3.992  -0.771   3.772 -1.2681  1.2306  1.9156
  143OSM   H11T15615   3.936  -0.604   3.747 -0.1752  0.0087 -1.1495
  143OSM   C12S15616   4.145  -0.628   3.743 -0.6944 -0.2908 -0.1988
  143OSM   H12S15617   4.174  -0.532   3.693  0.5143 -1.7766 -2.5449
  143OSM   H12T15618   4.212  -0.703   3.696  0.9795  0.5689  0.7255
  143OSM   C13S15619   4.165  -0.626   3.893  0.1857  0.0468 -0.2891
  143OSM   H13S15620   4.268  -0.590   3.910  0.7515 -0.8535 -1.6141
  143OSM   H13T15621   4.168  -0.727   3.939 -0.2646  0.9910  1.9372
  143OSM   C14S15622   4.078  -0.529   3.979  0.3119 -0.5875 -0.1684
  143OSM   H14S15623   3.971  -0.550   3.960  0.5518 -0.7577 -1.4549
  143OSM   H14T15624   4.092  -0.429   3.933  0.3803 -1.4612 -2.1732
  143OSM   C15S15625   4.094  -0.541   4.130  0.2649 -0.7584  0.2992
  143OSM   H15S15626   4.094  -0.649   4.155 -0.1054 -0.7175  0.4937
  143OSM   H15T15627   4.007  -0.501   4.187  1.0383 -0.4311  1.2748
  143OSM   C16S15628   4.226  -0.470   4.174 -0.8217  0.2471  0.3600
  143OSM   H16S15629   4.176  -0.374   4.197 -0.5275  0.8903 -1.5569
  143OSM   H16T15630   4.307  -0.448   4.101 -0.0537 -0.1745  1.0625
  143OSM   C17S15631   4.281  -0.515   4.312  0.1945 -0.5144  0.3988
  143OSM   H17S15632   4.347  -0.438   4.357 -0.5512  0.1181  0.4132
  143OSM   H17T15633   4.334  -0.613   4.306  0.1045 -0.6714  1.7553
  143OSM   C18S15634   4.158  -0.530   4.411  0.9299  0.6497 -0.4015
  143OSM   H18S15635   4.072  -0.578   4.361  0.7986 -1.2417  1.5212
  143OSM   H18T15636   4.129  -0.433   4.456 -1.8075 -1.2165  2.2774
  143OSM   H18U15637   4.197  -0.593   4.494  0.3929 -0.4918 -0.9906
  143OSM    C1F15638   3.435  -0.070   3.179  0.6622 -1.0178 -0.4644
  143OSM     OF15639   3.349  -0.063   3.091 -0.1047  0.3549  0.4736
  143OSM    C2F15640   3.412  -0.012   3.318  0.0520 -0.4240 -0.1986
  143OSM    H2F15641   3.453   0.091   3.315 -3.3289  1.0329 -2.6214
  143OSM    H2G15642   3.456  -0.073   3.400 -0.2306  1.4437  1.4362
  143OSM    C3F15643   3.261  -0.015   3.347  0.0963 -0.0308  0.2451
  143OSM    H3F15644   3.226  -0.120   3.343  0.2043 -0.0413 -0.8152
  143OSM    H3G15645   3.216   0.038   3.260  1.7735 -0.6676 -1.0808
  143OSM    C4F15646   3.220   0.048   3.486 -0.9969  0.3406  0.4454
  143OSM    H4F15647   3.109   0.052   3.490 -1.0699 -1.8899  2.3144
  143OSM    H4G15648   3.269   0.148   3.493 -0.4145  0.1055 -0.1138
  143OSM    C5F15649   3.273  -0.046   3.594  0.0176 -0.4055 -0.0298
  143OSM    H5F15650   3.383  -0.043   3.602  0.1171 -1.8804 -0.5774
  143OSM    H5G15651   3.249  -0.147   3.553  0.3830 -0.6673  0.3931
  143OSM    C6F15652   3.210  -0.010   3.731 -0.1590  0.2214  0.6846
  143OSM    H6F15653   3.100  -0.010   3.722 -0.3992 -2.8290  2.3498
  143OSM    H6G15654   3.241   0.092   3.760 -1.6615  0.9627 -0.2124
  143OSM    C7F15655   3.241  -0.110   3.840  0.1905 -0.3083 -0.6935
  143OSM    H7F15656   3.249  -0.207   3.787 -0.9491 -0.3087 -0.8850
  143OSM    H7G15657   3.154  -0.109   3.909  1.5699  1.3547  1.1842
  143OSM    C8F15658   3.374  -0.074   3.924  0.0055 -0.4090 -0.4727
  143OSM    H8F15659   3.454  -0.043   3.853  1.1709 -1.6273  0.2619
  143OSM    H8G15660   3.409  -0.162   3.982  2.1303  0.9142  0.3927
  143OSM    C9F15661   3.339   0.043   4.020 -0.2965  0.7116  1.1209
  143OSM    H9F15662   3.274   0.118   3.973  1.9613  1.4142 -1.1103
  143OSM   C10F15663   3.376   0.048   4.148  0.0895 -0.1894  0.7225
  143OSM   H10F15664   3.352   0.147   4.187 -0.2022  0.4044 -0.8759
  143OSM   C11F15665   3.469  -0.049   4.218  0.7191  0.0127  0.0315
  143OSM   H11F15666   3.546  -0.088   4.148  2.0283  0.0538  1.4169
  143OSM   H11G15667   3.399  -0.130   4.250 -0.5880  0.5088 -1.4116
  143OSM   C12F15668   3.531   0.019   4.343 -0.6072 -0.2719  1.0210
  143OSM   H12F15669   3.557   0.125   4.325 -2.8700  0.4815  1.8756
  143OSM   H12G15670   3.620  -0.038   4.376 -1.0239 -0.3371  2.0684
  143OSM   C13F15671   3.436   0.019   4.461  0.3189  0.2788 -0.7165
  143OSM   H13F15672   3.334  -0.020   4.437  0.8149 -0.6562 -1.3649
  143OSM   H13G15673   3.435   0.122   4.503 -0.4459  0.3042 -0.7805
  143OSM   C14F15674   3.495  -0.074   4.566 -0.6363 -0.1439 -0.1153
  143OSM   H14F15675   3.598  -0.035   4.582 -1.0662  1.4803 -1.0363
  143OSM   H14G15676   3.519  -0.176   4.529  1.1594 -0.3849  1.5685
  143OSM   C15F15677   3.417  -0.083   4.701  0.1225 -0.1338 -0.4510
  143OSM   H15F15678   3.390   0.016   4.743 -1.3437 -0.5621 -0.3218
  143OSM   H15G15679   3.478  -0.131   4.780 -1.6984 -0.2646  0.9440
  143OSM   C16F15680   3.284  -0.157   4.693 -0.2282  1.0468  0.6127
  143OSM   H16F15681   3.311  -0.264   4.682  0.6719  1.4586 -1.7569
  143OSM   H16G15682   3.217  -0.131   4.608 -0.8880  0.6320  0.9885
  143OSM   C17F15683   3.211  -0.131   4.823 -0.4354 -0.9998 -0.3287
  143OSM   H17F15684   3.172  -0.028   4.810  2.2015  0.1331  0.2438
  143OSM   H17G15685   3.277  -0.124   4.911 -0.2184  4.4427 -0.6291
  143OSM   C18F15686   3.091  -0.222   4.848  0.1851  0.6627  0.3790
  143OSM   H18F15687   3.133  -0.316   4.889  3.9522  2.6317  1.5323
  143OSM   H18G15688   3.036  -0.255   4.757 -2.3039 -0.8785  2.3239
  143OSM   H18H15689   3.028  -0.166   4.921 -1.8602 -2.0069  0.8348
  144OSM      N15690   1.432   6.168   2.916 -0.9733 -0.5114  0.2081
  144OSM    C1515691   1.419   6.229   2.782  0.4093  0.0822  0.9791
  144OSM   H15A15692   1.505   6.212   2.719 -0.1394 -0.7339  0.4494
  144OSM   H15B15693   1.421   6.337   2.796  1.0265  0.4289 -1.3532
  144OSM   H15C15694   1.323   6.210   2.738  1.5325 -0.1813 -1.5159
  144OSM    C1415695   1.303   6.181   2.988  0.2496 -0.2206 -0.3709
  144OSM   H14A15696   1.282   6.287   2.986  5.0378  0.9706  0.1547
  144OSM   H14B15697   1.308   6.153   3.093  0.0827 -1.6989 -0.7328
  144OSM   H14C15698   1.225   6.128   2.935  0.4946  0.4153 -1.3999
  144OSM    C1315699   1.471   6.029   2.920 -0.2972  0.2023 -0.1453
  144OSM   H13A15700   1.478   6.001   3.024 -0.5850  0.3770 -0.0757
  144OSM   H13B15701   1.563   6.007   2.869 -0.1825 -1.3954  0.6961
  144OSM   H13C15702   1.403   5.958   2.876 -1.0725  1.5676 -1.2314
  144OSM    C1215703   1.531   6.247   2.998 -0.4103 -0.2972  0.4181
  144OSM   H12A15704   1.628   6.228   2.955 -0.7335  1.6042 -1.3052
  144OSM   H12B15705   1.530   6.216   3.102 -1.6211 -2.3753 -0.1525
  144OSM    C1115706   1.513   6.406   2.994 -0.1088  0.3082 -0.3163
  144OSM   H11A15707   1.548   6.450   3.090  1.3544 -2.1013  0.3502
  144OSM   H11B15708   1.406   6.433   2.979 -0.0167  0.6385 -0.3866
  144OSM      P15709   1.748   6.461   2.877  0.2605  0.1831  0.4903
  144OSM    O1315710   1.805   6.327   2.901 -0.1021  0.0543 -0.2958
  144OSM    O1415711   1.787   6.536   2.753  0.2077  0.0386 -0.5796
  144OSM    O1115712   1.789   6.535   3.009  0.1600 -0.0208  0.4161
  144OSM    O1215713   1.589   6.465   2.886  0.0522 -0.5001  0.5569
  144OSM    C1S15714   1.755   6.667   3.041  0.0850 -0.3990  0.2772
  144OSM    H1S15715   1.645   6.675   3.026  0.1318  0.0534  0.1655
  144OSM    H1T15716   1.817   6.741   2.987  0.3450  1.2135  2.6055
  144OSM     NF15717   1.736   6.839   3.206 -0.3641  0.0515  0.7898
  144OSM    HNF15718   1.801   6.913   3.190 -2.2404  2.0767  1.9984
  144OSM    C2S15719   1.783   6.704   3.183 -0.1323 -0.3243 -0.3029
  144OSM    H2S15720   1.727   6.635   3.250  0.9263 -0.4479  0.4762
  144OSM    C3S15721   1.935   6.696   3.207 -0.4042  0.1031  0.2059
  144OSM    H3S15722   1.973   6.763   3.127  0.6361 -1.0898 -0.3411
  144OSM     O315723   1.998   6.572   3.177 -0.0190  0.7876  0.3026
  144OSM    HO315724   1.928   6.534   3.123 -0.3059 -1.1430  1.8742
  144OSM    C4S15725   1.984   6.753   3.337 -0.3745  0.4687  0.8120
  144OSM    H4S15726   2.025   6.853   3.315  0.9616  0.1063  1.5781
  144OSM    C5S15727   1.998   6.689   3.451  0.3421 -0.3803 -0.0791
  144OSM    H5S15728   1.962   6.586   3.454 -2.1981  0.2574 -2.8566
  144OSM    C6S15729   2.067   6.754   3.567 -0.2128  0.0665 -0.0988
  144OSM    H6S15730   1.998   6.767   3.653 -2.0069 -0.9585 -1.3197
  144OSM    H6T15731   2.111   6.852   3.540 -0.4609  0.7479  1.8150
  144OSM    C7S15732   2.177   6.661   3.630  0.0315 -0.4422 -0.3474
  144OSM    H7S15733   2.259   6.635   3.559  0.1424 -0.5689 -0.1742
  144OSM    H7T15734   2.128   6.566   3.661 -1.1338  0.0991 -0.4813
  144OSM    C8S15735   2.239   6.734   3.755  0.5257  0.4558  0.2164
  144OSM    H8S15736   2.152   6.741   3.823 -0.3920 -1.3352 -0.6981
  144OSM    H8T15737   2.285   6.832   3.732 -0.4076  0.5597 -1.3391
  144OSM    C9S15738   2.338   6.642   3.819  0.0290 -0.8481 -0.1358
  144OSM    H9S15739   2.434   6.633   3.763  0.3090 -1.8155  0.4696
  144OSM    H9T15740   2.290   6.543   3.832 -2.0502  0.1781  0.4097
  144OSM   C10S15741   2.368   6.681   3.968  1.0955 -0.4450 -0.3879
  144OSM   H10S15742   2.265   6.665   4.007  1.0928 -0.0268 -0.2205
  144OSM   H10T15743   2.387   6.790   3.970  0.3759 -0.3251  0.6321
  144OSM   C11S15744   2.484   6.599   4.030 -0.2252 -0.1165 -0.2529
  144OSM   H11S15745   2.567   6.608   3.957  0.4656  0.0424  0.5273
  144OSM   H11T15746   2.443   6.496   4.032 -2.5418  0.7423 -0.3122
  144OSM   C12S15747   2.522   6.626   4.174  0.2692 -0.0869 -0.7974
  144OSM   H12S15748   2.510   6.733   4.201  0.7687 -0.5737  1.5338
  144OSM   H12T15749   2.628   6.595   4.183 -0.2139 -1.1977  2.0555
  144OSM   C13S15750   2.437   6.551   4.286  0.9227  0.2394 -0.0897
  144OSM   H13S15751   2.423   6.444   4.259  1.0728  0.7028 -2.1939
  144OSM   H13T15752   2.332   6.588   4.291  0.4017 -1.2678  0.4674
  144OSM   C14S15753   2.498   6.554   4.430 -0.0290  0.0189 -0.0496
  144OSM   H14S15754   2.432   6.488   4.490  0.8945 -1.2222 -0.3649
  144OSM   H14T15755   2.513   6.656   4.472  1.6550 -0.4227  0.4920
  144OSM   C15S15756   2.635   6.495   4.458  0.1766  0.3641  0.1181
  144OSM   H15S15757   2.710   6.570   4.425  1.1292 -0.4199  0.4500
  144OSM   H15T15758   2.661   6.403   4.401 -0.3178  0.1756  0.1992
  144OSM   C16S15759   2.657   6.459   4.607 -0.9422  0.8241  0.7036
  144OSM   H16S15760   2.593   6.518   4.676 -0.3856  2.2885  0.0204
  144OSM   H16T15761   2.763   6.465   4.639 -0.8225 -2.3258  1.2231
  144OSM   C17S15762   2.632   6.309   4.630  0.6679  0.0695  0.0278
  144OSM   H17S15763   2.617   6.264   4.529  0.6670  2.7052 -1.2167
  144OSM   H17T15764   2.539   6.288   4.687 -0.4045 -1.8354 -2.2643
  144OSM   C18S15765   2.745   6.228   4.684  0.1199 -0.1076  0.2606
  144OSM   H18S15766   2.818   6.214   4.601  0.0373  0.2944  0.1168
  144OSM   H18T15767   2.720   6.129   4.728 -0.2396 -0.4179 -0.6240
  144OSM   H18U15768   2.811   6.279   4.758  0.1015  0.4409 -0.0977
  144OSM    C1F15769   1.608   6.870   3.219 -0.1538  0.6758 -0.7555
  144OSM     OF15770   1.530   6.776   3.219  0.7227  0.2177  0.2218
  144OSM    C2F15771   1.583   7.017   3.227  0.7377 -0.2722  0.3893
  144OSM    H2F15772   1.554   7.049   3.125  0.9504 -0.0490  0.3964
  144OSM    H2G15773   1.668   7.079   3.265  0.9569  0.2080 -0.8598
  144OSM    C3F15774   1.466   7.037   3.338 -0.6385  0.3090 -0.6122
  144OSM    H3F15775   1.379   6.968   3.327 -0.2922 -0.5324  1.5060
  144OSM    H3G15776   1.433   7.143   3.337  0.9639  0.8903  1.4120
  144OSM    C4F15777   1.528   7.016   3.477 -0.6628 -0.7968  0.7567
  144OSM    H4F15778   1.616   7.080   3.501 -0.3065 -0.4426 -1.3296
  144OSM    H4G15779   1.570   6.914   3.477 -1.9073 -1.3326  1.3402
  144OSM    C5F15780   1.417   7.030   3.585  1.1627 -0.7606  0.1514
  144OSM    H5F15781   1.329   6.965   3.566  0.2967 -0.1054  1.7437
  144OSM    H5G15782   1.393   7.138   3.586  0.7222 -0.7785 -2.2657
  144OSM    C6F15783   1.469   6.985   3.725 -0.1908  0.1400  0.5244
  144OSM    H6F15784   1.574   7.018   3.737  0.2732 -0.5514 -1.2636
  144OSM    H6G15785   1.473   6.874   3.718 -2.0171  0.1145 -0.8394
  144OSM    C7F15786   1.368   7.033   3.830 -0.8227 -0.0892 -0.2905
  144OSM    H7F15787   1.265   7.009   3.796 -1.3617 -1.0502  1.8662
  144OSM    H7G15788   1.372   7.144   3.835  0.1819 -0.1305 -0.0007
  144OSM    C8F15789   1.409   6.961   3.959  0.6456  0.1165 -0.6950
  144OSM    H8F15790   1.388   6.853   3.946 -1.0355  0.1954  0.9294
  144OSM    H8G15791   1.339   7.005   4.033  1.3968  1.4977 -0.7733
  144OSM    C9F15792   1.546   6.980   4.018  0.9709 -0.2248 -0.5973
  144OSM    H9F15793   1.583   7.083   4.010 -2.4664  1.2640  0.8414
  144OSM   C10F15794   1.607   6.895   4.109  0.7382  0.4463  0.6678
  144OSM   H10F15795   1.703   6.932   4.148  0.3345  1.6734  0.5554
  144OSM   C11F15796   1.571   6.756   4.153  0.3548  0.6815 -0.5283
  144OSM   H11F15797   1.668   6.701   4.156  0.4347  0.8460  0.0109
  144OSM   H11G15798   1.502   6.709   4.081 -1.8566  1.4428  1.0015
  144OSM   C12F15799   1.497   6.741   4.281 -0.5030  0.0041 -0.7425
  144OSM   H12F15800   1.407   6.806   4.286 -0.1533  0.5505 -1.4600
  144OSM   H12G15801   1.577   6.761   4.356  0.4109 -0.8916 -1.4454
  144OSM   C13F15802   1.439   6.597   4.305  0.4016  0.9918  0.4964
  144OSM   H13F15803   1.516   6.523   4.274 -0.2053  0.2727  0.6547
  144OSM   H13G15804   1.356   6.565   4.238  2.0154 -1.3253 -0.5084
  144OSM   C14F15805   1.399   6.576   4.452  0.2678 -0.3764 -0.5909
  144OSM   H14F15806   1.335   6.486   4.458 -0.9476  0.5610  2.1028
  144OSM   H14G15807   1.336   6.658   4.492  0.8499 -0.8540  1.3932
  144OSM   C15F15808   1.524   6.557   4.549 -0.1636 -0.8111  0.5861
  144OSM   H15F15809   1.596   6.640   4.536  0.5605 -1.7553 -2.1472
  144OSM   H15G15810   1.581   6.464   4.524  0.0752 -0.5775  0.2634
  144OSM   C16F15811   1.473   6.567   4.697  0.3887  0.2426  0.3983
  144OSM   H16F15812   1.415   6.475   4.719  1.3600 -0.7903 -1.1530
  144OSM   H16G15813   1.408   6.657   4.699  0.3593  0.3064 -1.4171
  144OSM   C17F15814   1.583   6.577   4.791  0.1308  0.2656  0.5624
  144OSM   H17F15815   1.660   6.509   4.749 -0.9046 -0.9725  0.5943
  144OSM   H17G15816   1.560   6.525   4.887 -0.9529 -0.1620  0.0940
  144OSM   C18F15817   1.631   6.717   4.811 -0.4560 -0.2263  0.5053
  144OSM   H18F15818   1.549   6.784   4.846 -0.5498 -1.1940  2.2223
  144OSM   H18G15819   1.663   6.759   4.713 -1.2892  0.4637  0.5209
  144OSM   H18H15820   1.717   6.730   4.881 -1.2228 -0.6391  1.5420
  145SAPE     N15821   3.990   2.501   7.211 -0.1945 -0.9315  0.1415
  145SAPE   HN115822   3.990   2.512   7.314 -0.2199 -1.8330  0.2463
  145SAPE   HN215823   4.085   2.536   7.189 -1.1263  1.6068 -0.1056
  145SAPE   HN315824   3.921   2.571   7.175  0.0938  1.3528  3.6034
  145SAPE   C1215825   3.960   2.361   7.161 -0.0532 -0.1264  0.0349
  145SAPE  H12A15826   4.050   2.331   7.103  0.6458 -0.7125  1.3930
  145SAPE  H12B15827   3.867   2.369   7.100  1.5934  0.9588 -2.5147
  145SAPE   C1115828   3.950   2.266   7.279  1.1295  0.6973 -0.5471
  145SAPE  H11A15829   3.883   2.299   7.362  1.5643 -1.3922  0.7038
  145SAPE  H11B15830   4.050   2.251   7.326  0.8145  0.9446  0.2252
  145SAPE     P15831   3.970   2.016   7.189 -0.6393 -0.4482  0.3843
  145SAPE   O1315832   4.086   2.024   7.277  0.3900  0.1897 -0.0201
  145SAPE   O1415833   3.893   1.892   7.166  0.3969  0.0425 -0.5633
  145SAPE   O1215834   3.888   2.143   7.236  0.7918  0.0044  0.2714
  145SAPE   O1115835   4.028   2.068   7.044  0.1997  0.5244 -0.2918
  145SAPE    C115836   3.932   2.101   6.942  0.5412 -0.8464 -0.3295
  145SAPE    HA15837   3.825   2.086   6.965 -0.0496 -2.1158 -3.3957
  145SAPE    HB15838   3.942   2.210   6.923  3.2594 -0.8999  0.3000
  145SAPE    C215839   3.953   2.017   6.815 -0.8161  0.0516  0.6305
  145SAPE    HS15840   3.921   1.916   6.848  0.1741 -0.1004  1.1701
  145SAPE   O2115841   4.096   2.025   6.783  0.1701 -0.2976  0.5594
  145SAPE   C2115842   4.127   1.918   6.702 -0.1115 -0.3660 -0.8796
  145SAPE   O2215843   4.060   1.816   6.681 -0.4178 -0.1880  0.5724
  145SAPE   C2215844   4.252   1.959   6.630  0.0470  0.3958  0.6315
  145SAPE   H2R15845   4.286   2.062   6.650  3.1859  0.3366 -3.1627
  145SAPE   H2S15846   4.318   1.890   6.686  0.7447  0.5456  0.0057
  145SAPE    C315847   3.868   2.061   6.690  0.0626 -0.4175 -0.1538
  145SAPE    HX15848   3.759   2.057   6.712 -0.0421  0.4390 -0.4607
  145SAPE    HY15849   3.888   1.978   6.620  1.4973 -0.6814  0.5488
  145SAPE   O3115850   3.908   2.182   6.620  0.4475  0.1934 -0.9576
  145SAPE   C3115851   3.821   2.257   6.568  0.2345 -0.2652  0.3655
  145SAPE   O3215852   3.702   2.246   6.570  0.4656  0.1135  0.2229
  145SAPE   C3215853   3.894   2.360   6.482 -0.2010  0.0857  0.1831
  145SAPE   H2X15854   3.999   2.325   6.477 -0.0742  0.5078 -0.1218
  145SAPE   H2Y15855   3.893   2.457   6.536 -0.5580  0.0294  0.2848
  145SAPE   C2315856   4.240   1.940   6.475  0.5887  0.0009  0.0321
  145SAPE   H3R15857   4.190   1.844   6.451 -1.8825  0.9224  1.1386
  145SAPE   H3S15858   4.345   1.942   6.438  0.7118  0.2143  0.3772
  145SAPE   C2415859   4.167   2.059   6.406  0.0767 -0.5655  0.7293
  145SAPE   H4R15860   4.071   2.069   6.462  0.7924  0.0367  1.8770
  145SAPE   H4S15861   4.133   2.036   6.303  0.0089  1.7750  0.1634
  145SAPE   C2515862   4.253   2.190   6.395  0.4834 -0.7992  0.0035
  145SAPE   H5R15863   4.264   2.226   6.498 -2.5872 -1.4898  0.6569
  145SAPE   C2615864   4.287   2.256   6.279 -0.1859  0.7692 -0.0969
  145SAPE   H6R15865   4.364   2.333   6.293  0.6425 -0.0023 -0.2889
  145SAPE   C2715866   4.247   2.191   6.146 -0.0752  0.3695  0.0608
  145SAPE   H7R15867   4.142   2.156   6.144  0.1125 -0.2523  0.6582
  145SAPE   H7S15868   4.311   2.101   6.134 -0.6664 -0.3812  2.0438
  145SAPE   C2815869   4.270   2.283   6.032 -0.1703  0.5137  0.9589
  145SAPE   H8R15870   4.331   2.373   6.053 -0.8718  0.6054  2.8315
  145SAPE   C2915871   4.240   2.260   5.899  0.6555 -0.5641 -0.2082
  145SAPE   H9R15872   4.265   2.346   5.835 -1.0010 -0.0699 -0.2398
  145SAPE  C21015873   4.171   2.145   5.838  0.3294  0.3616  0.1912
  145SAPE  H10R15874   4.090   2.179   5.770  1.3844  0.5574 -1.0099
  145SAPE  H10S15875   4.119   2.083   5.913 -3.1136  2.1377 -0.4985
  145SAPE  C21115876   4.280   2.066   5.768  0.3664  0.8754 -0.3183
  145SAPE  H11R15877   4.372   2.062   5.828  1.1787 -0.9374 -1.6006
  145SAPE  C21215878   4.261   1.999   5.654 -0.1793  0.1876  0.1493
  145SAPE  H12R15879   4.338   1.928   5.619 -0.6474  0.6326 -1.8670
  145SAPE  C21315880   4.137   1.996   5.579  0.4981  0.2477 -0.8438
  145SAPE  H13R15881   4.130   2.091   5.523 -0.7074  0.0709 -1.0151
  145SAPE  H13S15882   4.060   1.994   5.659  1.5159 -1.2016  0.1468
  145SAPE  C21415883   4.124   1.883   5.481  0.1259  0.2628 -0.4076
  145SAPE  H14R15884   4.155   1.914   5.380  2.5197  1.1565  0.5193
  145SAPE  C21515885   4.071   1.759   5.506 -0.4573  0.4188 -0.1811
  145SAPE  H15R15886   4.037   1.709   5.414  1.5536 -1.0152 -0.1968
  145SAPE  C21615887   4.028   1.704   5.642  0.6045  1.0469 -0.0582
  145SAPE  H16R15888   4.027   1.787   5.716 -2.4826 -1.5133  3.1104
  145SAPE  H16S15889   4.092   1.620   5.677  0.1070 -0.1914 -1.9716
  145SAPE  C21715890   3.889   1.636   5.638  0.4115 -0.8613 -0.1169
  145SAPE  H17R15891   3.910   1.534   5.602  0.2969 -0.7366 -0.5380
  145SAPE  H17S15892   3.821   1.687   5.567  1.6056  0.0611 -0.6244
  145SAPE  C21815893   3.822   1.628   5.776 -0.0401  0.6480 -0.1604
  145SAPE  H18R15894   3.832   1.725   5.830  2.5538 -0.4132  1.4413
  145SAPE  H18S15895   3.867   1.560   5.852 -1.8327 -2.4592 -1.6800
  145SAPE  C21915896   3.672   1.583   5.769 -0.2940 -0.1051 -0.3251
  145SAPE  H19R15897   3.672   1.475   5.742 -0.6637 -1.0402  2.9726
  145SAPE  H19S15898   3.623   1.641   5.688  0.9480 -1.1077 -1.8680
  145SAPE  C22015899   3.591   1.579   5.900 -0.1704 -0.4134 -0.0997
  145SAPE  H20R15900   3.631   1.520   5.985  0.7218  0.1354 -0.1266
  145SAPE  H20S15901   3.491   1.540   5.872 -0.6409  1.2612 -0.8973
  145SAPE  H20T15902   3.571   1.682   5.937  1.0362 -0.6015  1.1657
  145SAPE   C3315903   3.845   2.367   6.340  0.0846  0.3468 -0.3765
  145SAPE   H3X15904   3.910   2.439   6.287  0.8690 -0.2352 -0.2250
  145SAPE   H3Y15905   3.739   2.400   6.339 -0.0486  0.0650  1.3783
  145SAPE   C3415906   3.850   2.235   6.265 -0.1617 -0.1880  0.0164
  145SAPE   H4X15907   3.809   2.147   6.319 -1.0577  0.6467  0.7192
  145SAPE   H4Y15908   3.955   2.204   6.248 -0.4300 -0.8560 -0.4859
  145SAPE   C3515909   3.762   2.241   6.145  0.5372  0.3880 -0.0737
  145SAPE   H5X15910   3.791   2.325   6.079 -1.5073  1.4074  0.2185
  145SAPE   H5Y15911   3.658   2.258   6.182 -0.0073  0.1277 -1.4233
  145SAPE   C3615912   3.768   2.104   6.069 -0.4937  0.4132  0.6000
  145SAPE   H6X15913   3.710   2.030   6.127 -0.5643 -1.7774 -2.0576
  145SAPE   H6Y15914   3.873   2.067   6.070 -0.1956  1.2132  0.1694
  145SAPE   C3715915   3.716   2.123   5.920  0.0593  0.9538 -0.7356
  145SAPE   H7X15916   3.807   2.160   5.870  1.1227  1.7261  1.6186
  145SAPE   H7Y15917   3.637   2.201   5.911  1.1590  2.0819 -0.9639
  145SAPE   C3815918   3.663   1.996   5.851  0.1384  0.1153 -0.1609
  145SAPE   H8X15919   3.580   1.951   5.909 -0.8300  0.4038 -1.2743
  145SAPE   H8Y15920   3.749   1.926   5.850  0.1461  0.1247 -0.4808
  145SAPE   C3915921   3.624   2.024   5.707  0.8318 -0.0464 -0.8868
  145SAPE   H9X15922   3.555   2.111   5.701 -1.6798 -1.9391 -1.1105
  145SAPE   H9Y15923   3.557   1.942   5.672 -1.8737  2.6897 -2.6003
  145SAPE  C31015924   3.737   2.036   5.603  0.8228 -0.6032 -0.3012
  145SAPE  H10X15925   3.813   1.956   5.612  1.2658  0.0653  3.8945
  145SAPE  H10Y15926   3.812   2.114   5.629  0.3172 -0.2418  0.0893
  145SAPE  C31115927   3.674   2.053   5.460  0.1717  0.1346  0.3472
  145SAPE  H11X15928   3.588   2.123   5.470 -1.0827 -1.5592  2.2985
  145SAPE  H11Y15929   3.639   1.957   5.416 -0.5264  1.4890 -2.2252
  145SAPE  C31215930   3.764   2.119   5.360  0.6798  0.4267  0.5398
  145SAPE  H12X15931   3.873   2.104   5.373  0.2580 -1.7327  2.1870
  145SAPE  H12Y15932   3.757   2.229   5.374 -1.3787  0.4137 -0.0189
  145SAPE  C31315933   3.734   2.074   5.219  0.1801 -1.0644  0.3010
  145SAPE  H13X15934   3.766   2.157   5.152 -2.7213  2.4063  2.7894
  145SAPE  H13Y15935   3.623   2.063   5.221  0.1079 -0.4543  2.6615
  145SAPE  C31415936   3.800   1.940   5.194  1.1318 -0.1306 -0.2111
  145SAPE  H14X15937   3.749   1.859   5.252  0.0396 -0.2020 -1.2224
  145SAPE  H14Y15938   3.908   1.948   5.218  0.9801  1.8563 -0.0310
  145SAPE  C31515939   3.795   1.915   5.044  0.5956 -0.4252  0.3601
  145SAPE  H15X15940   3.840   2.001   4.990 -1.0240  0.7786  0.8271
  145SAPE  H15Y15941   3.691   1.902   5.005  1.1364 -0.5368 -1.1045
  145SAPE  C31615942   3.870   1.788   5.014 -0.2050 -0.2091  0.0172
  145SAPE  H16X15943   3.863   1.741   5.115  0.2968 -1.9103 -0.7093
  145SAPE  H16Y15944   3.977   1.801   4.984 -0.3430  1.1185  0.0277
  145SAPE  C31715945   3.795   1.702   4.910  0.2389  0.1020 -0.0401
  145SAPE  H17X15946   3.689   1.691   4.943 -0.1201  1.3908 -0.6795
  145SAPE  H17Y15947   3.825   1.595   4.915 -0.3094 -0.0136  1.4010
  145SAPE  C31815948   3.799   1.761   4.767 -0.6194 -0.2587  0.5171
  145SAPE  H18X15949   3.749   1.694   4.694 -0.6696  2.1431 -1.7800
  145SAPE  H18Y15950   3.904   1.779   4.736 -0.7467 -1.0396 -0.4147
  145SAPE  H18Z15951   3.743   1.856   4.759 -0.7525 -0.4004 -0.3346
  146SAPE     N15952   0.992   2.107   7.051  0.0545 -0.2228 -0.6379
  146SAPE   HN115953   1.046   2.108   7.140 -0.3890  0.7017 -0.3710
  146SAPE   HN215954   1.049   2.077   6.970  0.0431  2.0558 -1.5580
  146SAPE   HN315955   0.964   2.205   7.030  1.3943  1.0001  2.6405
  146SAPE   C1215956   0.868   2.027   7.058  0.2778  0.0091  0.0920
  146SAPE  H12A15957   0.812   2.031   7.154 -3.0010 -1.7365 -1.5462
  146SAPE  H12B15958   0.894   1.921   7.037 -0.3471 -0.0524 -0.4382
  146SAPE   C1115959   0.775   2.080   6.950  0.4000 -0.2237 -0.2060
  146SAPE  H11A15960   0.681   2.023   6.939  0.4788 -0.1867 -1.1305
  146SAPE  H11B15961   0.819   2.064   6.849  0.7369  2.8336 -0.6493
  146SAPE     P15962   0.617   2.290   7.014  0.3079  0.4585 -0.0072
  146SAPE   O1315963   0.632   2.323   7.158  0.4912  0.3535  0.0940
  146SAPE   O1415964   0.591   2.395   6.914 -0.0148 -0.1023 -0.2515
  146SAPE   O1215965   0.749   2.215   6.968  0.1047  0.4064  0.0765
  146SAPE   O1115966   0.497   2.192   7.001  0.4891  0.4476 -0.1170
  146SAPE    C115967   0.428   2.155   6.876  0.2615 -0.1756  0.2993
  146SAPE    HA15968   0.341   2.222   6.858  0.3098  0.4719  2.2691
  146SAPE    HB15969   0.488   2.161   6.783 -0.2769 -1.2414 -0.1367
  146SAPE    C215970   0.358   2.008   6.880  0.7113  0.0349  0.0263
  146SAPE    HS15971   0.301   2.003   6.975  1.4979 -3.1504  0.4190
  146SAPE   O2115972   0.456   1.908   6.857  1.2063 -0.1453  0.0687
  146SAPE   C2115973   0.430   1.784   6.885  0.6573  0.4145  0.0907
  146SAPE   O2215974   0.318   1.746   6.913  0.6343 -0.1909 -0.7372
  146SAPE   C2215975   0.554   1.686   6.858  0.6039  0.0324 -0.6669
  146SAPE   H2R15976   0.646   1.743   6.882  2.0691 -2.4580  0.0615
  146SAPE   H2S15977   0.551   1.596   6.923 -1.3184 -0.8682 -1.9227
  146SAPE    C315978   0.248   1.997   6.761 -0.5091 -0.1570 -0.5565
  146SAPE    HX15979   0.177   2.082   6.773  0.8433  0.7686  1.4569
  146SAPE    HY15980   0.184   1.908   6.773 -0.6381 -0.0601 -0.5248
  146SAPE   O3115981   0.306   1.997   6.626  0.0329  0.4791 -0.5292
  146SAPE   C3115982   0.225   1.944   6.535  0.6874 -0.4891 -0.1476
  146SAPE   O3215983   0.112   1.899   6.561 -0.4946  0.7903  0.6305
  146SAPE   C3215984   0.291   1.938   6.396 -0.6153  0.0805 -0.4932
  146SAPE   H2X15985   0.352   1.846   6.387 -1.4754 -0.3694 -2.3140
  146SAPE   H2Y15986   0.361   2.022   6.374  0.5918 -1.1979 -1.7008
  146SAPE   C2315987   0.577   1.657   6.706  0.3711  0.2441 -0.2331
  146SAPE   H3R15988   0.484   1.632   6.651  0.3761 -1.0795  0.3155
  146SAPE   H3S15989   0.644   1.568   6.697  0.2284 -0.0667  1.4913
  146SAPE   C2415990   0.648   1.772   6.629 -0.7805 -0.0407 -0.0384
  146SAPE   H4R15991   0.701   1.830   6.707 -2.0749  1.5379 -0.2836
  146SAPE   H4S15992   0.576   1.849   6.594  1.1286  1.9338  0.1790
  146SAPE   C2515993   0.740   1.720   6.528  0.0017  0.0714 -0.1653
  146SAPE   H5R15994   0.818   1.654   6.569  1.4923  0.6483 -1.9382
  146SAPE   C2615995   0.760   1.760   6.403  0.8424 -0.4879  0.0107
  146SAPE   H6R15996   0.832   1.697   6.349  2.5919 -0.2310  1.9233
  146SAPE   C2715997   0.681   1.865   6.329  0.7104 -0.0340  0.3479
  146SAPE   H7R15998   0.756   1.936   6.287 -0.7482  1.8645  0.8078
  146SAPE   H7S15999   0.615   1.931   6.389  1.8471  2.3500 -0.8490
  146SAPE   C2816000   0.606   1.782   6.227 -0.1001  0.2811 -0.2934
  146SAPE   H8R16001   0.562   1.684   6.251 -1.9518  0.4130 -2.7758
  146SAPE   C2916002   0.600   1.822   6.100  0.3771 -0.3242  0.3383
  146SAPE   H9R16003   0.537   1.764   6.031 -0.3963  0.3366  0.4741
  146SAPE  C21016004   0.651   1.958   6.045 -0.5970  0.5617 -0.5271
  146SAPE  H10R16005   0.761   1.955   6.025 -0.7350 -0.9141 -1.2269
  146SAPE  H10S16006   0.647   2.035   6.125  0.6829  1.4958 -1.3315
  146SAPE  C21116007   0.572   1.986   5.922 -0.8255 -0.6857  0.0433
  146SAPE  H11R16008   0.564   1.907   5.845  1.6354  2.0712 -3.3613
  146SAPE  C21216009   0.541   2.107   5.876  0.3411 -0.2634 -0.5051
  146SAPE  H12R16010   0.478   2.106   5.786 -2.2058 -0.0988  1.1484
  146SAPE  C21316011   0.578   2.243   5.930  0.4563  0.4446  0.5175
  146SAPE  H13R16012   0.565   2.246   6.040 -0.0402 -1.1384  0.5199
  146SAPE  H13S16013   0.497   2.306   5.887 -0.6870 -0.6229  1.0248
  146SAPE  C21416014   0.719   2.296   5.904  0.0865  0.3489  0.3866
  146SAPE  H14R16015   0.789   2.224   5.949 -0.0306  0.1362  0.2266
  146SAPE  C21516016   0.754   2.397   5.827 -0.0275  0.3077 -0.0443
  146SAPE  H15R16017   0.858   2.415   5.798 -0.9947  2.8902 -2.3197
  146SAPE  C21616018   0.667   2.490   5.757 -0.4533 -0.5016  0.5686
  146SAPE  H16R16019   0.693   2.594   5.785  0.4766  0.0292 -2.0040
  146SAPE  H16S16020   0.564   2.470   5.793 -0.3300  0.5389  1.5675
  146SAPE  C21716021   0.692   2.484   5.607 -0.2662  0.4629  0.1487
  146SAPE  H17R16022   0.794   2.521   5.583 -0.0102 -0.6281 -0.5218
  146SAPE  H17S16023   0.622   2.551   5.552  1.2987  1.4899 -0.6604
  146SAPE  C21816024   0.682   2.338   5.540  0.3000 -0.4017 -0.4360
  146SAPE  H18R16025   0.596   2.291   5.593 -0.7678  2.5433  0.6514
  146SAPE  H18S16026   0.777   2.287   5.565 -0.9864 -1.7479  2.0991
  146SAPE  C21916027   0.666   2.354   5.388  0.0146 -0.2600  0.4907
  146SAPE  H19R16028   0.741   2.430   5.357  2.2403 -1.9638  1.4133
  146SAPE  H19S16029   0.560   2.383   5.373 -0.1902 -0.5926  1.2193
  146SAPE  C22016030   0.702   2.224   5.314 -0.3458  0.0086  0.6368
  146SAPE  H20R16031   0.657   2.135   5.362  1.0298 -0.9560  0.2080
  146SAPE  H20S16032   0.806   2.205   5.279 -0.7656 -0.4553 -0.3706
  146SAPE  H20T16033   0.645   2.222   5.220 -0.5251 -1.2046  0.7610
  146SAPE   C3316034   0.187   1.935   6.293 -0.6221 -0.0412  0.6807
  146SAPE   H3X16035   0.146   2.035   6.269 -4.6547 -1.3210  1.5182
  146SAPE   H3Y16036   0.097   1.878   6.322  0.3635 -0.2237  3.6898
  146SAPE   C3416037   0.250   1.885   6.162 -0.5688  0.1143  0.7609
  146SAPE   H4X16038   0.281   1.780   6.182 -2.5934 -0.6637  0.0886
  146SAPE   H4Y16039   0.341   1.935   6.124 -0.3188 -2.0201 -1.6861
  146SAPE   C3516040   0.146   1.905   6.042  0.0082  0.5945  0.0697
  146SAPE   H5X16041   0.121   2.013   6.034 -3.5458 -0.1630 -1.1814
  146SAPE   H5Y16042   0.049   1.855   6.067 -0.0097 -0.1000 -1.2842
  146SAPE   C3616043   0.200   1.838   5.920  0.0759  0.0135 -0.3486
  146SAPE   H6X16044   0.197   1.728   5.937 -0.9091 -0.4335 -2.8897
  146SAPE   H6Y16045   0.309   1.857   5.907 -0.2643  1.1674 -1.6957
  146SAPE   C3716046   0.129   1.879   5.792  0.1601  0.1771  0.5313
  146SAPE   H7X16047   0.139   1.989   5.785  0.8123  0.0829 -0.1493
  146SAPE   H7Y16048   0.021   1.851   5.793  0.1534 -0.0287 -1.4767
  146SAPE   C3816049   0.179   1.809   5.665  0.0112  0.0421 -0.1801
  146SAPE   H8X16050   0.118   1.823   5.573  1.2383  0.2917 -0.9865
  146SAPE   H8Y16051   0.180   1.701   5.689 -0.2480  0.3357  1.2450
  146SAPE   C3916052   0.319   1.860   5.626 -0.0243 -0.0454 -0.4479
  146SAPE   H9X16053   0.397   1.830   5.699 -0.3649  0.6797  0.2276
  146SAPE   H9Y16054   0.315   1.971   5.627 -0.5075 -0.0480  1.4764
  146SAPE  C31016055   0.350   1.834   5.484 -0.2136  0.1130 -0.3581
  146SAPE  H10X16056   0.283   1.891   5.416 -1.4229 -0.1255  0.6038
  146SAPE  H10Y16057   0.352   1.724   5.472  0.8313  0.1304 -0.4518
  146SAPE  C31116058   0.495   1.891   5.451 -0.1353  0.2055 -0.4107
  146SAPE  H11X16059   0.573   1.847   5.518 -1.5748 -0.3038  0.9991
  146SAPE  H11Y16060   0.485   2.000   5.465 -1.2310  0.2951 -1.7356
  146SAPE  C31216061   0.544   1.872   5.302 -0.7061 -0.4239 -0.3875
  146SAPE  H12X16062   0.637   1.929   5.280 -0.8227 -0.1222 -0.1085
  146SAPE  H12Y16063   0.471   1.913   5.228 -2.1733 -0.0774  1.1916
  146SAPE  C31316064   0.569   1.723   5.270 -0.0126 -0.8668 -0.0059
  146SAPE  H13X16065   0.468   1.681   5.288 -1.3987  2.0357 -0.3975
  146SAPE  H13Y16066   0.640   1.667   5.334 -2.2076 -1.6934  1.8183
  146SAPE  C31416067   0.609   1.703   5.121  0.1074 -0.3980  0.0045
  146SAPE  H14X16068   0.712   1.740   5.102  0.7428 -2.1719 -0.1983
  146SAPE  H14Y16069   0.539   1.762   5.059 -1.2300 -0.7830  1.1107
  146SAPE  C31516070   0.607   1.547   5.090 -0.2898 -0.7897 -0.4071
  146SAPE  H15X16071   0.573   1.534   4.985 -1.3979 -1.8205  0.0664
  146SAPE  H15Y16072   0.527   1.499   5.150  0.2320 -0.9479  0.1705
  146SAPE  C31616073   0.739   1.480   5.112 -0.0491  0.2584 -0.2368
  146SAPE  H16X16074   0.785   1.538   5.194 -1.9874  1.7892 -0.1768
  146SAPE  H16Y16075   0.803   1.492   5.022 -1.1098  0.1234 -1.0307
  146SAPE  C31716076   0.728   1.327   5.127 -0.2857  0.0023  0.5923
  146SAPE  H17X16077   0.826   1.288   5.160  0.1509  1.5731  1.2263
  146SAPE  H17Y16078   0.720   1.281   5.026  0.8622 -0.0204  0.5033
  146SAPE  C31816079   0.625   1.280   5.234  0.7339 -0.3824  0.2310
  146SAPE  H18X16080   0.652   1.326   5.332  0.8576 -1.5646  0.7607
  146SAPE  H18Y16081   0.640   1.170   5.237  0.8385 -0.3482  1.1632
  146SAPE  H18Z16082   0.520   1.313   5.219  0.2645 -2.4313 -1.3854
  147SAPE     N16083   5.821   5.836   7.255 -0.3817 -0.0123  0.4549
  147SAPE   HN116084   5.774   5.745   7.239  2.0792 -1.3288  0.1593
  147SAPE   HN216085   5.910   5.826   7.309  1.1009  1.7031 -1.4876
  147SAPE   HN316086   5.751   5.898   7.301  0.2738  0.7081  0.4975
  147SAPE   C1216087   5.875   5.891   7.123  0.2981  1.0132  0.0044
  147SAPE  H12A16088   5.957   5.825   7.088  0.2624  0.8639  0.1996
  147SAPE  H12B16089   5.920   5.990   7.144  0.3354  1.4898 -2.0523
  147SAPE   C1116090   5.765   5.900   7.023  0.7448 -0.5434  0.4910
  147SAPE  H11A16091   5.804   5.951   6.932  0.4895 -1.3677 -0.0933
  147SAPE  H11B16092   5.686   5.966   7.066 -0.3554 -1.3949 -0.1501
  147SAPE     P16093   5.568   5.768   6.901 -0.1781 -0.2855 -0.3135
  147SAPE   O1316094   5.526   5.637   6.848  0.2384 -0.7389  0.2303
  147SAPE   O1416095   5.469   5.827   6.997  0.0211 -0.0409  0.1485
  147SAPE   O1216096   5.711   5.774   6.973  0.3334  0.2656 -0.0060
  147SAPE   O1116097   5.579   5.877   6.786  0.5824 -0.0062  0.3172
  147SAPE    C116098   5.628   5.824   6.667 -0.0748 -0.2168  0.2312
  147SAPE    HA16099   5.689   5.733   6.684  1.3592  0.9896  1.9017
  147SAPE    HB16100   5.544   5.798   6.598  0.1826 -2.7551  0.7976
  147SAPE    C216101   5.712   5.923   6.577  0.0808 -0.4997 -0.0374
  147SAPE    HS16102   5.805   5.955   6.628 -1.0761  1.4739  0.9755
  147SAPE   O2116103   5.623   6.046   6.555  0.0014  0.3722 -0.3775
  147SAPE   C2116104   5.686   6.159   6.521  0.5172  0.4041  0.8159
  147SAPE   O2216105   5.802   6.179   6.512  0.0250 -0.6042  0.4491
  147SAPE   C2216106   5.576   6.264   6.487  0.6044 -0.4644 -0.1062
  147SAPE   H2R16107   5.483   6.249   6.545  0.2581 -1.9188 -0.9729
  147SAPE   H2S16108   5.620   6.366   6.495 -1.7493  0.5287  0.9336
  147SAPE    C316109   5.766   5.852   6.452 -0.4021  0.3996  0.4967
  147SAPE    HX16110   5.675   5.806   6.409 -3.4056  4.3616  1.9816
  147SAPE    HY16111   5.835   5.769   6.477  1.4184  1.6284 -0.2050
  147SAPE   O3116112   5.826   5.937   6.357 -0.0453 -0.6168 -0.0879
  147SAPE   C3116113   5.958   5.958   6.377 -0.5021  0.3067 -0.4152
  147SAPE   O3216114   6.027   5.897   6.463  1.0639 -0.0991  0.8697
  147SAPE   C3216115   6.007   6.064   6.279  0.2465  0.1217 -1.0034
  147SAPE   H2X16116   5.937   6.150   6.290 -0.0805 -0.4176  2.4237
  147SAPE   H2Y16117   5.999   6.022   6.177 -1.0015 -1.2538 -0.3849
  147SAPE   C2316118   5.524   6.256   6.338 -0.1281  0.5399 -0.3423
  147SAPE   H3R16119   5.416   6.281   6.340 -0.0256  0.9812  1.3077
  147SAPE   H3S16120   5.540   6.152   6.303 -1.5176 -0.0859  0.7838
  147SAPE   C2416121   5.600   6.339   6.229  0.0365 -0.2429  0.2255
  147SAPE   H4R16122   5.701   6.296   6.213  0.6739  1.6405 -1.2506
  147SAPE   H4S16123   5.615   6.441   6.270 -0.2351  0.0643 -0.4213
  147SAPE   C2516124   5.542   6.355   6.094  0.2620  0.1941  0.5349
  147SAPE   H5R16125   5.453   6.418   6.086 -0.0075  0.0024  1.7584
  147SAPE   C2616126   5.598   6.306   5.981  0.4210 -0.0456  0.3557
  147SAPE   H6R16127   5.530   6.314   5.895  0.9386  0.9399  0.0254
  147SAPE   C2716128   5.717   6.217   5.960  0.0390  0.5543  0.6070
  147SAPE   H7R16129   5.813   6.268   5.980  0.7049 -0.8983  1.2291
  147SAPE   H7S16130   5.710   6.206   5.850 -0.5817 -0.6212  0.7567
  147SAPE   C2816131   5.714   6.077   6.023  0.2120 -0.8181 -0.0524
  147SAPE   H8R16132   5.711   6.081   6.133  1.1117  2.9209 -0.0369
  147SAPE   C2916133   5.726   5.971   5.947 -0.4705  0.9298 -0.3597
  147SAPE   H9R16134   5.723   5.872   5.995  1.5141  1.3743  0.8192
  147SAPE  C21016135   5.743   5.965   5.796 -0.1838 -0.3861 -0.6550
  147SAPE  H10R16136   5.674   6.033   5.741  0.1419  0.7106  0.2555
  147SAPE  H10S16137   5.716   5.861   5.768  1.8584 -1.5788  1.4327
  147SAPE  C21116138   5.893   5.982   5.767 -0.1629 -0.1551 -0.9718
  147SAPE  H11R16139   5.951   6.031   5.847 -0.0474 -1.1262 -0.4469
  147SAPE  C21216140   5.963   5.936   5.659  0.8746  0.4275 -0.1232
  147SAPE  H12R16141   6.069   5.966   5.652  0.6716  1.2348  0.1301
  147SAPE  C21316142   5.902   5.852   5.543 -0.2188  0.0172  0.2772
  147SAPE  H13R16143   5.963   5.874   5.453  1.9550  0.3816  1.7423
  147SAPE  H13S16144   5.797   5.884   5.530 -0.2446  0.8272  2.1233
  147SAPE  C21416145   5.907   5.698   5.571 -0.2075  0.1057  0.4615
  147SAPE  H14R16146   5.855   5.662   5.661  0.1038  0.4473  0.7849
  147SAPE  C21516147   5.975   5.607   5.496  0.1319  0.3672  0.5636
  147SAPE  H15R16148   5.973   5.500   5.522 -1.8642  0.0542 -0.6716
  147SAPE  C21616149   6.049   5.639   5.367 -0.5977  0.3591 -0.4697
  147SAPE  H16R16150   6.144   5.696   5.383 -0.3306  0.7271 -3.0170
  147SAPE  H16S16151   5.992   5.695   5.290  0.2318  0.1072 -1.2879
  147SAPE  C21716152   6.090   5.508   5.300  0.1545 -0.1005 -0.4503
  147SAPE  H17R16153   5.997   5.452   5.273  0.9073 -0.5377 -2.3416
  147SAPE  H17S16154   6.142   5.439   5.369  3.6304  2.1714 -0.5986
  147SAPE  C21816155   6.176   5.528   5.181 -0.6432  0.2408  0.2523
  147SAPE  H18R16156   6.266   5.582   5.216  0.3498 -1.8075  1.0457
  147SAPE  H18S16157   6.110   5.598   5.125  0.6891  1.5066  0.2115
  147SAPE  C21916158   6.217   5.396   5.109  0.6818 -0.3270 -0.4405
  147SAPE  H19R16159   6.277   5.442   5.028 -1.4321 -1.0905 -2.5790
  147SAPE  H19S16160   6.123   5.353   5.069  0.0643 -0.2478  0.8539
  147SAPE  C22016161   6.306   5.298   5.191  0.1334 -0.8636 -0.2988
  147SAPE  H20R16162   6.246   5.262   5.278 -0.6257  2.1885  0.5403
  147SAPE  H20S16163   6.405   5.332   5.230  0.0692 -0.1123 -0.7720
  147SAPE  H20T16164   6.332   5.211   5.127 -2.1851 -2.2519  0.4902
  147SAPE   C3316165   6.154   6.110   6.294  0.7859  0.1945  0.3520
  147SAPE   H3X16166   6.213   6.016   6.299 -0.5659 -0.6491  0.9894
  147SAPE   H3Y16167   6.172   6.158   6.392  2.1562  0.3971  0.0259
  147SAPE   C3416168   6.213   6.201   6.182 -0.0676 -0.1769  0.2190
  147SAPE   H4X16169   6.315   6.216   6.225  0.3258 -1.2205 -0.3063
  147SAPE   H4Y16170   6.149   6.291   6.178  1.0956  0.6454 -0.5093
  147SAPE   C3516171   6.228   6.140   6.046  0.8440 -0.2260  0.3462
  147SAPE   H5X16172   6.132   6.107   6.002  0.5989 -0.0889  0.7781
  147SAPE   H5Y16173   6.294   6.051   6.036 -1.6647 -2.1902  0.4041
  147SAPE   C3616174   6.269   6.244   5.930  0.9982  0.6472 -0.3527
  147SAPE   H6X16175   6.361   6.298   5.962 -0.5567  3.2010  0.1776
  147SAPE   H6Y16176   6.190   6.322   5.918 -0.0172 -0.4113 -0.6864
  147SAPE   C3716177   6.289   6.178   5.789  0.7966 -0.0928 -0.4319
  147SAPE   H7X16178   6.209   6.103   5.771  0.1085  0.6163 -0.3725
  147SAPE   H7Y16179   6.386   6.124   5.784  1.3972  1.0377 -1.5293
  147SAPE   C3816180   6.287   6.286   5.676  0.0212 -0.1631 -0.5694
  147SAPE   H8X16181   6.365   6.359   5.708  0.5798 -1.5220  1.3450
  147SAPE   H8Y16182   6.189   6.337   5.688  0.2266  0.4871 -1.5601
  147SAPE   C3916183   6.317   6.232   5.540 -0.1075 -0.6351 -0.4531
  147SAPE   H9X16184   6.397   6.155   5.548  0.0140 -0.4223  0.4894
  147SAPE   H9Y16185   6.351   6.321   5.483 -0.3547 -0.9619 -1.1160
  147SAPE  C31016186   6.188   6.187   5.479 -0.1180  0.6437 -0.7087
  147SAPE  H10X16187   6.114   6.269   5.470  0.1325  0.9680  0.1084
  147SAPE  H10Y16188   6.147   6.104   5.541  0.8589  1.9542  1.8850
  147SAPE  C31116189   6.218   6.140   5.332 -0.3495  0.2866 -0.0906
  147SAPE  H11X16190   6.268   6.040   5.336 -1.5434 -0.3493 -0.6125
  147SAPE  H11Y16191   6.292   6.215   5.297 -0.4399  1.3077  1.7930
  147SAPE  C31216192   6.091   6.127   5.249  0.9334 -0.8035  0.2831
  147SAPE  H12X16193   6.045   6.228   5.255 -0.9454 -1.4759 -1.7456
  147SAPE  H12Y16194   6.013   6.063   5.295 -2.8787  1.7273 -2.0614
  147SAPE  C31316195   6.115   6.085   5.103 -0.8466 -0.6175  0.1460
  147SAPE  H13X16196   6.175   5.992   5.091 -2.2637 -1.7613  1.3670
  147SAPE  H13Y16197   6.174   6.167   5.057  1.9402 -2.1299  0.7804
  147SAPE  C31416198   5.990   6.063   5.008 -1.3317 -0.6900  0.1324
  147SAPE  H14X16199   6.029   6.062   4.904  0.5142  3.6371  0.5363
  147SAPE  H14Y16200   5.931   6.156   5.025  1.3740  0.6587  3.4563
  147SAPE  C31516201   5.916   5.927   5.047  0.1787  0.1561 -0.1988
  147SAPE  H15X16202   5.874   5.930   5.150 -0.9377  0.7193 -0.6542
  147SAPE  H15Y16203   5.982   5.838   5.058 -0.5687 -0.2666  1.1105
  147SAPE  C31616204   5.789   5.898   4.957 -0.2230 -0.3423  0.0774
  147SAPE  H16X16205   5.747   5.997   4.931  3.5197  1.3433 -0.1085
  147SAPE  H16Y16206   5.719   5.842   5.023  2.4349 -2.2710  1.4327
  147SAPE  C31716207   5.839   5.820   4.826  0.0000  0.4786 -0.3523
  147SAPE  H17X16208   5.907   5.735   4.850 -2.5589 -0.6273  4.1848
  147SAPE  H17Y16209   5.896   5.897   4.769 -1.8304  2.7453  0.7064
  147SAPE  C31816210   5.722   5.773   4.734  0.1446 -0.5655  0.5537
  147SAPE  H18X16211   5.648   5.854   4.720  0.8998 -0.0945 -0.8949
  147SAPE  H18Y16212   5.673   5.676   4.758  1.2630 -1.3290 -0.1391
  147SAPE  H18Z16213   5.776   5.745   4.641  1.1163 -0.0915  0.9609
  148SAPE     N16214   4.416   5.322   7.377  0.3353  0.0030 -0.1035
  148SAPE   HN116215   4.409   5.426   7.385 -0.4947  0.0417 -1.1377
  148SAPE   HN216216   4.333   5.285   7.428 -0.7263  1.4927 -0.6851
  148SAPE   HN316217   4.500   5.294   7.431  1.6757  3.2049 -0.3251
  148SAPE   C1216218   4.397   5.286   7.228 -0.8063  0.1301 -0.3660
  148SAPE  H12A16219   4.411   5.177   7.217  0.9701  0.1704  1.0416
  148SAPE  H12B16220   4.480   5.340   7.178  0.0935  0.5905  1.5532
  148SAPE   C1116221   4.259   5.343   7.172 -0.4710 -0.4274 -0.7376
  148SAPE  H11A16222   4.178   5.291   7.228 -0.0108  0.2352  0.5932
  148SAPE  H11B16223   4.244   5.312   7.067  0.6997 -2.2375 -0.4126
  148SAPE     P16224   4.281   5.604   7.107 -0.2896  0.0933 -0.0047
  148SAPE   O1316225   4.163   5.694   7.116  0.2850  0.2810  0.0863
  148SAPE   O1416226   4.414   5.649   7.152 -0.2284  0.2127  0.3624
  148SAPE   O1216227   4.252   5.477   7.197 -0.1957 -0.4117  0.3231
  148SAPE   O1116228   4.293   5.556   6.956 -0.1844  0.4827  0.1131
  148SAPE    C116229   4.181   5.512   6.888 -0.0104  0.5247 -0.5143
  148SAPE    HA16230   4.130   5.424   6.933  1.5121 -0.2380 -0.2366
  148SAPE    HB16231   4.104   5.593   6.886 -0.7911 -0.0159  2.6658
  148SAPE    C216232   4.208   5.474   6.741 -0.5461  0.0669 -0.3335
  148SAPE    HS16233   4.111   5.440   6.699 -0.5985 -0.2791  0.0605
  148SAPE   O2116234   4.311   5.368   6.740  0.2535  0.3909 -0.7759
  148SAPE   C2116235   4.264   5.254   6.780  0.3216 -0.8859 -0.3292
  148SAPE   O2216236   4.150   5.228   6.816  0.3806 -0.4012  0.3914
  148SAPE   C2216237   4.370   5.155   6.740 -0.1602  0.4026  0.2821
  148SAPE   H2R16238   4.468   5.207   6.736 -0.2160  0.4978 -2.7631
  148SAPE   H2S16239   4.366   5.066   6.806  2.1796 -0.5716 -0.7747
  148SAPE    C316240   4.250   5.607   6.669  0.3902  0.0176 -0.0113
  148SAPE    HX16241   4.353   5.631   6.701  0.4467 -0.9764  0.5861
  148SAPE    HY16242   4.186   5.689   6.710 -0.0750 -0.2498 -0.1903
  148SAPE   O3116243   4.242   5.603   6.524  0.4401  0.0301  0.2733
  148SAPE   C3116244   4.123   5.587   6.468  0.2847 -0.0159  0.0035
  148SAPE   O3216245   4.016   5.585   6.535  0.2759 -0.1499  0.2247
  148SAPE   C3216246   4.145   5.592   6.317  0.5745 -0.5502 -0.3182
  148SAPE   H2X16247   4.195   5.500   6.280 -0.8586 -0.6062 -2.2963
  148SAPE   H2Y16248   4.208   5.679   6.288 -1.8287  1.3798 -0.1174
  148SAPE   C2316249   4.339   5.090   6.600  0.7444 -0.3122  0.9274
  148SAPE   H3R16250   4.256   5.018   6.618 -0.0798  0.0786 -1.1177
  148SAPE   H3S16251   4.423   5.020   6.580  1.1095  0.4475 -0.3066
  148SAPE   C2416252   4.319   5.192   6.487 -0.8270 -0.5383 -0.1029
  148SAPE   H4R16253   4.222   5.246   6.495 -0.7178 -0.5250  1.5183
  148SAPE   H4S16254   4.302   5.126   6.399  1.5571 -2.0772  0.5037
  148SAPE   C2516255   4.440   5.285   6.460  0.5030  0.1977 -1.3818
  148SAPE   H5R16256   4.495   5.322   6.548 -1.8306  1.5590 -0.3946
  148SAPE   C2616257   4.478   5.325   6.335 -0.4320 -1.0061 -0.2678
  148SAPE   H6R16258   4.554   5.405   6.335  0.1406 -1.5351  0.7578
  148SAPE   C2716259   4.412   5.287   6.202 -0.6448  0.2806  0.1209
  148SAPE   H7R16260   4.444   5.367   6.132  0.7344 -1.1559 -0.9714
  148SAPE   H7S16261   4.302   5.286   6.218 -0.5591  3.0060  1.2894
  148SAPE   C2816262   4.458   5.156   6.130  0.2439 -0.2291  1.0339
  148SAPE   H8R16263   4.467   5.057   6.178  0.8379 -1.3239 -1.1967
  148SAPE   C2916264   4.466   5.148   5.992  0.1715 -0.0627 -0.1204
  148SAPE   H9R16265   4.512   5.056   5.953 -0.7150 -0.4110 -0.3666
  148SAPE  C21016266   4.426   5.252   5.884  0.9579 -0.2478  0.2532
  148SAPE  H10R16267   4.367   5.340   5.920 -0.6654 -0.5052 -1.6337
  148SAPE  H10S16268   4.351   5.210   5.814 -0.8099  0.7249  1.4701
  148SAPE  C21116269   4.549   5.309   5.821 -0.1920  0.1753 -0.4001
  148SAPE  H11R16270   4.627   5.346   5.889  0.4958  1.0344 -1.6295
  148SAPE  C21216271   4.579   5.341   5.689  0.4162 -0.2160 -0.1613
  148SAPE  H12R16272   4.670   5.394   5.657 -0.2736  0.9268 -0.2776
  148SAPE  C21316273   4.479   5.325   5.571 -0.0719 -0.3662  0.1630
  148SAPE  H13R16274   4.462   5.423   5.523  1.1090 -0.6077 -0.8060
  148SAPE  H13S16275   4.379   5.292   5.606 -0.3464 -0.0490 -0.3325
  148SAPE  C21416276   4.534   5.232   5.464  0.6063 -0.2458  0.6696
  148SAPE  H14R16277   4.493   5.130   5.467  4.0725 -1.7566  0.6198
  148SAPE  C21516278   4.601   5.263   5.349  0.0112 -0.5797 -0.0315
  148SAPE  H15R16279   4.628   5.188   5.273  1.2966  0.6030 -0.7741
  148SAPE  C21616280   4.677   5.393   5.312 -0.2335  0.2250 -0.5479
  148SAPE  H16R16281   4.788   5.384   5.315 -0.1167  1.1597 -1.4914
  148SAPE  H16S16282   4.660   5.475   5.385  0.3258 -0.3103  0.2039
  148SAPE  C21716283   4.642   5.441   5.174  0.2944  0.4435 -0.0737
  148SAPE  H17R16284   4.697   5.536   5.162  0.9129  0.0523 -0.3405
  148SAPE  H17S16285   4.533   5.465   5.169  0.3902  1.0483  0.5529
  148SAPE  C21816286   4.671   5.337   5.060 -0.3755  0.1774 -0.3360
  148SAPE  H18R16287   4.600   5.253   5.075 -1.8524  1.2844 -0.8685
  148SAPE  H18S16288   4.778   5.309   5.072 -0.2595  1.4489  2.3613
  148SAPE  C21916289   4.634   5.396   4.916 -0.8783  0.0794  0.8125
  148SAPE  H19R16290   4.526   5.420   4.908 -0.9457 -0.0223  1.3299
  148SAPE  H19S16291   4.656   5.324   4.835 -1.8228 -0.2390  0.8306
  148SAPE  C22016292   4.704   5.529   4.887 -0.4943 -0.2843 -0.2233
  148SAPE  H20R16293   4.736   5.531   4.781 -1.6401  0.8447 -0.5661
  148SAPE  H20S16294   4.801   5.549   4.938  0.2203  0.7431 -1.8846
  148SAPE  H20T16295   4.635   5.610   4.917 -1.1440 -0.7328 -0.4795
  148SAPE   C3316296   4.007   5.603   6.240  0.0791 -0.1132  0.5552
  148SAPE   H3X16297   3.949   5.681   6.293  1.8689  0.1602  2.2687
  148SAPE   H3Y16298   3.960   5.503   6.253 -0.4693  0.2248  1.2805
  148SAPE   C3416299   4.030   5.657   6.095  0.6130 -0.1713  0.5402
  148SAPE   H4X16300   4.103   5.741   6.094 -1.7462  1.9704  0.2950
  148SAPE   H4Y16301   3.941   5.712   6.060  1.1299  0.5127  0.2720
  148SAPE   C3516302   4.069   5.536   6.003 -0.1357  0.0617 -0.3627
  148SAPE   H5X16303   3.986   5.464   6.019 -1.1218  0.7955 -1.9015
  148SAPE   H5Y16304   4.170   5.496   6.026 -0.7233 -1.2080  0.0566
  148SAPE   C3616305   4.065   5.577   5.854  0.7396  0.0922 -0.4268
  148SAPE   H6X16306   4.142   5.658   5.846 -0.4602  1.2828 -0.2426
  148SAPE   H6Y16307   3.971   5.633   5.838  1.0684  1.1094  1.0162
  148SAPE   C3716308   4.069   5.455   5.760  0.8033  0.2272  0.0032
  148SAPE   H7X16309   3.982   5.392   5.787  1.6592 -1.3804 -0.8395
  148SAPE   H7Y16310   4.155   5.387   5.776 -0.0554 -0.6125  1.2967
  148SAPE   C3816311   4.045   5.504   5.616  0.2094  0.2742 -0.1845
  148SAPE   H8X16312   3.968   5.584   5.611  1.0589  1.3498  2.3632
  148SAPE   H8Y16313   4.005   5.414   5.564  0.4673 -1.7992  2.9428
  148SAPE   C3916314   4.167   5.550   5.546  0.4602 -0.5709  0.8905
  148SAPE   H9X16315   4.235   5.463   5.530  1.5354  0.4611 -0.3946
  148SAPE   H9Y16316   4.229   5.630   5.592 -1.2504  1.1695  0.2731
  148SAPE  C31016317   4.136   5.581   5.396  0.2323  0.1820  0.0555
  148SAPE  H10X16318   4.076   5.673   5.380  2.1386  1.4112 -0.3841
  148SAPE  H10Y16319   4.091   5.491   5.350 -0.3662  0.9539 -0.9408
  148SAPE  C31116320   4.272   5.602   5.321  0.8202 -0.1232 -0.0237
  148SAPE  H11X16321   4.329   5.507   5.326 -0.4448 -0.9304 -0.7212
  148SAPE  H11Y16322   4.322   5.691   5.366 -0.5265  0.2974  0.6951
  148SAPE  C31216323   4.256   5.619   5.168  0.4565 -0.9643 -0.2597
  148SAPE  H12X16324   4.172   5.559   5.127  0.5532 -1.3772  0.1330
  148SAPE  H12Y16325   4.345   5.599   5.105 -1.4859  2.0038 -4.4082
  148SAPE  C31316326   4.226   5.767   5.137 -0.5288  0.6651 -0.4880
  148SAPE  H13X16327   4.128   5.804   5.173 -0.4530  0.0084  0.4102
  148SAPE  H13Y16328   4.213   5.765   5.026 -0.2402 -1.9523 -0.5336
  148SAPE  C31416329   4.341   5.870   5.169 -0.2975 -0.3099 -0.1716
  148SAPE  H14X16330   4.345   5.884   5.280 -1.0594 -0.9658 -0.0511
  148SAPE  H14Y16331   4.312   5.974   5.141 -3.1306 -1.0542 -0.3188
  148SAPE  C31516332   4.478   5.834   5.111  0.3679  0.3015  0.2972
  148SAPE  H15X16333   4.457   5.780   5.017 -2.8410 -0.9741  1.5994
  148SAPE  H15Y16334   4.530   5.764   5.181 -1.8541 -2.0003 -0.1839
  148SAPE  C31616335   4.566   5.954   5.090 -0.6454  0.5689  0.6507
  148SAPE  H16X16336   4.584   6.003   5.188 -0.9462 -0.3841  1.1915
  148SAPE  H16Y16337   4.513   6.023   5.021 -2.8835 -1.4579  0.2210
  148SAPE  C31716338   4.702   5.913   5.039  0.1275 -0.4414 -0.7725
  148SAPE  H17X16339   4.761   5.999   5.001 -0.9368 -0.5639 -2.8758
  148SAPE  H17Y16340   4.695   5.858   4.942 -0.8445 -2.1379  0.2032
  148SAPE  C31816341   4.789   5.839   5.138  1.0380  0.1028  0.7196
  148SAPE  H18X16342   4.737   5.749   5.176  0.0718  1.2897  2.2937
  148SAPE  H18Y16343   4.829   5.898   5.223 -0.5847  0.7189  1.0936
  148SAPE  H18Z16344   4.877   5.815   5.074 -0.5806  0.4148 -1.7858
  149SAPE     N16345   4.390   3.106   6.769 -0.2306  1.1249  0.0641
  149SAPE   HN116346   4.453   3.188   6.757  0.5715  0.5359  0.2311
  149SAPE   HN216347   4.334   3.122   6.855 -0.6270 -1.1788  0.2947
  149SAPE   HN316348   4.454   3.025   6.781 -0.2904  1.0697  0.0158
  149SAPE   C1216349   4.295   3.110   6.654 -0.2991 -0.7051  0.3689
  149SAPE  H12A16350   4.348   3.109   6.556 -3.2600 -2.2891 -1.3555
  149SAPE  H12B16351   4.233   3.202   6.658 -0.1982 -0.6768  1.4906
  149SAPE   C1116352   4.205   2.979   6.663 -0.2525  0.1971 -0.7186
  149SAPE  H11A16353   4.281   2.898   6.657 -0.0537  0.2488  0.7799
  149SAPE  H11B16354   4.144   2.973   6.570  1.3275 -1.4943 -1.7019
  149SAPE     P16355   4.035   2.865   6.825 -0.1646 -0.1394 -0.2848
  149SAPE   O1316356   4.115   2.741   6.837  0.1350  0.0541 -0.3423
  149SAPE   O1416357   3.951   2.901   6.940  0.4010  0.2001 -0.4866
  149SAPE   O1216358   4.129   2.984   6.786  0.1899 -0.4809  0.3946
  149SAPE   O1116359   3.939   2.857   6.699 -0.4010 -0.0010 -0.4604
  149SAPE    C116360   3.863   2.974   6.670 -0.3029 -0.8088  0.3252
  149SAPE    HA16361   3.784   2.990   6.746  0.6131  0.2139  1.0952
  149SAPE    HB16362   3.923   3.067   6.671 -0.6847 -0.4546 -2.4180
  149SAPE    C216363   3.799   2.979   6.527 -0.2360 -0.1438 -0.3152
  149SAPE    HS16364   3.713   3.049   6.525 -0.2510  0.0375 -5.0764
  149SAPE   O2116365   3.779   2.837   6.497 -0.4696 -0.7431  0.2189
  149SAPE   C2116366   3.673   2.820   6.417  0.3592  0.3769  0.3349
  149SAPE   O2216367   3.596   2.909   6.379  0.6474  0.1599  0.3742
  149SAPE   C2216368   3.665   2.672   6.379 -0.1504  0.3359  0.0800
  149SAPE   H2R16369   3.765   2.642   6.342 -0.3282  0.7939 -0.8013
  149SAPE   H2S16370   3.654   2.621   6.477 -1.1388 -0.4196 -0.3984
  149SAPE    C316371   3.902   3.046   6.435  0.3103 -0.9110 -0.4626
  149SAPE    HX16372   3.984   2.972   6.423  1.9017  0.4884  1.2551
  149SAPE    HY16373   3.939   3.140   6.480  0.0927 -1.3668  0.7267
  149SAPE   O3116374   3.837   3.065   6.309 -0.2142 -0.1965 -0.3894
  149SAPE   C3116375   3.757   3.173   6.302  0.2302 -0.1355  0.0816
  149SAPE   O3216376   3.742   3.259   6.387  0.0174 -0.0324  0.8901
  149SAPE   C3216377   3.699   3.174   6.158  0.2761  0.4915 -0.3807
  149SAPE   H2X16378   3.595   3.134   6.158  0.6485 -0.4997 -0.3672
  149SAPE   H2Y16379   3.754   3.097   6.099  1.8350  1.4494 -0.2346
  149SAPE   C2316380   3.551   2.637   6.282  0.3815 -0.3031 -0.9030
  149SAPE   H3R16381   3.465   2.702   6.308 -0.7992 -2.2176  0.2887
  149SAPE   H3S16382   3.509   2.534   6.291 -2.3475  0.6730 -1.3402
  149SAPE   C2416383   3.596   2.653   6.135 -0.4652  0.5400 -0.2362
  149SAPE   H4R16384   3.666   2.571   6.110  1.0819  1.6693  0.1832
  149SAPE   H4S16385   3.658   2.746   6.139  3.1940 -1.5952 -2.0878
  149SAPE   C2516386   3.479   2.672   6.035  0.2163  0.2305  0.1415
  149SAPE   H5R16387   3.447   2.777   6.021  1.1176  0.3778 -0.9288
  149SAPE   C2616388   3.440   2.574   5.956  0.1896 -0.1957 -0.0330
  149SAPE   H6R16389   3.356   2.591   5.887 -0.6045 -3.2982  0.0419
  149SAPE   C2716390   3.482   2.426   5.950  0.6107  0.1096 -0.0068
  149SAPE   H7R16391   3.446   2.387   6.048  0.7084 -3.6703 -1.3342
  149SAPE   H7S16392   3.593   2.415   5.952  0.6606  0.6613  1.1001
  149SAPE   C2816393   3.424   2.339   5.838  0.0259  0.2572 -0.1855
  149SAPE   H8R16394   3.377   2.245   5.869 -0.2445  0.4631  0.0311
  149SAPE   C2916395   3.447   2.369   5.710  0.3203  0.3271 -0.5357
  149SAPE   H9R16396   3.414   2.296   5.636 -0.1995  1.9673 -1.9841
  149SAPE  C21016397   3.525   2.489   5.673 -0.0174 -0.3975  0.1950
  149SAPE  H10R16398   3.607   2.504   5.747  1.5534  1.0591 -1.7200
  149SAPE  H10S16399   3.462   2.580   5.677  0.3420 -0.1643  0.6170
  149SAPE  C21116400   3.602   2.489   5.542 -0.0163  1.0677 -0.3179
  149SAPE  H11R16401   3.635   2.391   5.507 -2.5226  0.4460 -1.0968
  149SAPE  C21216402   3.637   2.597   5.475 -0.3669 -0.1599  0.5606
  149SAPE  H12R16403   3.700   2.575   5.387  1.8237 -0.2965  2.0747
  149SAPE  C21316404   3.593   2.739   5.500 -0.7091  0.7421 -0.0591
  149SAPE  H13R16405   3.487   2.741   5.535 -0.3877  0.3408  0.9918
  149SAPE  H13S16406   3.594   2.787   5.400  1.2399 -0.2273 -0.5472
  149SAPE  C21416407   3.665   2.831   5.596 -0.6994 -0.0661  0.7193
  149SAPE  H14R16408   3.736   2.784   5.666 -1.6365 -2.6700  0.0697
  149SAPE  C21516409   3.655   2.964   5.590  0.2502 -0.4871 -0.1274
  149SAPE  H15R16410   3.718   3.025   5.657  1.9596 -4.0032  1.7748
  149SAPE  C21616411   3.570   3.034   5.489 -0.0192  0.2172 -0.0160
  149SAPE  H16R16412   3.520   3.125   5.530 -2.0857  0.5534 -2.9688
  149SAPE  H16S16413   3.486   2.968   5.456 -1.6192  1.2248  1.8022
  149SAPE  C21716414   3.641   3.069   5.359  0.6100 -0.6291  0.3366
  149SAPE  H17R16415   3.691   2.979   5.319 -1.0079 -1.2598 -0.3346
  149SAPE  H17S16416   3.718   3.145   5.385 -0.3140  0.8839 -1.1425
  149SAPE  C21816417   3.544   3.135   5.259  0.1029  0.6937  0.8210
  149SAPE  H18R16418   3.518   3.241   5.278  1.2365  0.9897  0.7857
  149SAPE  H18S16419   3.450   3.077   5.260  0.9439 -0.7849 -0.4837
  149SAPE  C21916420   3.592   3.147   5.110  0.6055  0.0132  0.5964
  149SAPE  H19R16421   3.683   3.208   5.091  2.5795 -2.9384 -0.2710
  149SAPE  H19S16422   3.515   3.198   5.048  0.8082 -1.1968 -0.6945
  149SAPE  C22016423   3.619   3.013   5.036 -0.7608 -0.0023 -0.2167
  149SAPE  H20R16424   3.672   3.033   4.941  1.4075 -1.1413  0.6709
  149SAPE  H20S16425   3.527   2.954   5.024 -0.4531  0.0527 -4.3276
  149SAPE  H20T16426   3.697   2.954   5.089 -0.6158 -1.0379 -1.5506
  149SAPE   C3316427   3.715   3.308   6.095 -0.0205 -0.1667  0.5381
  149SAPE   H3X16428   3.809   3.364   6.113  0.9660 -1.8887  0.9663
  149SAPE   H3Y16429   3.629   3.374   6.118 -1.3112 -1.7220  0.3480
  149SAPE   C3416430   3.725   3.286   5.940 -0.0606 -0.3434 -0.6450
  149SAPE   H4X16431   3.625   3.250   5.907 -0.6278 -0.6019  1.2554
  149SAPE   H4Y16432   3.792   3.200   5.920  0.4689  0.2479 -1.4921
  149SAPE   C3516433   3.757   3.404   5.854  0.6855  0.2527  0.3976
  149SAPE   H5X16434   3.853   3.449   5.889  0.8844 -0.4870  0.8529
  149SAPE   H5Y16435   3.677   3.479   5.870  1.2502  0.6680  1.4065
  149SAPE   C3616436   3.779   3.363   5.702 -0.0692  0.1007 -0.0891
  149SAPE   H6X16437   3.680   3.330   5.662 -0.4343  3.5598 -2.4275
  149SAPE   H6Y16438   3.851   3.279   5.699  0.1752  0.3404 -1.4986
  149SAPE   C3716439   3.838   3.485   5.620  0.4274  0.6744  0.3601
  149SAPE   H7X16440   3.945   3.495   5.648  0.6030  0.8640 -0.3507
  149SAPE   H7Y16441   3.786   3.580   5.642 -0.8230 -0.3153  1.9076
  149SAPE   C3816442   3.822   3.453   5.475 -0.6943 -0.4613 -0.5039
  149SAPE   H8X16443   3.715   3.433   5.450 -1.5469  0.2989  2.1062
  149SAPE   H8Y16444   3.874   3.359   5.446  1.3755  0.4275  0.1447
  149SAPE   C3916445   3.881   3.558   5.387  0.3922  1.0113  0.1291
  149SAPE   H9X16446   3.991   3.568   5.382  0.5216  0.1285  0.9866
  149SAPE   H9Y16447   3.847   3.653   5.434  0.6788  0.3387  1.7560
  149SAPE  C31016448   3.835   3.545   5.236 -0.2838 -0.6137  0.5729
  149SAPE  H10X16449   3.728   3.517   5.242 -0.0910 -1.0928  2.1176
  149SAPE  H10Y16450   3.896   3.467   5.187  1.2123  1.2318 -0.6569
  149SAPE  C31116451   3.852   3.672   5.146 -0.5035 -0.1360  0.3419
  149SAPE  H11X16452   3.811   3.637   5.049 -1.0632  4.4113 -1.2705
  149SAPE  H11Y16453   3.961   3.686   5.132 -0.3155  0.6562  2.2425
  149SAPE  C31216454   3.784   3.809   5.175 -0.0817  0.6162  0.1334
  149SAPE  H12X16455   3.816   3.859   5.269  0.6866  1.1368 -0.3882
  149SAPE  H12Y16456   3.676   3.784   5.184  0.0160 -0.5966 -1.6684
  149SAPE  C31316457   3.791   3.898   5.053  0.9087 -0.4334 -0.0776
  149SAPE  H13X16458   3.690   3.944   5.054  1.2039  0.2043  1.0373
  149SAPE  H13Y16459   3.792   3.845   4.955  2.7243 -0.8253  0.1216
  149SAPE  C31416460   3.899   4.011   5.059  0.2531 -0.3068 -0.4002
  149SAPE  H14X16461   3.925   4.034   5.165 -0.5051  1.9514 -0.6702
  149SAPE  H14Y16462   3.860   4.105   5.016  1.2574  0.3880  0.1801
  149SAPE  C31516463   4.029   3.970   4.984 -0.6124 -0.1359  0.3856
  149SAPE  H15X16464   4.018   3.960   4.874  1.1887  1.0371  0.0618
  149SAPE  H15Y16465   4.063   3.875   5.032 -1.4068  0.8004  3.0281
  149SAPE  C31616466   4.138   4.079   4.996 -0.3186 -0.1425 -0.0430
  149SAPE  H16X16467   4.184   4.067   5.097  1.1666 -1.5681 -0.8371
  149SAPE  H16Y16468   4.096   4.181   4.984  1.2001  0.4594 -0.5961
  149SAPE  C31716469   4.257   4.052   4.895  0.0849  0.1007 -0.2638
  149SAPE  H17X16470   4.253   3.941   4.892  1.0455 -0.0182  1.4244
  149SAPE  H17Y16471   4.353   4.081   4.942  0.4178 -0.9924 -0.2237
  149SAPE  C31816472   4.231   4.096   4.757  0.0361  0.2939  0.9334
  149SAPE  H18X16473   4.133   4.064   4.716  0.8847 -2.0305  0.5372
  149SAPE  H18Y16474   4.307   4.041   4.697 -1.6001  0.6940 -1.6366
  149SAPE  H18Z16475   4.232   4.207   4.746 -1.6892  0.3357  0.8944
  150SAPE     N16476   6.546   3.729   7.124  0.2468  0.2785 -0.1634
  150SAPE   HN116477   6.622   3.762   7.186 -0.6156 -1.1250  1.7477
  150SAPE   HN216478   6.459   3.740   7.180 -0.6806 -0.0963 -1.4583
  150SAPE   HN316479   6.564   3.630   7.101  0.9959  0.5154 -0.6260
  150SAPE   C1216480   6.523   3.816   6.999 -0.0510 -0.0782 -0.8273
  150SAPE  H12A16481   6.453   3.760   6.933 -0.0499  0.9960 -1.7642
  150SAPE  H12B16482   6.624   3.820   6.953 -0.0108 -2.5423 -1.0717
  150SAPE   C1116483   6.478   3.961   7.032 -0.2873 -0.2873 -0.0017
  150SAPE  H11A16484   6.372   3.966   7.065 -0.0933 -1.5490  0.9231
  150SAPE  H11B16485   6.486   4.019   6.938  0.6101 -1.2664 -0.5568
  150SAPE     P16486   6.707   4.104   7.095  0.0642  0.4031 -0.1334
  150SAPE   O1316487   6.701   4.246   7.129 -0.0583  0.0793 -0.2100
  150SAPE   O1416488   6.813   4.021   7.163  0.1532  0.3301 -0.3574
  150SAPE   O1216489   6.565   4.027   7.134  0.0752 -0.2177 -0.0114
  150SAPE   O1116490   6.718   4.089   6.934 -0.8521  0.4110 -0.5188
  150SAPE    C116491   6.814   4.160   6.858  0.2709  0.7919 -0.2530
  150SAPE    HA16492   6.782   4.144   6.753 -0.7837 -0.1232  0.1780
  150SAPE    HB16493   6.816   4.271   6.863  1.2436  0.7945 -0.4952
  150SAPE    C216494   6.957   4.091   6.872 -0.6741 -0.2372  0.0917
  150SAPE    HS16495   6.988   4.103   6.978 -0.6774 -1.4288  0.2328
  150SAPE   O2116496   7.056   4.153   6.784 -0.1778 -0.3319 -0.3110
  150SAPE   C2116497   7.092   4.280   6.827  0.2880 -0.5300  0.3136
  150SAPE   O2216498   7.078   4.321   6.942  0.6380 -0.3323  0.0074
  150SAPE   C2216499   7.155   4.358   6.718 -0.7009 -0.1945  0.0759
  150SAPE   H2R16500   7.216   4.291   6.654 -0.7758 -0.0755 -0.1198
  150SAPE   H2S16501   7.073   4.398   6.655  1.3700  2.6887 -1.0053
  150SAPE    C316502   6.956   3.943   6.850  0.1743 -0.0795 -0.0314
  150SAPE    HX16503   6.876   3.908   6.919 -2.0642  0.4296 -2.2386
  150SAPE    HY16504   7.048   3.891   6.884  0.1648 -0.7387 -0.9793
  150SAPE   O3116505   6.925   3.907   6.711 -0.2305 -0.0950 -0.2774
  150SAPE   C3116506   6.829   3.811   6.688 -0.8613  0.0467 -0.9536
  150SAPE   O3216507   6.772   3.745   6.775  0.5371 -0.2410 -0.0851
  150SAPE   C3216508   6.810   3.791   6.539  0.5125  0.4023  0.3162
  150SAPE   H2X16509   6.836   3.890   6.497 -2.1957  1.5520  1.0884
  150SAPE   H2Y16510   6.700   3.783   6.524  0.5942 -1.9762  0.5666
  150SAPE   C2316511   7.245   4.478   6.762  0.6414 -0.0167  0.6327
  150SAPE   H3R16512   7.306   4.427   6.840 -1.5143 -2.5033  0.8471
  150SAPE   H3S16513   7.184   4.556   6.813 -0.8793  0.1788 -1.3574
  150SAPE   C2416514   7.323   4.544   6.650  0.6167  0.0042 -0.0015
  150SAPE   H4R16515   7.341   4.642   6.699 -0.5587  1.7386 -2.8000
  150SAPE   H4S16516   7.263   4.568   6.559  2.9930  1.1482 -1.3436
  150SAPE   C2516517   7.454   4.483   6.622  1.0475  0.5265  0.4241
  150SAPE   H5R16518   7.517   4.467   6.710  1.5477  0.4196  0.0522
  150SAPE   C2616519   7.491   4.433   6.504 -0.3545  0.3728 -0.2984
  150SAPE   H6R16520   7.591   4.387   6.503 -1.5127 -2.3872  0.2973
  150SAPE   C2716521   7.416   4.429   6.373 -0.1158  0.0257  0.0655
  150SAPE   H7R16522   7.488   4.398   6.295  0.2717 -1.3345  0.9217
  150SAPE   H7S16523   7.364   4.525   6.353  0.0760 -0.2484 -1.9927
  150SAPE   C2816524   7.312   4.316   6.370 -0.4500  0.1181 -0.5773
  150SAPE   H8R16525   7.341   4.226   6.426  0.2764  1.2994  1.0428
  150SAPE   C2916526   7.190   4.328   6.308  0.4687 -0.1719  0.0139
  150SAPE   H9R16527   7.121   4.243   6.305  2.0754 -1.5193  0.0532
  150SAPE  C21016528   7.158   4.456   6.228  0.0353  0.0281  0.1918
  150SAPE  H10R16529   7.242   4.509   6.178 -1.2837  0.0280 -2.1485
  150SAPE  H10S16530   7.122   4.526   6.306  0.1949 -0.6362  0.8783
  150SAPE  C21116531   7.055   4.423   6.120  0.2386 -0.3338  0.0221
  150SAPE  H11R16532   7.075   4.377   6.021 -4.5859  0.7233 -1.7133
  150SAPE  C21216533   6.921   4.450   6.147 -0.1971 -0.5432 -0.6945
  150SAPE  H12R16534   6.845   4.415   6.076 -0.0008  0.4887 -1.4537
  150SAPE  C21316535   6.855   4.513   6.270  0.3524 -0.0745 -0.2327
  150SAPE  H13R16536   6.919   4.561   6.347 -0.0071 -0.0818  0.0728
  150SAPE  H13S16537   6.803   4.434   6.329 -0.2324 -0.7313 -1.5880
  150SAPE  C21416538   6.752   4.614   6.232  0.2287  0.5876  0.3227
  150SAPE  H14R16539   6.743   4.644   6.126 -1.2391 -3.3518 -0.8574
  150SAPE  C21516540   6.668   4.671   6.321 -0.6040 -0.0304 -0.1628
  150SAPE  H15R16541   6.594   4.742   6.281  1.0492  0.5987 -2.3038
  150SAPE  C21616542   6.655   4.635   6.468 -0.4800  0.2298 -0.4719
  150SAPE  H16R16543   6.654   4.524   6.471 -0.4849  0.2488  0.8681
  150SAPE  H16S16544   6.553   4.662   6.503  0.0870  3.7270 -1.1213
  150SAPE  C21716545   6.757   4.688   6.574 -0.2667 -1.0832 -1.2914
  150SAPE  H17R16546   6.773   4.797   6.556  3.4979 -1.3922 -0.6910
  150SAPE  H17S16547   6.857   4.640   6.565 -0.3181 -1.0114 -2.3822
  150SAPE  C21816548   6.706   4.668   6.717  0.2180  0.0008 -0.1946
  150SAPE  H18R16549   6.603   4.709   6.726  1.1885  2.2930  1.3892
  150SAPE  H18S16550   6.765   4.731   6.787 -1.5639 -1.0726  2.3938
  150SAPE  C21916551   6.700   4.525   6.777 -0.3585  0.0942  0.6386
  150SAPE  H19R16552   6.801   4.502   6.815 -0.1185 -0.4109 -0.2746
  150SAPE  H19S16553   6.686   4.460   6.688 -1.8186  1.2647 -0.0367
  150SAPE  C22016554   6.596   4.491   6.889 -0.0433 -0.4660  0.1461
  150SAPE  H20R16555   6.562   4.386   6.878 -1.1058 -0.2604  1.1996
  150SAPE  H20S16556   6.507   4.554   6.868  1.4400  0.7384 -3.3209
  150SAPE  H20T16557   6.627   4.503   6.994 -1.7421  0.1854  0.6205
  150SAPE   C3316558   6.887   3.667   6.498 -0.2523 -0.2278  0.1093
  150SAPE   H3X16559   6.854   3.575   6.551  1.8874 -1.5006 -0.6596
  150SAPE   H3Y16560   6.995   3.677   6.519 -0.0449 -0.7244 -0.6852
  150SAPE   C3416561   6.860   3.654   6.354 -0.0570  0.1831 -0.4994
  150SAPE   H4X16562   6.879   3.742   6.290 -0.8523  0.4601 -0.3716
  150SAPE   H4Y16563   6.754   3.628   6.334 -0.2231  2.1763 -2.6046
  150SAPE   C3516564   6.919   3.528   6.280 -0.1836 -0.0146  0.8187
  150SAPE   H5X16565   6.902   3.442   6.348 -0.0122  0.2900  1.2502
  150SAPE   H5Y16566   7.029   3.544   6.277 -0.0162 -1.0512  1.1368
  150SAPE   C3616567   6.857   3.514   6.140  0.6546 -0.2879  0.4154
  150SAPE   H6X16568   6.749   3.491   6.156 -0.6364  4.1944 -0.4558
  150SAPE   H6Y16569   6.905   3.429   6.088  1.0888 -1.3207  2.4001
  150SAPE   C3716570   6.868   3.632   6.040 -0.5983 -0.1936 -0.3448
  150SAPE   H7X16571   6.939   3.704   6.087  0.8226 -2.1667  0.7054
  150SAPE   H7Y16572   6.774   3.691   6.041 -0.0299  0.7937  1.3602
  150SAPE   C3816573   6.913   3.592   5.898 -0.5775 -0.3115 -0.9797
  150SAPE   H8X16574   6.858   3.497   5.879 -2.2609  0.8051 -1.9341
  150SAPE   H8Y16575   7.020   3.567   5.912 -0.2335  1.8406  0.6325
  150SAPE   C3916576   6.911   3.689   5.789  0.0759 -0.0920 -0.2877
  150SAPE   H9X16577   6.970   3.778   5.821  0.8333 -0.5704 -0.3355
  150SAPE   H9Y16578   6.809   3.723   5.761 -0.5241  0.0912  1.9390
  150SAPE  C31016579   6.969   3.643   5.657 -0.2945 -0.4270 -0.6718
  150SAPE  H10X16580   6.892   3.583   5.603 -0.1982 -0.1794 -1.0871
  150SAPE  H10Y16581   7.062   3.583   5.663 -1.2280 -1.8946 -0.3096
  150SAPE  C31116582   6.998   3.755   5.563  0.8082 -0.3357  0.2157
  150SAPE  H11X16583   7.070   3.836   5.590  1.0842 -0.4097 -0.2992
  150SAPE  H11Y16584   6.903   3.812   5.551  0.0453 -1.3685  1.1116
  150SAPE  C31216585   7.042   3.694   5.426 -0.4313 -0.1453 -0.2019
  150SAPE  H12X16586   6.958   3.633   5.388 -0.2594  0.2308 -1.2136
  150SAPE  H12Y16587   7.117   3.614   5.444 -1.0255 -0.8352 -0.7387
  150SAPE  C31316588   7.087   3.802   5.319 -0.1435  0.0676  0.8828
  150SAPE  H13X16589   6.997   3.862   5.292 -0.3088 -0.0443  1.1744
  150SAPE  H13Y16590   7.133   3.753   5.230  0.4450  0.0971  1.1658
  150SAPE  C31416591   7.193   3.905   5.363  0.6828  0.0994  0.6055
  150SAPE  H14X16592   7.275   3.847   5.410 -0.6854 -1.0489  1.6598
  150SAPE  H14Y16593   7.149   3.966   5.444  3.6274  0.0246  2.4119
  150SAPE  C31516594   7.254   3.992   5.246  0.0743 -0.5888  0.2043
  150SAPE  H15X16595   7.291   3.926   5.166 -1.0796  0.6439 -1.4282
  150SAPE  H15Y16596   7.337   4.058   5.280 -1.0341  0.7248  0.4612
  150SAPE  C31616597   7.141   4.075   5.181 -0.2013 -0.5337 -0.1734
  150SAPE  H16X16598   7.079   4.110   5.266  2.1403 -1.0967  1.8909
  150SAPE  H16Y16599   7.079   4.008   5.118  0.4520 -2.0717  0.7576
  150SAPE  C31716600   7.203   4.192   5.095  0.1689  0.3679  0.0276
  150SAPE  H17X16601   7.257   4.141   5.012 -1.0060 -0.3333 -0.3206
  150SAPE  H17Y16602   7.284   4.244   5.151  1.9491 -0.2491 -1.8498
  150SAPE  C31816603   7.097   4.288   5.039 -0.6575 -0.5137 -0.2481
  150SAPE  H18X16604   7.144   4.348   4.958  0.0040  0.1786  0.6301
  150SAPE  H18Y16605   7.058   4.349   5.123 -0.9133 -0.9716 -0.0305
  150SAPE  H18Z16606   7.008   4.236   4.998 -0.8835 -0.5374  0.2717
  151SAPE     N16607   6.800   0.775   7.261  0.6401  0.5672  0.3660
  151SAPE   HN116608   6.868   0.721   7.203  0.7499  0.5740  0.4868
  151SAPE   HN216609   6.738   0.829   7.198 -1.1497 -1.1781  0.5214
  151SAPE   HN316610   6.858   0.846   7.310  1.2799  0.3204 -0.0270
  151SAPE   C1216611   6.730   0.683   7.357 -0.6453  0.2593 -0.2598
  151SAPE  H12A16612   6.644   0.732   7.408 -2.0440 -1.3674 -0.9341
  151SAPE  H12B16613   6.801   0.666   7.440 -1.9023  1.5782  1.1567
  151SAPE   C1116614   6.691   0.546   7.290 -0.3001  0.2841 -0.1493
  151SAPE  H11A16615   6.649   0.487   7.374  1.9446 -2.7847 -0.9975
  151SAPE  H11B16616   6.790   0.501   7.270 -0.0221  0.3783  0.9617
  151SAPE     P16617   6.584   0.426   7.096 -0.1262 -0.3478 -0.5579
  151SAPE   O1316618   6.713   0.347   7.088  0.2076  0.1908  0.4309
  151SAPE   O1416619   6.478   0.353   7.175 -0.5412  0.0383  0.7574
  151SAPE   O1216620   6.609   0.559   7.173 -0.2996 -0.0060 -0.0822
  151SAPE   O1116621   6.538   0.467   6.948  0.3206 -0.5679 -0.1762
  151SAPE    C116622   6.633   0.532   6.863 -0.3545 -0.3810  0.0442
  151SAPE    HA16623   6.730   0.479   6.862  1.2165  2.2525  1.6581
  151SAPE    HB16624   6.596   0.528   6.758 -1.7532 -1.9380  0.5487
  151SAPE    C216625   6.671   0.685   6.896  0.2713 -0.2778  0.2146
  151SAPE    HS16626   6.707   0.674   7.001  1.9267 -1.4443 -0.4322
  151SAPE   O2116627   6.551   0.767   6.882  0.3170 -0.4089 -0.7175
  151SAPE   C2116628   6.544   0.863   6.970  0.1614 -0.5097 -0.2331
  151SAPE   O2216629   6.630   0.888   7.059 -0.4478  0.5662  0.3372
  151SAPE   C2216630   6.415   0.938   6.931  0.5818  0.3767  0.2143
  151SAPE   H2R16631   6.413   0.958   6.821 -0.5961  0.5031  0.2463
  151SAPE   H2S16632   6.328   0.871   6.947  1.0909 -0.0801  1.1683
  151SAPE    C316633   6.788   0.728   6.805 -0.2776  0.0697  0.7172
  151SAPE    HX16634   6.873   0.669   6.844 -0.7630 -0.0046  1.7020
  151SAPE    HY16635   6.810   0.836   6.824 -0.8085  0.3487 -0.1684
  151SAPE   O3116636   6.757   0.709   6.666 -0.2607  0.1578 -0.4947
  151SAPE   C3116637   6.683   0.794   6.594  0.2119  0.1986 -0.3548
  151SAPE   O3216638   6.641   0.905   6.636  0.5771  0.1371  0.1984
  151SAPE   C3216639   6.668   0.726   6.461  0.0752 -0.6703 -0.3560
  151SAPE   H2X16640   6.628   0.622   6.471 -0.0436 -0.8709 -2.4986
  151SAPE   H2Y16641   6.768   0.728   6.412  1.1730 -0.5757  1.7820
  151SAPE   C2316642   6.387   1.072   7.010  0.2404 -0.4744 -0.2004
  151SAPE   H3R16643   6.489   1.116   7.013  0.6403 -1.2914 -1.1569
  151SAPE   H3S16644   6.348   1.046   7.112  1.3198 -3.7810 -0.5057
  151SAPE   C2416645   6.289   1.172   6.937  0.2170  0.2170  0.4827
  151SAPE   H4R16646   6.339   1.184   6.839  0.4706 -1.0197  0.4468
  151SAPE   H4S16647   6.295   1.265   6.998  1.2960 -0.0047  0.7360
  151SAPE   C2516648   6.144   1.118   6.933  0.1644  0.1410  0.1386
  151SAPE   H5R16649   6.084   1.159   7.016  1.7950  3.1749 -0.0686
  151SAPE   C2616650   6.087   1.057   6.822 -0.1077 -0.6062 -0.0015
  151SAPE   H6R16651   5.981   1.029   6.822 -0.4240  0.4980  1.0070
  151SAPE   C2716652   6.151   1.000   6.696 -0.2669  0.5591  0.3633
  151SAPE   H7R16653   6.145   0.889   6.701 -1.8989  0.6612  1.3226
  151SAPE   H7S16654   6.257   1.035   6.700  0.5348 -1.5302 -0.7058
  151SAPE   C2816655   6.090   1.038   6.567  0.3375 -0.0961  0.4371
  151SAPE   H8R16656   6.049   1.140   6.572  2.5514  0.8177  1.3533
  151SAPE   C2916657   6.079   0.964   6.451  0.6241  0.0536  0.0754
  151SAPE   H9R16658   6.027   1.008   6.365 -0.3674 -0.0082  0.6361
  151SAPE  C21016659   6.132   0.820   6.431 -0.0595  1.0225 -0.1158
  151SAPE  H10R16660   6.201   0.795   6.514 -1.1956 -3.6890 -0.3137
  151SAPE  H10S16661   6.192   0.828   6.337  0.8248 -0.0917  0.3348
  151SAPE  C21116662   6.038   0.698   6.436  0.6196 -0.3207  1.2779
  151SAPE  H11R16663   5.969   0.701   6.521  1.6393  1.6429  2.1152
  151SAPE  C21216664   6.031   0.586   6.357 -0.3791  0.0939 -0.9151
  151SAPE  H12R16665   5.957   0.508   6.379 -0.5785  0.9178  1.7441
  151SAPE  C21316666   6.122   0.545   6.246 -0.2030  0.5630  0.1856
  151SAPE  H13R16667   6.199   0.474   6.283 -0.0962  0.9021  0.6242
  151SAPE  H13S16668   6.170   0.639   6.210 -0.7809  0.5542 -0.6184
  151SAPE  C21416669   6.033   0.482   6.144 -0.3828 -0.1442  0.0442
  151SAPE  H14R16670   6.001   0.382   6.178  0.1705 -0.2934  0.1309
  151SAPE  C21516671   5.973   0.534   6.032 -0.1362 -0.5668  0.2307
  151SAPE  H15R16672   5.912   0.462   5.976  0.7289 -1.3106  0.2165
  151SAPE  C21616673   6.003   0.663   5.960 -0.3142  0.3366  0.2418
  151SAPE  H16R16674   6.089   0.719   6.004  0.2148  2.6043 -3.2721
  151SAPE  H16S16675   5.917   0.733   5.963  1.6538  2.9971 -1.2550
  151SAPE  C21716676   6.042   0.635   5.814  0.3249 -0.0890 -0.1941
  151SAPE  H17R16677   5.976   0.555   5.773  1.0332 -1.4597  1.1811
  151SAPE  H17S16678   6.148   0.607   5.793  0.2671 -0.7896  0.4053
  151SAPE  C21816679   6.003   0.765   5.734 -0.1437  0.2760 -0.4005
  151SAPE  H18R16680   6.066   0.842   5.784 -0.3331 -0.4547  1.0158
  151SAPE  H18S16681   5.897   0.779   5.762  0.4172 -0.8676  2.7998
  151SAPE  C21916682   6.007   0.756   5.584  0.3163 -0.6812 -0.0219
  151SAPE  H19R16683   5.960   0.660   5.555  1.1226 -0.7688 -1.1287
  151SAPE  H19S16684   6.114   0.746   5.553  0.6708 -0.5751  1.1430
  151SAPE  C22016685   5.938   0.861   5.504  0.1732 -0.8329 -0.0576
  151SAPE  H20R16686   5.871   0.910   5.578  1.4536 -0.6320  1.0036
  151SAPE  H20S16687   5.870   0.814   5.430 -0.8257 -0.2324  0.4533
  151SAPE  H20T16688   6.002   0.939   5.456 -1.8986 -0.0682 -1.7220
  151SAPE   C3316689   6.571   0.796   6.360  0.4065  0.5875 -0.5260
  151SAPE   H3X16690   6.609   0.886   6.308 -0.3600  1.9821  1.2302
  151SAPE   H3Y16691   6.478   0.815   6.417  0.7584 -2.1050  1.1590
  151SAPE   C3416692   6.559   0.706   6.235  0.3991  0.4000 -0.7638
  151SAPE   H4X16693   6.525   0.604   6.264  0.8053  0.3602 -0.4247
  151SAPE   H4Y16694   6.661   0.694   6.192  0.5603 -2.8037  0.2768
  151SAPE   C3516695   6.450   0.768   6.142  0.3130 -0.0397  0.1227
  151SAPE   H5X16696   6.480   0.873   6.123 -0.5186 -0.1496 -2.0987
  151SAPE   H5Y16697   6.343   0.759   6.169  0.3049 -0.2478  0.0208
  151SAPE   C3616698   6.449   0.688   6.015  1.2590  0.3034 -0.4540
  151SAPE   H6X16699   6.386   0.727   5.932 -0.1130 -0.6827  0.0799
  151SAPE   H6Y16700   6.399   0.591   6.035 -1.5718  1.6481 -0.4637
  151SAPE   C3716701   6.586   0.651   5.957  0.0169  0.3203  0.4244
  151SAPE   H7X16702   6.621   0.562   6.014 -1.0824 -1.6595 -1.8101
  151SAPE   H7Y16703   6.656   0.736   5.967  1.8530 -1.2566  1.7779
  151SAPE   C3816704   6.577   0.603   5.814  0.4427  0.2035 -0.0324
  151SAPE   H8X16705   6.518   0.509   5.809  1.8732 -0.6732 -1.1496
  151SAPE   H8Y16706   6.680   0.586   5.777  0.4153 -0.0222 -0.0043
  151SAPE   C3916707   6.527   0.707   5.712  0.7906 -0.2641  0.5253
  151SAPE   H9X16708   6.587   0.801   5.721 -1.5762  1.2773  0.8965
  151SAPE   H9Y16709   6.424   0.742   5.732  1.4966  2.0582  0.3972
  151SAPE  C31016710   6.536   0.659   5.562  0.1143  0.5427 -0.1497
  151SAPE  H10X16711   6.528   0.549   5.553 -2.1944  0.6562 -0.1963
  151SAPE  H10Y16712   6.636   0.690   5.523  0.0255  1.0467  0.0125
  151SAPE  C31116713   6.425   0.717   5.471  0.1724 -0.2229 -0.1283
  151SAPE  H11X16714   6.421   0.828   5.470 -2.3906 -0.2521 -0.4774
  151SAPE  H11Y16715   6.329   0.670   5.501  0.9649 -1.9563 -0.2000
  151SAPE  C31216716   6.454   0.664   5.331 -0.3845 -0.0628 -0.3744
  151SAPE  H12X16717   6.466   0.554   5.342  1.2048  0.2144  1.0928
  151SAPE  H12Y16718   6.555   0.698   5.301 -0.0056 -0.8610 -0.0223
  151SAPE  C31316719   6.342   0.687   5.231 -0.0877  0.0603 -0.4007
  151SAPE  H13X16720   6.240   0.658   5.264 -0.6203  1.2339 -0.9581
  151SAPE  H13Y16721   6.366   0.612   5.153 -0.0171 -1.1604  0.7693
  151SAPE  C31416722   6.333   0.836   5.189 -0.1359  0.8563 -0.3101
  151SAPE  H14X16723   6.430   0.873   5.150 -0.7080  1.3193 -1.3275
  151SAPE  H14Y16724   6.306   0.894   5.280  2.4705  0.4484  0.7888
  151SAPE  C31516725   6.224   0.861   5.086  0.6759  0.1625  0.3296
  151SAPE  H15X16726   6.251   0.815   4.988 -2.1997 -0.5878 -0.1974
  151SAPE  H15Y16727   6.224   0.972   5.083  0.2983  0.1516 -0.4029
  151SAPE  C31616728   6.081   0.824   5.128 -0.3834 -0.4516 -0.6149
  151SAPE  H16X16729   6.048   0.863   5.227  1.1861 -0.0984 -0.2071
  151SAPE  H16Y16730   6.067   0.715   5.144 -3.0713 -0.0785  0.1434
  151SAPE  C31716731   5.982   0.877   5.022  0.5710  0.6053 -0.4168
  151SAPE  H17X16732   6.018   0.867   4.917  1.0327  2.4678 -0.4584
  151SAPE  H17Y16733   5.979   0.987   5.032 -1.0353  0.7927 -2.3577
  151SAPE  C31816734   5.836   0.827   5.038  0.1080 -0.0420 -0.6927
  151SAPE  H18X16735   5.813   0.821   5.147 -0.3320  0.6486 -0.7430
  151SAPE  H18Y16736   5.820   0.732   4.982  1.0908 -0.8087  0.2811
  151SAPE  H18Z16737   5.762   0.900   5.001  0.1151 -1.2104 -3.2097
  152SAPE     N16738   1.383   3.766   6.980  0.2288  0.4470 -0.1414
  152SAPE   HN116739   1.457   3.715   6.928 -0.5141  0.3342 -1.1229
  152SAPE   HN216740   1.324   3.704   7.040 -0.8068  1.4145 -0.1131
  152SAPE   HN316741   1.323   3.807   6.905  0.0895  0.7553  0.1347
  152SAPE   C1216742   1.435   3.884   7.044 -0.1311 -0.3004 -0.8039
  152SAPE  H12A16743   1.502   3.873   7.131 -1.7985  0.7139  0.6856
  152SAPE  H12B16744   1.354   3.944   7.091  0.8519  2.1441 -2.0486
  152SAPE   C1116745   1.508   3.972   6.946  0.2074  0.5694 -0.3478
  152SAPE  H11A16746   1.600   3.917   6.917  0.2147  0.5181 -0.2288
  152SAPE  H11B16747   1.532   4.072   6.988  0.4417  0.2782  0.2163
  152SAPE     P16748   1.382   4.126   6.775 -0.4099 -0.2228  0.4341
  152SAPE   O1316749   1.297   4.191   6.875 -0.3763  0.9008 -0.0325
  152SAPE   O1416750   1.503   4.196   6.736  0.7888 -0.2351  0.1499
  152SAPE   O1216751   1.425   3.987   6.828  0.2171  0.3089  0.3983
  152SAPE   O1116752   1.312   4.095   6.641  0.4351 -0.6494  0.2781
  152SAPE    C116753   1.307   3.972   6.571  0.8806 -0.7753  0.4139
  152SAPE    HA16754   1.364   3.886   6.612 -1.7697 -2.4710  0.7571
  152SAPE    HB16755   1.203   3.937   6.586  0.6713 -0.6619 -0.7428
  152SAPE    C216756   1.334   4.000   6.424 -0.0813 -0.0528  0.6103
  152SAPE    HS16757   1.273   4.091   6.409 -1.0289 -0.4861  1.7030
  152SAPE   O2116758   1.285   3.887   6.349  0.2451  0.9814 -0.2737
  152SAPE   C2116759   1.232   3.913   6.234  0.3585 -0.0112 -0.2015
  152SAPE   O2216760   1.225   4.021   6.181 -0.4376  0.4044 -0.0378
  152SAPE   C2216761   1.188   3.780   6.165 -0.5005  0.1095  0.6806
  152SAPE   H2R16762   1.238   3.694   6.214 -0.4504 -1.6178 -2.1355
  152SAPE   H2S16763   1.079   3.765   6.178 -0.5160  1.4712  2.4427
  152SAPE    C316764   1.487   4.035   6.385  0.1925 -0.1260 -0.7719
  152SAPE    HX16765   1.531   3.934   6.396 -1.5222 -0.8814 -0.5249
  152SAPE    HY16766   1.530   4.111   6.454  0.9230 -1.0952 -0.1318
  152SAPE   O3116767   1.500   4.075   6.252 -0.0232 -0.2255  0.6529
  152SAPE   C3116768   1.476   4.199   6.220  0.3268  0.4201  0.9451
  152SAPE   O3216769   1.460   4.294   6.291 -0.9420 -0.3128 -0.3065
  152SAPE   C3216770   1.485   4.205   6.058  0.7163 -0.0994 -0.5338
  152SAPE   H2X16771   1.453   4.111   6.007  0.7757 -0.4991  0.1431
  152SAPE   H2Y16772   1.593   4.212   6.036  0.5925 -0.8627 -1.4509
  152SAPE   C2316773   1.225   3.774   6.008 -0.6247  0.4608 -0.7036
  152SAPE   H3R16774   1.217   3.670   5.971 -1.8285  1.0840 -2.3207
  152SAPE   H3S16775   1.332   3.803   5.997  0.1709 -1.6321  0.8525
  152SAPE   C2416776   1.126   3.859   5.928  0.3718  0.0657 -0.0711
  152SAPE   H4R16777   1.130   3.966   5.959 -0.1392 -1.0860  4.6001
  152SAPE   H4S16778   1.028   3.812   5.948 -0.5326  1.3412 -1.2810
  152SAPE   C2516779   1.166   3.858   5.782 -0.4718  0.6098 -0.4618
  152SAPE   H5R16780   1.274   3.872   5.770 -0.6750  2.1383 -0.7899
  152SAPE   C2616781   1.083   3.833   5.673  0.2916 -0.1163 -0.3496
  152SAPE   H6R16782   1.128   3.824   5.573 -1.7400 -1.9131 -1.1873
  152SAPE   C2716783   0.935   3.814   5.669  0.1628  0.4429 -0.1733
  152SAPE   H7R16784   0.896   3.883   5.746  0.1818  0.8558 -0.5355
  152SAPE   H7S16785   0.912   3.707   5.691 -0.8345  0.3362 -1.5972
  152SAPE   C2816786   0.876   3.845   5.539  0.2308 -0.4187 -1.2127
  152SAPE   H8R16787   0.930   3.801   5.454 -2.3797 -3.0550 -1.6420
  152SAPE   C2916788   0.761   3.900   5.510 -0.1169 -0.0199 -0.3688
  152SAPE   H9R16789   0.725   3.915   5.407 -2.2825 -3.1595 -0.2182
  152SAPE  C21016790   0.655   3.946   5.616 -0.5859  0.0172 -0.3456
  152SAPE  H10R16791   0.651   3.872   5.699 -1.4137  1.1007  0.6327
  152SAPE  H10S16792   0.555   3.950   5.567 -0.2539  1.0311 -0.9652
  152SAPE  C21116793   0.676   4.081   5.682  0.0190 -0.0566  0.0528
  152SAPE  H11R16794   0.696   4.069   5.790  0.7588  1.3028  0.0918
  152SAPE  C21216795   0.681   4.204   5.630 -0.2618  0.3359 -0.1613
  152SAPE  H12R16796   0.687   4.290   5.700 -1.5930  0.2491  0.0755
  152SAPE  C21316797   0.651   4.234   5.486 -0.9366  0.2023  0.3098
  152SAPE  H13R16798   0.542   4.231   5.463 -0.6265 -0.5463 -1.1828
  152SAPE  H13S16799   0.687   4.150   5.423 -3.7811 -1.3968  0.5995
  152SAPE  C21416800   0.700   4.370   5.433  0.3685  0.3173 -0.2680
  152SAPE  H14R16801   0.653   4.454   5.487  0.3059  0.7531 -0.9888
  152SAPE  C21516802   0.757   4.406   5.311  0.3632 -0.4608 -1.0104
  152SAPE  H15R16803   0.785   4.512   5.304  2.5243 -0.9398 -0.3906
  152SAPE  C21616804   0.814   4.307   5.212  0.7980 -0.3233  0.5696
  152SAPE  H16R16805   0.767   4.330   5.114  2.8970  3.5133  0.2614
  152SAPE  H16S16806   0.795   4.202   5.245  0.1801 -2.0628 -4.4463
  152SAPE  C21716807   0.966   4.326   5.187 -0.1596 -0.3521 -0.7417
  152SAPE  H17R16808   1.020   4.310   5.283 -1.0819 -0.7430 -0.2740
  152SAPE  H17S16809   0.992   4.432   5.169 -0.3852  0.0351  1.0518
  152SAPE  C21816810   1.018   4.235   5.077  0.2175  0.1794  0.0418
  152SAPE  H18R16811   0.979   4.132   5.086 -0.6015  0.3505 -1.3051
  152SAPE  H18S16812   1.128   4.224   5.090  0.7838  1.2825 -2.9451
  152SAPE  C21916813   0.988   4.277   4.933 -0.2329 -0.1530 -0.0161
  152SAPE  H19R16814   1.058   4.360   4.907 -0.0783 -0.5875 -1.0566
  152SAPE  H19S16815   0.883   4.312   4.932 -0.5269 -1.0055  0.6709
  152SAPE  C22016816   1.012   4.165   4.823 -0.3422  0.1378  0.2477
  152SAPE  H20R16817   1.116   4.131   4.839 -0.5743 -0.0239  1.4579
  152SAPE  H20S16818   1.006   4.206   4.720  0.3610 -1.6434 -0.5423
  152SAPE  H20T16819   0.943   4.082   4.849  0.8737 -1.3111 -0.9579
  152SAPE   C3316820   1.405   4.318   5.992 -0.6680  0.4273 -0.9902
  152SAPE   H3X16821   1.435   4.421   6.021 -2.3740  1.0575 -1.3465
  152SAPE   H3Y16822   1.299   4.303   6.020 -0.5787  0.3815 -0.6727
  152SAPE   C3416823   1.422   4.329   5.843  0.6575 -0.0571  0.1478
  152SAPE   H4X16824   1.531   4.326   5.821  1.0876  0.0058  2.0845
  152SAPE   H4Y16825   1.373   4.426   5.818 -1.3124 -0.7394  1.1320
  152SAPE   C3516826   1.344   4.223   5.763  0.4490  0.2345  0.3469
  152SAPE   H5X16827   1.238   4.238   5.791  0.5872 -1.4260  1.9713
  152SAPE   H5Y16828   1.376   4.119   5.786 -2.2113 -0.7119  0.0147
  152SAPE   C3616829   1.361   4.241   5.618 -0.2698  0.1761  0.3719
  152SAPE   H6X16830   1.470   4.227   5.600 -0.1632 -0.3842  1.3476
  152SAPE   H6Y16831   1.343   4.347   5.590 -1.3425  0.2454  1.2454
  152SAPE   C3716832   1.280   4.145   5.530 -0.5049 -1.0093 -0.0930
  152SAPE   H7X16833   1.188   4.204   5.511 -0.2831 -1.1588 -1.8179
  152SAPE   H7Y16834   1.258   4.057   5.594 -1.0714 -0.8661 -0.0930
  152SAPE   C3816835   1.344   4.136   5.395 -0.4313  0.6935  0.5864
  152SAPE   H8X16836   1.281   4.062   5.342 -1.4962  0.2223  2.3924
  152SAPE   H8Y16837   1.443   4.088   5.408 -0.6733  0.5876  2.2877
  152SAPE   C3916838   1.349   4.262   5.307 -0.1316  0.2340  0.4722
  152SAPE   H9X16839   1.437   4.318   5.345  2.2657 -2.4742 -0.6973
  152SAPE   H9Y16840   1.250   4.313   5.301  0.6282  1.7021 -0.0449
  152SAPE  C31016841   1.396   4.233   5.160  0.4088  0.2367  0.4371
  152SAPE  H10X16842   1.381   4.333   5.114  1.1361  1.1095  2.0277
  152SAPE  H10Y16843   1.328   4.159   5.112 -0.9068  1.1534  0.8456
  152SAPE  C31116844   1.541   4.182   5.135  0.2480  0.3421  0.1281
  152SAPE  H11X16845   1.561   4.076   5.162 -0.0224  0.0134 -0.8982
  152SAPE  H11Y16846   1.608   4.247   5.195  1.7239 -1.1683  0.1837
  152SAPE  C31216847   1.565   4.189   4.981  0.1600  0.2763  0.3939
  152SAPE  H12X16848   1.560   4.297   4.956  0.1157  0.6593  1.9491
  152SAPE  H12Y16849   1.476   4.142   4.934 -0.7330  1.5660  0.7560
  152SAPE  C31316850   1.697   4.126   4.939 -0.1373  0.4158  0.4817
  152SAPE  H13X16851   1.689   4.017   4.957  0.4282  0.1037 -1.0180
  152SAPE  H13Y16852   1.781   4.158   5.003 -0.0055 -0.2884  0.6649
  152SAPE  C31416853   1.728   4.149   4.788 -0.6191 -0.1929 -0.0758
  152SAPE  H14X16854   1.752   4.255   4.765  1.7328 -0.6936 -0.1895
  152SAPE  H14Y16855   1.643   4.112   4.727  0.4926 -1.3980 -0.9482
  152SAPE  C31516856   1.858   4.067   4.755  0.8374  0.5198 -0.2407
  152SAPE  H15X16857   1.931   4.058   4.838 -1.2113 -2.0452  1.4387
  152SAPE  H15Y16858   1.901   4.121   4.667  1.1746 -0.0773 -0.4471
  152SAPE  C31616859   1.836   3.910   4.730  0.2221 -0.6356 -0.3814
  152SAPE  H16X16860   1.765   3.899   4.645  0.5901 -1.4159 -0.6023
  152SAPE  H16Y16861   1.788   3.872   4.823 -1.2876  1.4655 -0.2274
  152SAPE  C31716862   1.959   3.819   4.704 -0.4759 -0.1376  0.0454
  152SAPE  H17X16863   1.931   3.712   4.711  3.2880 -1.1115  3.3015
  152SAPE  H17Y16864   2.026   3.830   4.792  0.2249 -1.4856 -0.2846
  152SAPE  C31816865   2.030   3.874   4.583  0.1032 -0.3055  0.6731
  152SAPE  H18X16866   1.958   3.888   4.500  1.5789 -2.4191 -1.1115
  152SAPE  H18Y16867   2.101   3.802   4.536 -0.3421  1.6237 -3.3464
  152SAPE  H18Z16868   2.077   3.973   4.599  1.2467 -0.9633  1.6176
  153SAPE     N16869   0.221   2.826   7.725  0.1690 -0.0246 -0.5657
  153SAPE   HN116870   0.184   2.743   7.777 -1.9163  0.9935 -0.3144
  153SAPE   HN216871   0.233   2.903   7.793  0.2068  0.1880 -0.8124
  153SAPE   HN316872   0.149   2.857   7.657 -1.2366  1.0457  1.3281
  153SAPE   C1216873   0.344   2.800   7.649 -0.0508 -0.2513  0.4326
  153SAPE  H12A16874   0.329   2.707   7.590  1.9943 -0.1496 -0.3369
  153SAPE  H12B16875   0.431   2.770   7.712  0.8764 -1.8346 -1.4724
  153SAPE   C1116876   0.386   2.920   7.554  0.0928 -0.1572  0.6202
  153SAPE  H11A16877   0.468   2.878   7.492 -1.3630 -1.5403 -0.4393
  153SAPE  H11B16878   0.419   2.989   7.635 -2.1415 -2.1519  3.4805
  153SAPE     P16879   0.228   2.928   7.330 -0.2044 -0.3632  0.2769
  153SAPE   O1316880   0.231   2.785   7.303 -0.0301 -0.1681 -0.0911
  153SAPE   O1416881   0.092   2.986   7.315 -0.4525  0.2119 -0.5722
  153SAPE   O1216882   0.280   2.975   7.475 -0.4099 -0.3171  0.3801
  153SAPE   O1116883   0.339   2.994   7.248  0.6233  0.6546  0.9602
  153SAPE    C116884   0.458   2.929   7.208 -0.1889 -0.1870 -0.8082
  153SAPE    HA16885   0.545   2.997   7.218  2.0684 -2.8122 -1.4847
  153SAPE    HB16886   0.491   2.847   7.276  0.3657  0.3238 -0.4510
  153SAPE    C216887   0.455   2.869   7.063  0.4738  0.1210 -0.7215
  153SAPE    HS16888   0.543   2.801   7.065 -0.1734 -0.7446 -1.0828
  153SAPE   O2116889   0.471   2.969   6.961  0.6410 -0.5021  0.7025
  153SAPE   C2116890   0.588   3.002   6.929  0.0445 -0.2214  0.1351
  153SAPE   O2216891   0.691   2.974   6.995  0.5878 -0.3331 -0.2596
  153SAPE   C2216892   0.587   3.069   6.796 -0.0880 -0.7970 -0.3088
  153SAPE   H2R16893   0.571   2.992   6.718  1.2698  0.8406 -2.3429
  153SAPE   H2S16894   0.504   3.143   6.798  1.3228  1.0349 -2.7831
  153SAPE    C316895   0.338   2.780   7.018  0.0123 -0.2898  0.6986
  153SAPE    HX16896   0.246   2.842   7.025  1.0493  1.4172  0.0346
  153SAPE    HY16897   0.334   2.699   7.093 -2.1637 -1.2704 -0.3974
  153SAPE   O3116898   0.356   2.740   6.875 -0.3055 -0.3515 -1.0055
  153SAPE   C3116899   0.274   2.639   6.856  0.4873 -0.1665  0.1183
  153SAPE   O3216900   0.200   2.584   6.940  0.2970  0.1805  0.1065
  153SAPE   C3216901   0.310   2.579   6.721 -0.2075 -0.0983 -0.5336
  153SAPE   H2X16902   0.216   2.524   6.701 -0.0487 -1.1007  1.2993
  153SAPE   H2Y16903   0.395   2.509   6.736  0.2465  0.1958 -1.5948
  153SAPE   C2316904   0.713   3.153   6.774 -0.1502  0.3229  0.1048
  153SAPE   H3R16905   0.798   3.084   6.752  1.1340  2.1534 -1.0215
  153SAPE   H3S16906   0.726   3.208   6.869 -2.0308  1.0024  0.0120
  153SAPE   C2416907   0.689   3.232   6.645 -0.2858 -0.6248 -0.2172
  153SAPE   H4R16908   0.740   3.330   6.661  0.3247 -1.0687  0.6595
  153SAPE   H4S16909   0.583   3.264   6.654 -0.0707  0.1283 -0.2568
  153SAPE   C2516910   0.714   3.167   6.510  0.0887 -0.3049  0.5303
  153SAPE   H5R16911   0.811   3.115   6.502 -0.2765 -0.9786  0.4460
  153SAPE   C2616912   0.627   3.165   6.407 -0.3519 -0.0653  0.5197
  153SAPE   H6R16913   0.654   3.124   6.309 -0.1767 -2.1320  1.3772
  153SAPE   C2716914   0.492   3.227   6.404  0.6399  0.0598  1.0479
  153SAPE   H7R16915   0.460   3.234   6.510  0.7852 -3.3674  1.4372
  153SAPE   H7S16916   0.422   3.151   6.362 -0.3515  1.3776  0.2387
  153SAPE   C2816917   0.476   3.347   6.324  0.3369 -0.3416 -0.6451
  153SAPE   H8R16918   0.487   3.443   6.377  0.2270 -0.2210 -0.8386
  153SAPE   C2916919   0.439   3.353   6.195 -0.3729 -0.0259  0.1185
  153SAPE   H9R16920   0.439   3.453   6.150  2.5294 -1.0144 -2.4031
  153SAPE  C21016921   0.427   3.240   6.098 -0.8336 -0.5271 -0.8455
  153SAPE  H10R16922   0.433   3.143   6.152  2.4037 -1.3409 -2.4134
  153SAPE  H10S16923   0.521   3.232   6.039  1.0661  0.2773  1.8690
  153SAPE  C21116924   0.304   3.250   6.010  0.5848  1.2025 -0.4763
  153SAPE  H11R16925   0.211   3.212   6.055 -1.2160  2.1260 -3.1267
  153SAPE  C21216926   0.303   3.269   5.874 -0.0651  0.0021 -0.5150
  153SAPE  H12R16927   0.207   3.280   5.822 -1.0564 -1.5569  0.8758
  153SAPE  C21316928   0.421   3.290   5.790 -0.6912  0.0905  0.2107
  153SAPE  H13R16929   0.383   3.310   5.687 -0.7402 -1.1900 -0.0368
  153SAPE  H13S16930   0.481   3.197   5.796  0.6224  0.9090  0.3794
  153SAPE  C21416931   0.515   3.405   5.826 -0.1077 -0.7732  0.0877
  153SAPE  H14R16932   0.556   3.397   5.927 -1.0114 -3.0214  0.3392
  153SAPE  C21516933   0.540   3.512   5.743 -0.3054 -0.0375  0.1074
  153SAPE  H15R16934   0.618   3.584   5.774  0.5219 -0.0677 -1.7638
  153SAPE  C21616935   0.500   3.543   5.601 -0.5590 -0.3047 -0.0270
  153SAPE  H16R16936   0.460   3.646   5.592 -2.5682 -1.0505 -0.0403
  153SAPE  H16S16937   0.419   3.477   5.563 -0.9411  0.8732 -1.3382
  153SAPE  C21716938   0.629   3.529   5.519 -0.5093  0.1034  0.8174
  153SAPE  H17R16939   0.673   3.429   5.542 -1.1196 -0.2009  0.6843
  153SAPE  H17S16940   0.707   3.603   5.547  1.4525 -1.2188 -0.8046
  153SAPE  C21816941   0.604   3.532   5.363  0.0015 -0.0283  0.6647
  153SAPE  H18R16942   0.707   3.539   5.322 -0.7757  2.1367 -1.1169
  153SAPE  H18S16943   0.564   3.630   5.331  0.9231  0.1447  0.0040
  153SAPE  C21916944   0.511   3.425   5.303 -1.3042 -0.1488 -0.2785
  153SAPE  H19R16945   0.544   3.407   5.199  1.9811 -0.9674  0.8026
  153SAPE  H19S16946   0.406   3.461   5.304 -1.0101  0.7237  0.7535
  153SAPE  C22016947   0.511   3.286   5.371 -0.1090 -0.4329 -0.1484
  153SAPE  H20R16948   0.615   3.247   5.372 -0.0056 -0.1992  1.4095
  153SAPE  H20S16949   0.443   3.215   5.318 -1.6654 -0.2267  1.4496
  153SAPE  H20T16950   0.488   3.287   5.480  1.4601 -1.2791  0.2287
  153SAPE   C3316951   0.346   2.687   6.618  0.2911  0.3323  0.2284
  153SAPE   H3X16952   0.363   2.634   6.522 -0.2770 -1.1720  0.9310
  153SAPE   H3Y16953   0.444   2.734   6.641  0.3946  1.4336 -2.0715
  153SAPE   C3416954   0.239   2.798   6.607  0.5121 -0.4078  0.5260
  153SAPE   H4X16955   0.229   2.857   6.700 -1.3394 -0.6338  0.5126
  153SAPE   H4Y16956   0.139   2.750   6.601 -0.1269  1.0286 -1.6370
  153SAPE   C3516957   0.264   2.898   6.496 -0.2307 -0.5899 -0.7988
  153SAPE   H5X16958   0.368   2.935   6.487 -0.7709  1.0818 -0.4455
  153SAPE   H5Y16959   0.201   2.989   6.508  3.3574  1.8500  1.2199
  153SAPE   C3616960   0.235   2.834   6.353 -0.2117  0.1042 -0.8202
  153SAPE   H6X16961   0.139   2.778   6.363  0.1786 -0.0636  5.7281
  153SAPE   H6Y16962   0.320   2.764   6.340 -0.3582 -0.6306  1.7248
  153SAPE   C3716963   0.224   2.943   6.242 -0.1352  0.3170 -0.1389
  153SAPE   H7X16964   0.324   2.989   6.232 -0.0721 -0.1448 -1.9016
  153SAPE   H7Y16965   0.142   3.012   6.274  0.0500  0.2373  0.5319
  153SAPE   C3816966   0.184   2.894   6.100  0.4793 -0.2899 -0.1884
  153SAPE   H8X16967   0.178   2.987   6.039  3.1992  1.3391  1.7936
  153SAPE   H8Y16968   0.093   2.831   6.111 -0.2137  0.5261 -1.0214
  153SAPE   C3916969   0.300   2.812   6.035  0.7466  0.0877  0.0462
  153SAPE   H9X16970   0.338   2.737   6.107 -0.7519 -1.2261 -0.4691
  153SAPE   H9Y16971   0.374   2.892   6.011  0.4078 -0.0457 -1.5387
  153SAPE  C31016972   0.270   2.739   5.907  0.0919 -0.0629 -0.0996
  153SAPE  H10X16973   0.175   2.686   5.931 -0.1366  0.4155  0.0673
  153SAPE  H10Y16974   0.347   2.667   5.871 -0.1246 -0.0328 -0.6361
  153SAPE  C31116975   0.235   2.831   5.788 -0.2733 -0.0861 -0.7593
  153SAPE  H11X16976   0.308   2.915   5.781 -2.4791  1.9361 -0.8741
  153SAPE  H11Y16977   0.144   2.889   5.815 -0.5141 -0.4274 -0.8296
  153SAPE  C31216978   0.231   2.752   5.649  0.8834 -0.3167 -0.0914
  153SAPE  H12X16979   0.138   2.693   5.640 -0.3740  1.8537 -5.1144
  153SAPE  H12Y16980   0.317   2.683   5.637 -0.3968 -2.0923  0.4945
  153SAPE  C31316981   0.213   2.846   5.521 -0.1657 -0.1972  0.4518
  153SAPE  H13X16982   0.300   2.915   5.507 -0.2419  0.3331  2.2934
  153SAPE  H13Y16983   0.130   2.916   5.545 -0.1457  0.4494 -1.2361
  153SAPE  C31416984   0.185   2.775   5.383  0.5208 -0.9629 -0.0956
  153SAPE  H14X16985   0.087   2.723   5.380  0.4050 -0.7363 -2.8060
  153SAPE  H14Y16986   0.259   2.693   5.367  1.3434 -0.8764  2.6638
  153SAPE  C31516987   0.198   2.874   5.267 -0.0581 -0.0238 -0.3983
  153SAPE  H15X16988   0.294   2.929   5.271  0.3616 -0.7006  3.5571
  153SAPE  H15Y16989   0.116   2.949   5.278  0.8429  0.8137  0.9390
  153SAPE  C31616990   0.166   2.806   5.130  0.5387 -0.8615 -0.2109
  153SAPE  H16X16991   0.138   2.876   5.049 -0.3306 -1.2412 -0.2501
  153SAPE  H16Y16992   0.069   2.754   5.150  0.1349  0.1122  0.4196
  153SAPE  C31716993   0.275   2.706   5.081 -0.8282 -0.5049  0.8157
  153SAPE  H17X16994   0.317   2.653   5.170  0.7592 -0.7477 -0.0427
  153SAPE  H17Y16995   0.367   2.765   5.058 -0.3680 -0.3737  2.7580
  153SAPE  C31816996   0.228   2.613   4.967 -0.0398  0.0086 -0.7701
  153SAPE  H18X16997   0.147   2.555   5.017  0.2923 -0.3035 -0.5897
  153SAPE  H18Y16998   0.303   2.548   4.917 -0.7329 -2.1067  0.7763
  153SAPE  H18Z16999   0.170   2.659   4.885  0.4134  1.7293 -0.1694
  154SAPE     N17000   0.093   0.173   6.970  0.1682  0.3699  0.0883
  154SAPE   HN117001   0.087   0.187   6.867 -1.1531 -0.1243  0.0829
  154SAPE   HN217002   0.060   0.078   6.994  2.5643 -0.6642 -0.4225
  154SAPE   HN317003   0.026   0.229   7.027  1.5878  0.9021  1.2759
  154SAPE   C1217004   0.227   0.195   7.029 -0.1439  0.0642 -0.2747
  154SAPE  H12A17005   0.301   0.116   7.003 -0.5445 -2.2302  4.5117
  154SAPE  H12B17006   0.222   0.201   7.140 -1.1220  1.7263 -0.3731
  154SAPE   C1117007   0.284   0.334   6.975 -0.4069 -0.0383 -0.2027
  154SAPE  H11A17008   0.290   0.322   6.865  0.0448  0.3162 -0.2190
  154SAPE  H11B17009   0.386   0.330   7.020 -1.0341 -0.7224  1.2443
  154SAPE     P17010   0.261   0.554   7.115 -0.0387  0.0251  0.4000
  154SAPE   O1317011   0.186   0.682   7.105  0.2868  0.8945 -0.2450
  154SAPE   O1417012   0.262   0.483   7.243  1.0657 -0.2379 -0.7608
  154SAPE   O1217013   0.209   0.451   7.001 -0.4561  0.1839  0.0088
  154SAPE   O1117014   0.414   0.568   7.080 -0.3270 -0.1030 -0.4382
  154SAPE    C117015   0.475   0.665   6.996 -0.3940  0.0115  0.0118
  154SAPE    HA17016   0.424   0.763   6.995  2.0469  1.4186  1.8424
  154SAPE    HB17017   0.574   0.694   7.038 -1.2162  0.7515  1.5468
  154SAPE    C217018   0.489   0.611   6.846 -0.9771 -0.0719 -0.4344
  154SAPE    HS17019   0.537   0.696   6.794 -1.7918  1.2302  0.8616
  154SAPE   O2117020   0.360   0.578   6.792  0.4602  0.1912 -0.3101
  154SAPE   C2117021   0.341   0.569   6.667  0.1731  0.3156 -1.3063
  154SAPE   O2217022   0.409   0.612   6.577 -0.3044  0.2192  0.3674
  154SAPE   C2217023   0.205   0.513   6.635  0.3832  0.8521  0.3105
  154SAPE   H2R17024   0.151   0.493   6.730 -0.7052 -0.0883 -0.4698
  154SAPE   H2S17025   0.143   0.583   6.577  1.1712  1.0017 -0.3707
  154SAPE    C317026   0.598   0.499   6.839 -0.5029  0.2609  0.5504
  154SAPE    HX17027   0.580   0.414   6.908 -0.3606  0.0654  0.3517
  154SAPE    HY17028   0.698   0.540   6.866  1.1024 -1.4742 -2.1845
  154SAPE   O3117029   0.607   0.433   6.705  0.5626  0.8572  0.3241
  154SAPE   C3117030   0.715   0.459   6.634  0.1721 -0.0003 -0.9230
  154SAPE   O3217031   0.800   0.545   6.659 -0.4982 -0.0039 -0.7323
  154SAPE   C3217032   0.710   0.382   6.503  1.0117  0.1808  0.3731
  154SAPE   H2X17033   0.604   0.370   6.472  1.7027  1.5991 -3.0267
  154SAPE   H2Y17034   0.751   0.284   6.536  2.6344  0.1142 -1.6458
  154SAPE   C2317035   0.204   0.378   6.556  0.3567 -0.6656  0.2703
  154SAPE   H3R17036   0.100   0.339   6.552  0.3192 -0.8286  2.0532
  154SAPE   H3S17037   0.251   0.301   6.620 -0.6993 -0.7830  0.9136
  154SAPE   C2417038   0.251   0.384   6.411 -0.6739  0.0465 -0.9257
  154SAPE   H4R17039   0.247   0.279   6.375  0.5900  0.6424 -2.9280
  154SAPE   H4S17040   0.358   0.410   6.399 -0.6973 -0.5538 -2.8153
  154SAPE   C2517041   0.166   0.481   6.336 -0.2312 -0.2786 -0.6418
  154SAPE   H5R17042   0.180   0.584   6.371  0.7777 -0.5093 -0.3257
  154SAPE   C2617043   0.081   0.444   6.241  0.2251  0.4605  0.0015
  154SAPE   H6R17044   0.030   0.523   6.185  1.0858  0.3858 -0.9049
  154SAPE   C2717045   0.068   0.303   6.180  0.2553 -0.1902 -0.3774
  154SAPE   H7R17046  -0.037   0.286   6.148 -0.2777 -0.4056  1.3828
  154SAPE   H7S17047   0.069   0.220   6.255 -0.7419 -1.1870 -1.4285
  154SAPE   C2817048   0.173   0.278   6.071  0.3145 -1.0505 -0.0465
  154SAPE   H8R17049   0.276   0.260   6.106  1.6291  2.7973 -1.3814
  154SAPE   C2917050   0.153   0.302   5.941  0.2875  0.0708 -0.3876
  154SAPE   H9R17051   0.240   0.284   5.876  1.9622  0.2837  1.6963
  154SAPE  C21017052   0.029   0.339   5.864 -0.2997 -0.1807  0.0776
  154SAPE  H10R17053   0.040   0.440   5.819  0.3458 -0.9187 -1.5025
  154SAPE  H10S17054  -0.060   0.365   5.925  1.3155  3.5743  1.1155
  154SAPE  C21117055  -0.010   0.230   5.769  0.1547  0.2352  0.2722
  154SAPE  H11R17056  -0.018   0.127   5.806  0.5867  0.2473  0.4073
  154SAPE  C21217057  -0.028   0.253   5.633  0.4495  0.1827 -0.8921
  154SAPE  H12R17058  -0.048   0.161   5.575 -0.2934 -1.7726  2.2128
  154SAPE  C21317059  -0.040   0.375   5.551  0.3754 -0.6071  1.0408
  154SAPE  H13R17060  -0.072   0.460   5.615  0.8759  0.6926 -0.3775
  154SAPE  H13S17061  -0.115   0.357   5.472  0.3175 -2.6119  1.5047
  154SAPE  C21417062   0.088   0.415   5.483  0.0650 -0.5561  0.1357
  154SAPE  H14R17063   0.182   0.397   5.539  0.4815  0.3599 -0.2510
  154SAPE  C21517064   0.094   0.463   5.359  0.2229  0.0963  0.4637
  154SAPE  H15R17065   0.192   0.489   5.316 -0.5598 -0.2408 -1.6343
  154SAPE  C21617066  -0.023   0.504   5.279  0.3040  0.5233  0.0613
  154SAPE  H16R17067  -0.096   0.541   5.354  1.6017  1.0483  1.0999
  154SAPE  H16S17068  -0.076   0.413   5.242  0.5706  0.2428  0.3695
  154SAPE  C21717069   0.018   0.613   5.181  0.4551 -0.1463 -1.0600
  154SAPE  H17R17070   0.045   0.714   5.217 -1.5941 -0.1054  0.5264
  154SAPE  H17S17071  -0.076   0.632   5.124 -1.2414 -2.8923  0.5945
  154SAPE  C21817072   0.102   0.555   5.074  0.1978  0.3743 -0.1868
  154SAPE  H18R17073   0.069   0.451   5.057 -0.6932  0.7782 -1.0191
  154SAPE  H18S17074   0.207   0.548   5.109  0.4268 -2.2231 -1.1819
  154SAPE  C21917075   0.109   0.634   4.945  0.1131 -0.2354  0.0746
  154SAPE  H19R17076   0.207   0.617   4.894  0.2708  1.1111 -0.1074
  154SAPE  H19S17077   0.107   0.744   4.960  1.4849 -0.4547  2.2594
  154SAPE  C22017078   0.002   0.589   4.853 -0.1607  0.3556  0.7562
  154SAPE  H20R17079  -0.020   0.481   4.872  0.3429 -0.3541 -2.2724
  154SAPE  H20S17080   0.033   0.601   4.747  1.0241  3.1690  1.3420
  154SAPE  H20T17081  -0.085   0.653   4.879 -0.9056 -0.1176 -0.4752
  154SAPE   C3317082   0.786   0.430   6.380 -0.7000  0.0320  0.0742
  154SAPE   H3X17083   0.785   0.352   6.300 -1.3436  1.6871 -1.6121
  154SAPE   H3Y17084   0.891   0.449   6.409  0.2214  0.0910 -2.9422
  154SAPE   C3417085   0.741   0.564   6.315 -0.6366  0.2692 -0.3432
  154SAPE   H4X17086   0.788   0.572   6.214  1.9079 -0.9909  0.6594
  154SAPE   H4Y17087   0.773   0.644   6.386 -2.2153  0.4640  0.1751
  154SAPE   C3517088   0.596   0.563   6.292  0.5729 -0.2726  0.1534
  154SAPE   H5X17089   0.578   0.665   6.251 -0.2733  0.5723  2.4864
  154SAPE   H5Y17090   0.541   0.551   6.387 -2.5132 -0.5539 -1.5338
  154SAPE   C3617091   0.547   0.466   6.178  0.1899  0.1223 -0.1413
  154SAPE   H6X17092   0.436   0.463   6.182  0.1758  1.2913  1.7173
  154SAPE   H6Y17093   0.590   0.365   6.190  0.8902  0.5295  1.0877
  154SAPE   C3717094   0.575   0.521   6.036 -0.3944 -0.4687  0.5222
  154SAPE   H7X17095   0.684   0.543   6.033 -0.3716 -0.6622 -0.1696
  154SAPE   H7Y17096   0.519   0.617   6.022 -0.6010 -0.8643 -1.7998
  154SAPE   C3817097   0.525   0.434   5.914  0.8020  0.6774 -0.3907
  154SAPE   H8X17098   0.426   0.386   5.927  1.3931 -0.4823 -0.0326
  154SAPE   H8Y17099   0.594   0.348   5.902  0.6660  0.1878  1.9950
  154SAPE   C3917100   0.534   0.509   5.780  0.0562 -0.3284 -0.0417
  154SAPE   H9X17101   0.628   0.565   5.762 -0.3928 -0.2200 -2.3738
  154SAPE   H9Y17102   0.459   0.591   5.793  0.3582 -0.4525  3.3470
  154SAPE  C31017103   0.505   0.413   5.667  0.3054 -0.8302 -0.2078
  154SAPE  H10X17104   0.421   0.346   5.694 -3.3754  2.1594 -2.9842
  154SAPE  H10Y17105   0.586   0.337   5.664  0.7889 -0.3474  0.5518
  154SAPE  C31117106   0.463   0.467   5.535 -0.0061 -0.6614  0.4338
  154SAPE  H11X17107   0.369   0.525   5.548 -0.3859 -1.1964  0.0806
  154SAPE  H11Y17108   0.442   0.387   5.462 -0.2057  0.8391 -1.2228
  154SAPE  C31217109   0.564   0.558   5.458 -0.3825  0.3467 -0.1422
  154SAPE  H12X17110   0.657   0.501   5.440  0.0175  1.4059 -1.5672
  154SAPE  H12Y17111   0.580   0.641   5.530 -0.8280 -0.1678  0.5624
  154SAPE  C31317112   0.514   0.607   5.329 -0.4198 -0.1001  0.3814
  154SAPE  H13X17113   0.456   0.530   5.273 -1.5207  0.7222  0.3570
  154SAPE  H13Y17114   0.595   0.645   5.263 -1.7829 -0.7606 -1.7909
  154SAPE  C31417115   0.427   0.729   5.344 -0.1062 -0.6869  0.5056
  154SAPE  H14X17116   0.462   0.809   5.414 -0.3640 -0.2912  0.1879
  154SAPE  H14Y17117   0.329   0.691   5.381 -1.0592 -1.8581 -2.8737
  154SAPE  C31517118   0.381   0.799   5.212  0.6923 -0.0462  0.2455
  154SAPE  H15X17119   0.276   0.768   5.195  1.4086 -1.2598 -2.5811
  154SAPE  H15Y17120   0.450   0.756   5.136 -0.6883  1.2605 -1.8826
  154SAPE  C31617121   0.408   0.949   5.206 -0.3543  0.4509 -0.6073
  154SAPE  H16X17122   0.513   0.955   5.242  0.1359 -0.6184 -1.7491
  154SAPE  H16Y17123   0.344   1.003   5.278  1.4489 -0.2172  1.6379
  154SAPE  C31717124   0.380   1.003   5.065 -0.3610  0.5265  0.0397
  154SAPE  H17X17125   0.411   1.108   5.043  0.0516  0.0181 -2.0024
  154SAPE  H17Y17126   0.270   1.011   5.073 -0.4325  0.2360 -0.6320
  154SAPE  C31817127   0.409   0.906   4.954 -0.4761 -0.2517  0.0180
  154SAPE  H18X17128   0.337   0.821   4.956 -0.2929 -0.4311  2.8036
  154SAPE  H18Y17129   0.515   0.874   4.964 -0.0653  1.0743  0.0454
  154SAPE  H18Z17130   0.390   0.950   4.854 -0.8083 -0.6352 -0.0912
  155SAPE     N17131   0.291   1.211   7.241 -0.1611 -0.3306  0.9925
  155SAPE   HN117132   0.336   1.230   7.332  2.6380 -2.5902  0.2407
  155SAPE   HN217133   0.194   1.247   7.234  0.0021 -0.0018  0.3519
  155SAPE   HN317134   0.285   1.113   7.206 -1.2254 -0.6680  2.0416
  155SAPE   C1217135   0.352   1.304   7.136  0.1532 -0.0041  0.0292
  155SAPE  H12A17136   0.331   1.279   7.030 -3.4835  2.0700  0.1165
  155SAPE  H12B17137   0.460   1.290   7.158  0.4575  0.4830 -1.0630
  155SAPE   C1117138   0.301   1.456   7.147  0.0870  0.3310 -0.1286
  155SAPE  H11A17139   0.365   1.517   7.080 -2.3004  0.2915 -2.6237
  155SAPE  H11B17140   0.300   1.487   7.254  1.1749 -0.0305 -0.0043
  155SAPE     P17141   0.036   1.436   7.173 -0.2412  0.0884 -0.1649
  155SAPE   O1317142   0.034   1.304   7.235  0.1844 -0.2961 -0.1168
  155SAPE   O1417143   0.009   1.556   7.252  0.5859  0.1455 -0.9732
  155SAPE   O1217144   0.173   1.466   7.099  0.1070  0.1886 -0.3833
  155SAPE   O1117145  -0.062   1.441   7.045  0.2944  0.6268  0.1914
  155SAPE    C117146  -0.099   1.331   6.967  0.3620  0.2631  0.1792
  155SAPE    HA17147  -0.097   1.232   7.017 -0.7315 -0.1017 -0.4522
  155SAPE    HB17148  -0.203   1.352   6.935 -0.2915 -1.8435  0.7713
  155SAPE    C217149  -0.009   1.319   6.841 -0.1472 -0.6596 -0.8419
  155SAPE    HS17150   0.081   1.263   6.876 -1.2643 -1.5714  0.6658
  155SAPE   O2117151   0.028   1.454   6.790 -0.0789 -0.0550 -0.1625
  155SAPE   C2117152   0.146   1.461   6.736 -0.2510 -0.1037  0.8142
  155SAPE   O2217153   0.239   1.375   6.749  0.3969  0.3697  0.7297
  155SAPE   C2217154   0.152   1.592   6.649 -0.6687 -0.1578 -0.0109
  155SAPE   H2R17155   0.087   1.661   6.707  0.2380 -1.9096  3.3148
  155SAPE   H2S17156   0.256   1.629   6.644 -0.6395 -0.3763 -2.1208
  155SAPE    C317157  -0.082   1.233   6.735 -0.7422  0.2448  0.4859
  155SAPE    HX17158  -0.177   1.288   6.718 -1.0207 -0.6231 -1.0319
  155SAPE    HY17159  -0.107   1.140   6.791  2.0069 -0.6308  0.4179
  155SAPE   O3117160  -0.012   1.208   6.612 -0.8291 -0.0478  0.0355
  155SAPE   C3117161   0.093   1.130   6.621 -0.0114  0.1149 -1.1751
  155SAPE   O3217162   0.146   1.091   6.725  0.0279  0.3411  0.6844
  155SAPE   C3217163   0.142   1.090   6.481  0.4091 -0.7837 -0.1268
  155SAPE   H2X17164   0.188   1.183   6.440 -0.1010 -0.2675  0.4391
  155SAPE   H2Y17165   0.051   1.062   6.424  0.6740 -0.1133 -0.9035
  155SAPE   C2317166   0.112   1.578   6.498  0.1141  0.0088 -0.4781
  155SAPE   H3R17167   0.177   1.498   6.457  0.0332 -1.0554  1.3613
  155SAPE   H3S17168   0.127   1.677   6.452 -0.6341  1.5542  2.3465
  155SAPE   C2417169  -0.037   1.530   6.485  0.1935 -0.3263 -0.0771
  155SAPE   H4R17170  -0.061   1.456   6.564 -0.6566 -1.0175 -0.9676
  155SAPE   H4S17171  -0.042   1.484   6.384 -0.3503 -1.2233  0.3455
  155SAPE   C2517172  -0.133   1.652   6.491  0.9230  0.3970 -0.0841
  155SAPE   H5R17173  -0.090   1.751   6.470 -0.2356  1.1672  1.0043
  155SAPE   C2617174  -0.249   1.659   6.556  0.5138 -0.0029  0.7011
  155SAPE   H6R17175  -0.306   1.753   6.563  1.1451  0.6220 -1.5805
  155SAPE   C2717176  -0.328   1.544   6.617 -0.1726 -0.3387  0.4322
  155SAPE   H7R17177  -0.310   1.558   6.725  2.1651 -1.0370  0.1874
  155SAPE   H7S17178  -0.292   1.444   6.585 -0.8926 -0.3852 -0.2701
  155SAPE   C2817179  -0.476   1.542   6.588 -0.6971 -0.3517  0.1972
  155SAPE   H8R17180  -0.521   1.639   6.615  1.3185  0.5496  0.5274
  155SAPE   C2917181  -0.549   1.451   6.525  0.2321  1.0425 -0.2392
  155SAPE   H9R17182  -0.654   1.481   6.514  0.5539  2.3223 -0.0300
  155SAPE  C21017183  -0.493   1.323   6.467  0.7720 -0.5252 -0.4764
  155SAPE  H10R17184  -0.520   1.248   6.544 -0.1533  0.3914  0.1153
  155SAPE  H10S17185  -0.383   1.314   6.450  1.0499  1.8238 -0.2402
  155SAPE  C21117186  -0.545   1.290   6.329 -1.3742 -0.4416  0.8060
  155SAPE  H11R17187  -0.624   1.213   6.328 -0.6385 -1.2137  1.3753
  155SAPE  C21217188  -0.518   1.365   6.215  0.3296  0.1330 -0.1173
  155SAPE  H12R17189  -0.576   1.326   6.131  1.0478  1.5629 -1.3136
  155SAPE  C21317190  -0.423   1.484   6.204 -0.7483 -0.1840  0.7292
  155SAPE  H13R17191  -0.325   1.466   6.255  0.1501  1.1651 -0.4443
  155SAPE  H13S17192  -0.463   1.567   6.267  2.9625  0.1379  2.9693
  155SAPE  C21417193  -0.407   1.547   6.076 -0.4360  0.4663 -0.5687
  155SAPE  H14R17194  -0.508   1.552   6.033 -1.1651  1.0940  1.1268
  155SAPE  C21517195  -0.295   1.590   6.016 -0.1195  0.4043  0.4511
  155SAPE  H15R17196  -0.293   1.633   5.915  2.4580 -2.1886 -0.7633
  155SAPE  C21617197  -0.156   1.593   6.072 -0.6295 -0.1404 -0.7829
  155SAPE  H16R17198  -0.166   1.610   6.182 -0.4597 -1.9538 -0.4536
  155SAPE  H16S17199  -0.105   1.686   6.038 -0.1285  0.6380  1.8715
  155SAPE  C21717200  -0.053   1.472   6.063  0.0273 -0.3881  0.2612
  155SAPE  H17R17201  -0.076   1.420   6.158  0.1507  0.4441  0.7529
  155SAPE  H17S17202   0.050   1.513   6.048  0.0094 -0.6689 -0.7398
  155SAPE  C21817203  -0.077   1.389   5.941 -0.8474 -0.8939  0.9254
  155SAPE  H18R17204  -0.089   1.457   5.854 -0.3936 -1.1080  0.6951
  155SAPE  H18S17205  -0.176   1.339   5.951 -1.2355 -0.1577  0.8597
  155SAPE  C21917206   0.020   1.279   5.913 -0.1592  0.7508  0.1524
  155SAPE  H19R17207   0.128   1.303   5.899  0.5942 -1.0333  2.2620
  155SAPE  H19S17208  -0.013   1.247   5.813  1.3000 -0.1271 -0.0816
  155SAPE  C22017209   0.004   1.165   6.003 -0.0672  0.9038  0.2228
  155SAPE  H20R17210   0.089   1.094   5.996 -0.7240  0.2012 -0.9120
  155SAPE  H20S17211  -0.091   1.113   5.981 -0.1453  1.0668  0.1772
  155SAPE  H20T17212   0.000   1.206   6.106 -0.0619  1.6258 -0.0533
  155SAPE   C3317213   0.247   0.983   6.476 -0.0391  0.0819  0.5728
  155SAPE   H3X17214   0.202   0.891   6.519  1.2727 -0.7219  0.2625
  155SAPE   H3Y17215   0.343   1.016   6.521 -1.0252  1.5358  1.7461
  155SAPE   C3417216   0.284   0.951   6.331 -0.7608  0.4114  0.0327
  155SAPE   H4X17217   0.372   0.883   6.329 -0.5234  0.7073  0.3118
  155SAPE   H4Y17218   0.322   1.046   6.287 -0.5509  1.3667  2.1738
  155SAPE   C3517219   0.179   0.897   6.238 -0.0830 -0.4404 -0.1864
  155SAPE   H5X17220   0.127   0.991   6.209  2.1844  0.7340 -0.7139
  155SAPE   H5Y17221   0.117   0.820   6.288  0.4958  0.6419  2.3892
  155SAPE   C3617222   0.235   0.832   6.113 -0.7316 -0.0107  0.0012
  155SAPE   H6X17223   0.305   0.752   6.144  0.7399  0.7600 -1.1738
  155SAPE   H6Y17224   0.313   0.896   6.066  1.4170  0.3332  3.6809
  155SAPE   C3717225   0.121   0.792   6.010  0.1995  0.9902 -0.4908
  155SAPE   H7X17226   0.047   0.874   5.997 -0.2207  0.4555 -1.5536
  155SAPE   H7Y17227   0.075   0.706   6.064  0.4292  2.7782  2.8314
  155SAPE   C3817228   0.164   0.743   5.871 -0.1551  0.4144  0.4756
  155SAPE   H8X17229   0.072   0.710   5.818 -0.4169  0.5449  0.8377
  155SAPE   H8Y17230   0.241   0.663   5.880  1.1124  1.5475 -0.0038
  155SAPE   C3917231   0.213   0.865   5.783  0.2753  0.7191 -0.1574
  155SAPE   H9X17232   0.306   0.898   5.835  1.7146 -2.0451 -0.7896
  155SAPE   H9Y17233   0.132   0.941   5.780 -0.6778 -0.2999 -1.1237
  155SAPE  C31017234   0.247   0.832   5.631 -0.6358  0.1831 -0.1092
  155SAPE  H10X17235   0.266   0.722   5.639 -1.5591  0.1394  2.3222
  155SAPE  H10Y17236   0.337   0.875   5.583 -1.3157  1.4000 -0.3090
  155SAPE  C31117237   0.126   0.848   5.549  0.3744  0.3206 -0.0996
  155SAPE  H11X17238   0.046   0.797   5.606  1.3432 -0.0629  0.9673
  155SAPE  H11Y17239   0.147   0.780   5.464  0.1958 -1.1883  1.0172
  155SAPE  C31217240   0.097   0.991   5.510  0.2942 -0.0970  0.0992
  155SAPE  H12X17241   0.186   1.035   5.461  0.4519 -0.7058 -0.1747
  155SAPE  H12Y17242   0.081   1.045   5.606  2.6824 -1.4693  1.3749
  155SAPE  C31317243  -0.024   0.998   5.414 -0.0870  0.5271 -0.5167
  155SAPE  H13X17244  -0.112   0.985   5.480  0.0920 -1.3497 -0.5997
  155SAPE  H13Y17245  -0.010   0.899   5.366  3.0962  0.5603  0.0976
  155SAPE  C31417246  -0.036   1.121   5.329 -0.2489  0.1464  0.2220
  155SAPE  H14X17247   0.055   1.131   5.266 -0.9984  0.2110 -0.8757
  155SAPE  H14Y17248  -0.035   1.208   5.399  2.0056 -0.0811  0.5411
  155SAPE  C31517249  -0.156   1.122   5.238  0.3170 -0.9926  0.6161
  155SAPE  H15X17250  -0.231   1.048   5.274 -1.0375  0.3284  0.6434
  155SAPE  H15Y17251  -0.115   1.077   5.145 -0.4181 -0.2351 -0.0968
  155SAPE  C31617252  -0.229   1.258   5.208  0.1177 -0.0315  0.2255
  155SAPE  H16X17253  -0.157   1.326   5.159  1.2214 -0.8399  0.6580
  155SAPE  H16Y17254  -0.256   1.310   5.303  1.1768 -1.6313  1.4575
  155SAPE  C31717255  -0.350   1.233   5.115 -0.3758 -0.1888  0.2883
  155SAPE  H17X17256  -0.404   1.153   5.170 -0.4944  1.2976  2.4741
  155SAPE  H17Y17257  -0.308   1.192   5.021  1.2487  0.9850  0.4518
  155SAPE  C31817258  -0.439   1.350   5.082 -0.1721 -0.0802  0.1789
  155SAPE  H18X17259  -0.370   1.432   5.053  3.4486 -2.4305  1.4541
  155SAPE  H18Y17260  -0.501   1.374   5.171  0.4700 -2.1804  1.2568
  155SAPE  H18Z17261  -0.511   1.336   4.999 -1.5009  2.1006  0.8893
  156SAPE     N17262   1.834   2.781   7.029  0.2883 -0.2407 -0.7236
  156SAPE   HN117263   1.870   2.820   6.940 -0.3818  1.5176 -0.2681
  156SAPE   HN217264   1.894   2.704   7.065 -1.2108 -0.4974  1.4645
  156SAPE   HN317265   1.741   2.744   7.001  1.1227 -0.8045 -2.9151
  156SAPE   C1217266   1.826   2.872   7.147 -0.3784 -0.7925  0.1554
  156SAPE  H12A17267   1.930   2.905   7.170 -0.3563 -1.6633  1.4777
  156SAPE  H12B17268   1.787   2.816   7.234  0.3533  1.8080  2.3029
  156SAPE   C1117269   1.743   2.999   7.117  0.3534  0.7067  0.2818
  156SAPE  H11A17270   1.764   3.062   7.206 -0.6537 -1.0609  1.8159
  156SAPE  H11B17271   1.635   2.976   7.127 -0.1217  3.3360  2.5059
  156SAPE     P17272   1.702   3.175   6.944 -0.2512  0.1807 -0.4923
  156SAPE   O1317273   1.597   3.133   6.844  0.0713 -0.4175 -0.0320
  156SAPE   O1417274   1.669   3.255   7.072  0.2778 -0.2111  1.0125
  156SAPE   O1217275   1.788   3.055   6.989  0.4505 -0.4593 -0.1901
  156SAPE   O1117276   1.808   3.261   6.866 -0.1304  0.0490  0.4369
  156SAPE    C117277   1.940   3.279   6.914  0.1822 -0.1281 -0.2853
  156SAPE    HA17278   1.938   3.358   6.992 -0.3253  1.0369 -1.4506
  156SAPE    HB17279   1.966   3.193   6.980 -0.1551  0.3189  0.4376
  156SAPE    C217280   2.052   3.291   6.807  0.0590 -0.4277 -0.4686
  156SAPE    HS17281   2.057   3.400   6.786  0.1204 -0.4277 -0.4551
  156SAPE   O2117282   2.007   3.207   6.692 -0.3357 -0.9026  0.4787
  156SAPE   C2117283   1.915   3.268   6.617 -0.2437  0.6441  0.5783
  156SAPE   O2217284   1.882   3.384   6.626  0.4701  0.2898 -0.2593
  156SAPE   C2217285   1.859   3.172   6.508  0.3340  0.3533 -0.0899
  156SAPE   H2R17286   1.829   3.072   6.547  0.4529  1.3160  2.6936
  156SAPE   H2S17287   1.770   3.226   6.471  1.9094  2.9146 -0.4374
  156SAPE    C317288   2.190   3.252   6.856 -0.7145 -0.5297  0.3118
  156SAPE    HX17289   2.188   3.144   6.881  0.7629 -0.5309  0.4983
  156SAPE    HY17290   2.213   3.306   6.950  0.5652 -2.9206  1.4683
  156SAPE   O3117291   2.289   3.268   6.752 -0.4462  0.5289  0.1583
  156SAPE   C3117292   2.317   3.393   6.717 -0.2189 -0.2180 -0.3534
  156SAPE   O3217293   2.290   3.494   6.772  0.2412 -0.3164  0.3737
  156SAPE   C3217294   2.389   3.396   6.580 -0.3385 -0.3693 -1.0382
  156SAPE   H2X17295   2.491   3.362   6.607 -0.7339  0.6926  2.3373
  156SAPE   H2Y17296   2.391   3.501   6.544  3.2221 -0.3643 -1.2284
  156SAPE   C2317297   1.966   3.162   6.401  0.3287  0.4403  0.7372
  156SAPE   H3R17298   2.054   3.110   6.443  1.1356  0.9207 -0.3172
  156SAPE   H3S17299   1.994   3.261   6.359  1.5751 -1.2337 -2.7301
  156SAPE   C2417300   1.913   3.077   6.287  0.3789 -0.3697  0.1265
  156SAPE   H4R17301   1.966   3.090   6.190  1.6094  0.9988  0.9606
  156SAPE   H4S17302   1.811   3.113   6.260  1.9618  2.2087 -3.0402
  156SAPE   C2517303   1.911   2.926   6.316  0.1987  0.2665 -0.9506
  156SAPE   H5R17304   1.833   2.884   6.381  0.6638 -0.9744 -1.1436
  156SAPE   C2617305   1.991   2.832   6.268 -0.2274 -0.4598  0.8880
  156SAPE   H6R17306   1.960   2.732   6.302 -3.5353  0.1438  0.0793
  156SAPE   C2717307   2.113   2.851   6.174  0.8262 -0.1738  0.3339
  156SAPE   H7R17308   2.194   2.900   6.233 -1.2614  3.1507  0.6948
  156SAPE   H7S17309   2.097   2.929   6.096 -1.4419 -1.1874 -0.2947
  156SAPE   C2817310   2.154   2.723   6.111  0.7556  1.0797 -0.7648
  156SAPE   H8R17311   2.170   2.640   6.182  2.2579  2.0466  0.0959
  156SAPE   C2917312   2.169   2.703   5.982 -0.8256 -0.0455  0.4329
  156SAPE   H9R17313   2.206   2.607   5.943  0.1928  0.8826 -0.9841
  156SAPE  C21017314   2.176   2.809   5.875  0.5778 -0.4329  0.0761
  156SAPE  H10R17315   2.234   2.774   5.786 -0.6753  0.1680 -1.0079
  156SAPE  H10S17316   2.243   2.890   5.911 -1.2058  0.7910  0.7942
  156SAPE  C21117317   2.039   2.858   5.828  0.5702 -0.4270 -0.6207
  156SAPE  H11R17318   1.956   2.838   5.898  0.7689  2.0934  0.4502
  156SAPE  C21217319   2.011   2.932   5.719  0.3878  0.2016 -0.0162
  156SAPE  H12R17320   1.905   2.951   5.696 -0.9180 -1.6016  3.6438
  156SAPE  C21317321   2.103   2.978   5.603  0.8838  0.1434  0.0670
  156SAPE  H13R17322   2.208   2.973   5.639  0.7906 -3.3727  0.2085
  156SAPE  H13S17323   2.082   3.086   5.589  2.6711  0.6643  1.1350
  156SAPE  C21417324   2.090   2.890   5.480 -0.0773  0.3998  0.6935
  156SAPE  H14R17325   1.993   2.846   5.453  0.7604 -1.9672  1.2946
  156SAPE  C21517326   2.186   2.886   5.383 -0.2120  0.4589 -0.5583
  156SAPE  H15R17327   2.171   2.804   5.312 -0.0131 -1.3178  1.3495
  156SAPE  C21617328   2.320   2.951   5.372  0.2801  0.1155 -0.2052
  156SAPE  H16R17329   2.401   2.879   5.396  0.6796  0.7664  0.4344
  156SAPE  H16S17330   2.325   3.030   5.451 -1.3971 -1.9895  2.1665
  156SAPE  C21717331   2.340   3.023   5.239 -0.0832 -0.2429 -0.4087
  156SAPE  H17R17332   2.322   2.957   5.151 -1.0274  1.1337 -1.2779
  156SAPE  H17S17333   2.448   3.050   5.245 -0.4043  0.7355  2.2403
  156SAPE  C21817334   2.264   3.146   5.207 -0.0936  0.5690  0.1733
  156SAPE  H18R17335   2.243   3.210   5.295  2.0061  0.4663  0.8153
  156SAPE  H18S17336   2.165   3.116   5.166  0.6429  0.9679 -2.0567
  156SAPE  C21917337   2.321   3.225   5.098  0.5407 -0.8755 -0.1599
  156SAPE  H19R17338   2.318   3.158   5.009  0.5661 -0.9405 -0.1120
  156SAPE  H19S17339   2.424   3.258   5.127  0.4605 -0.4411 -0.3536
  156SAPE  C22017340   2.237   3.347   5.054 -0.3729  0.1160  0.1144
  156SAPE  H20R17341   2.294   3.413   4.984  1.4559 -0.5265  0.9148
  156SAPE  H20S17342   2.217   3.406   5.147 -0.4318  1.6075 -0.8097
  156SAPE  H20T17343   2.140   3.319   5.009 -0.4756 -0.2143  0.5323
  156SAPE   C3317344   2.317   3.326   6.473  0.6277  0.1678  0.1357
  156SAPE   H3X17345   2.211   3.356   6.459  0.2783 -2.0242 -2.7413
  156SAPE   H3Y17346   2.314   3.218   6.496 -0.7427  0.0547 -0.4774
  156SAPE   C3417347   2.384   3.344   6.336 -0.5589  0.1571  0.6724
  156SAPE   H4X17348   2.490   3.312   6.338 -0.6031 -0.0769 -0.2460
  156SAPE   H4Y17349   2.393   3.452   6.311 -0.0437 -0.5909 -2.7453
  156SAPE   C3517350   2.303   3.280   6.222 -0.6291 -0.4921 -0.7237
  156SAPE   H5X17351   2.195   3.303   6.230 -0.7831 -0.2381 -2.9916
  156SAPE   H5Y17352   2.323   3.171   6.222 -0.5676 -0.4808 -0.8504
  156SAPE   C3617353   2.349   3.339   6.089  0.4598  0.3337  0.5081
  156SAPE   H6X17354   2.459   3.354   6.081  0.0945  2.7494 -0.9249
  156SAPE   H6Y17355   2.295   3.435   6.075 -1.9170 -1.1303 -1.1208
  156SAPE   C3717356   2.313   3.253   5.968  0.6624  0.4328 -0.5409
  156SAPE   H7X17357   2.203   3.243   5.956  0.6516 -0.5887  0.2953
  156SAPE   H7Y17358   2.346   3.150   5.991 -0.2628  0.6518  2.1572
  156SAPE   C3817359   2.372   3.314   5.841  0.2299  0.7603 -0.6555
  156SAPE   H8X17360   2.482   3.323   5.835  0.0375  2.4703 -2.8973
  156SAPE   H8Y17361   2.323   3.414   5.835  1.9048  1.5908 -1.0135
  156SAPE   C3917362   2.322   3.239   5.715  0.5933 -0.6049 -0.0439
  156SAPE   H9X17363   2.213   3.222   5.722  0.8433 -1.7824  1.6417
  156SAPE   H9Y17364   2.375   3.141   5.716  1.2895 -0.2557 -1.2146
  156SAPE  C31017365   2.346   3.320   5.588 -0.1013 -0.3320  0.9402
  156SAPE  H10X17366   2.322   3.429   5.591 -1.9828 -0.7294  1.5971
  156SAPE  H10Y17367   2.296   3.275   5.500  0.1585  0.4790  0.3625
  156SAPE  C31117368   2.495   3.319   5.538 -0.2999  0.0860  0.2483
  156SAPE  H11X17369   2.514   3.210   5.530  2.6013  0.5746 -0.5651
  156SAPE  H11Y17370   2.559   3.351   5.622 -0.7661 -0.0943  0.6756
  156SAPE  C31217371   2.527   3.370   5.403  0.2469  0.3064  0.0090
  156SAPE  H12X17372   2.538   3.477   5.429  2.0439 -0.2974  1.9957
  156SAPE  H12Y17373   2.453   3.370   5.319  1.8400  3.3754 -1.5794
  156SAPE  C31317374   2.656   3.307   5.345  0.5283  0.8119  1.0393
  156SAPE  H13X17375   2.659   3.199   5.320  0.2288  1.0317 -0.0131
  156SAPE  H13Y17376   2.743   3.330   5.410  1.4554  1.9710 -0.5344
  156SAPE  C31417377   2.700   3.364   5.211 -0.5337 -0.3575 -0.0138
  156SAPE  H14X17378   2.627   3.342   5.131  1.7120 -2.6900 -1.5675
  156SAPE  H14Y17379   2.798   3.317   5.188  0.1051  0.0463  1.6842
  156SAPE  C31517380   2.722   3.518   5.228  0.1272 -0.3689 -0.1899
  156SAPE  H15X17381   2.760   3.530   5.331  1.2098  0.1274 -0.6360
  156SAPE  H15Y17382   2.622   3.565   5.243  0.6960  0.6772  0.4135
  156SAPE  C31617383   2.793   3.583   5.109 -0.5630  0.1408  0.3177
  156SAPE  H16X17384   2.809   3.692   5.120  1.3653  0.1319 -1.5908
  156SAPE  H16Y17385   2.713   3.578   5.033 -0.3946  0.3291  0.1278
  156SAPE  C31717386   2.930   3.513   5.067  0.6453 -0.4905  0.3320
  156SAPE  H17X17387   2.928   3.403   5.048  2.2468 -0.2775 -1.3949
  156SAPE  H17Y17388   2.991   3.537   5.157  0.0795 -0.7407  0.7892
  156SAPE  C31817389   3.004   3.573   4.953  0.1442  0.4530 -0.0645
  156SAPE  H18X17390   3.040   3.675   4.980  3.9309 -0.7428  0.0017
  156SAPE  H18Y17391   2.925   3.589   4.877  0.4788  2.7269 -0.0270
  156SAPE  H18Z17392   3.087   3.513   4.910 -1.1606 -1.9458  0.6172
  157SAPE     N17393   1.665   1.091   7.252 -0.2950  0.7336  0.2125
  157SAPE   HN117394   1.649   1.060   7.154  0.5193 -1.5206  0.7439
  157SAPE   HN217395   1.758   1.137   7.259 -0.3476  0.6595  1.5560
  157SAPE   HN317396   1.668   1.006   7.311 -0.1390  0.7149  0.1780
  157SAPE   C1217397   1.560   1.188   7.290  0.6627  0.0534  0.4284
  157SAPE  H12A17398   1.585   1.223   7.392  1.3295  0.5721  0.0998
  157SAPE  H12B17399   1.469   1.124   7.285  1.9471 -1.9747  1.3735
  157SAPE   C1117400   1.547   1.302   7.195  0.0181  1.1610  0.2194
  157SAPE  H11A17401   1.495   1.382   7.253  0.2089  1.1889  0.3518
  157SAPE  H11B17402   1.486   1.269   7.108 -1.6258  0.5446  1.5658
  157SAPE     P17403   1.679   1.463   7.032 -0.0820  0.0881  0.0492
  157SAPE   O1317404   1.570   1.562   7.056  0.7346 -0.1237 -0.5474
  157SAPE   O1417405   1.819   1.518   7.030  0.8336 -0.4352 -0.3391
  157SAPE   O1217406   1.671   1.349   7.142  0.6933 -1.0686  0.0569
  157SAPE   O1117407   1.654   1.391   6.898  0.3075  0.6588  0.0752
  157SAPE    C117408   1.679   1.249   6.874 -0.1120  0.4029  0.0611
  157SAPE    HA17409   1.652   1.183   6.959 -1.1697 -0.5692 -0.9861
  157SAPE    HB17410   1.612   1.217   6.791 -1.1543  2.3444  0.0771
  157SAPE    C217411   1.827   1.217   6.841 -0.3804 -0.9190  0.0611
  157SAPE    HS17412   1.894   1.259   6.919 -0.3130 -0.9829  0.0377
  157SAPE   O2117413   1.857   1.282   6.711 -0.2267 -0.1050 -0.3531
  157SAPE   C2117414   1.984   1.268   6.674 -0.2348  0.0073  0.1798
  157SAPE   O2217415   2.074   1.248   6.750 -0.2317 -0.5226 -0.4282
  157SAPE   C2217416   2.000   1.280   6.515  0.3642  0.1956 -0.9954
  157SAPE   H2R17417   1.897   1.283   6.473 -0.3732 -0.7027  0.6426
  157SAPE   H2S17418   2.039   1.382   6.492 -1.2734  1.4935  1.4940
  157SAPE    C317419   1.849   1.061   6.821 -0.2055 -0.0499  0.0645
  157SAPE    HX17420   1.836   1.009   6.918 -2.4999  0.7793  0.2709
  157SAPE    HY17421   1.957   1.036   6.812 -0.0734 -1.7278  4.2601
  157SAPE   O3117422   1.773   1.006   6.707 -0.1365 -0.4860  0.6201
  157SAPE   C3117423   1.771   0.874   6.700  0.0134 -0.8441  0.1303
  157SAPE   O3217424   1.827   0.802   6.777  0.0480  0.0496 -0.5992
  157SAPE   C3217425   1.680   0.836   6.589  0.2035  0.0548 -0.2693
  157SAPE   H2X17426   1.687   0.915   6.511  1.8525 -1.0394 -1.3034
  157SAPE   H2Y17427   1.573   0.835   6.618 -0.1754  0.5192 -1.5590
  157SAPE   C2317428   2.083   1.163   6.445 -0.4184 -0.8195 -0.4755
  157SAPE   H3R17429   2.185   1.145   6.485 -0.0007 -1.2269 -1.7078
  157SAPE   H3S17430   2.100   1.194   6.340 -0.5491 -0.6161 -0.4370
  157SAPE   C2417431   1.991   1.041   6.463 -0.0422  0.4531 -0.3036
  157SAPE   H4R17432   1.889   1.066   6.426  0.6328  2.7634 -0.8003
  157SAPE   H4S17433   1.982   1.029   6.573  2.4391  0.3713 -0.0470
  157SAPE   C2517434   2.061   0.914   6.410 -0.3046 -0.2058  0.2915
  157SAPE   H5R17435   2.106   0.853   6.489  2.1616 -1.4027 -1.8890
  157SAPE   C2617436   2.071   0.867   6.284 -0.1128 -0.3198  0.7843
  157SAPE   H6R17437   2.116   0.767   6.272 -0.7677 -0.7477  1.7630
  157SAPE   C2717438   2.021   0.945   6.162  0.4734  0.1320  0.5488
  157SAPE   H7R17439   2.104   1.008   6.124 -0.8931  0.6573 -1.7623
  157SAPE   H7S17440   1.931   1.007   6.180  0.7913  0.5473  0.7384
  157SAPE   C2817441   1.986   0.840   6.056  0.8735 -0.0031  0.4256
  157SAPE   H8R17442   1.957   0.739   6.090  2.1406 -0.3442  0.5474
  157SAPE   C2917443   1.979   0.868   5.928 -0.6275  0.4279 -0.7073
  157SAPE   H9R17444   1.950   0.780   5.868  0.1376 -0.7199  0.5668
  157SAPE  C21017445   2.008   1.003   5.861  0.1122 -0.1596  0.1665
  157SAPE  H10R17446   2.046   0.989   5.758  0.8401  2.8959 -0.0619
  157SAPE  H10S17447   2.088   1.059   5.915 -0.0688 -0.2417  0.5237
  157SAPE  C21117448   1.879   1.090   5.851  0.0999  0.4869  0.4018
  157SAPE  H11R17449   1.791   1.037   5.811 -0.6005  0.3341  2.0592
  157SAPE  C21217450   1.854   1.211   5.911 -0.1355  0.5967  0.7290
  157SAPE  H12R17451   1.752   1.251   5.906 -1.1992 -1.3146  3.6433
  157SAPE  C21317452   1.944   1.305   5.992 -0.4775  0.0809 -0.6669
  157SAPE  H13R17453   1.948   1.402   5.938 -1.6063  1.0566  0.8833
  157SAPE  H13S17454   2.050   1.273   5.999 -0.5036  0.2789  1.0730
  157SAPE  C21417455   1.905   1.338   6.132 -0.4912 -0.2384 -0.0029
  157SAPE  H14R17456   1.910   1.256   6.206  3.2712  0.2253  0.4767
  157SAPE  C21517457   1.884   1.460   6.181 -0.2059  0.5192 -0.3647
  157SAPE  H15R17458   1.844   1.457   6.284  0.2911 -0.3878 -0.1921
  157SAPE  C21617459   1.869   1.593   6.116  0.0297 -0.1887  0.4356
  157SAPE  H16R17460   1.963   1.628   6.068  0.0338  2.9088  2.4422
  157SAPE  H16S17461   1.866   1.671   6.195  0.7667  0.7199 -0.4163
  157SAPE  C21717462   1.759   1.625   6.014  0.2193 -0.2552 -1.4437
  157SAPE  H17R17463   1.739   1.543   5.942 -0.7520 -1.5513  0.2287
  157SAPE  H17S17464   1.772   1.721   5.960 -1.7207  1.9122  1.5619
  157SAPE  C21817465   1.626   1.655   6.100 -0.5873  0.0700  0.3745
  157SAPE  H18R17466   1.653   1.748   6.154  2.0864 -0.5913  0.3578
  157SAPE  H18S17467   1.608   1.578   6.178 -1.1321 -1.4156 -1.1605
  157SAPE  C21917468   1.497   1.678   6.028  0.5774 -0.3868 -0.3634
  157SAPE  H19R17469   1.423   1.640   6.102 -0.3002  2.0531  0.1072
  157SAPE  H19S17470   1.489   1.623   5.932 -1.1725 -0.4473 -0.2289
  157SAPE  C22017471   1.459   1.823   6.011  0.4449  0.7286 -0.5622
  157SAPE  H20R17472   1.364   1.828   5.954  0.1017 -4.2944 -0.8573
  157SAPE  H20S17473   1.532   1.883   5.953  1.8165  0.1797  0.5305
  157SAPE  H20T17474   1.437   1.863   6.112  2.0186 -0.3664  0.2647
  157SAPE   C3317475   1.704   0.703   6.520  0.2764 -0.6195  0.3283
  157SAPE   H3X17476   1.671   0.618   6.583 -0.6759 -1.4494 -1.2192
  157SAPE   H3Y17477   1.813   0.702   6.499  0.3421 -1.9861  0.6924
  157SAPE   C3417478   1.627   0.710   6.385 -0.8164 -0.0575 -0.2843
  157SAPE   H4X17479   1.527   0.758   6.389 -0.8967 -0.0550 -1.9905
  157SAPE   H4Y17480   1.605   0.602   6.366 -2.0254 -0.0336  0.8070
  157SAPE   C3517481   1.703   0.776   6.267  0.0608 -0.4293 -0.0260
  157SAPE   H5X17482   1.806   0.736   6.254 -0.1553 -0.3897 -2.2290
  157SAPE   H5Y17483   1.712   0.885   6.289  1.1785 -1.0540  3.1311
  157SAPE   C3617484   1.617   0.756   6.143 -0.8230 -0.8506  0.0062
  157SAPE   H6X17485   1.642   0.835   6.069 -2.2954 -0.2283  0.1378
  157SAPE   H6Y17486   1.513   0.783   6.171 -0.7655 -1.5256  0.9067
  157SAPE   C3717487   1.620   0.615   6.075  0.5904  0.6571  0.6059
  157SAPE   H7X17488   1.586   0.540   6.150  0.3155 -0.9312 -1.0335
  157SAPE   H7Y17489   1.723   0.593   6.040  0.7366  1.3920  0.5744
  157SAPE   C3817490   1.528   0.601   5.947 -0.1843  0.4456 -0.0346
  157SAPE   H8X17491   1.553   0.506   5.896  2.2974  1.3407 -0.6571
  157SAPE   H8Y17492   1.556   0.681   5.876 -1.5305  0.9930  0.0232
  157SAPE   C3917493   1.376   0.613   5.970 -0.2604  0.3954  0.2968
  157SAPE   H9X17494   1.370   0.715   6.012  2.5508  0.8868 -0.2920
  157SAPE   H9Y17495   1.332   0.536   6.037 -0.4711 -3.4540 -3.7726
  157SAPE  C31017496   1.295   0.609   5.844  0.0705  0.2492  0.0550
  157SAPE  H10X17497   1.338   0.524   5.786 -0.7021  0.9191 -1.5633
  157SAPE  H10Y17498   1.321   0.696   5.780  0.6527 -0.6858 -1.0194
  157SAPE  C31117499   1.148   0.606   5.881  0.4006 -0.4662  0.2541
  157SAPE  H11X17500   1.131   0.680   5.962 -0.4839 -0.0481 -0.2919
  157SAPE  H11Y17501   1.126   0.507   5.927  1.9379 -1.1401 -0.3902
  157SAPE  C31217502   1.057   0.645   5.762  0.0302  0.0530  0.5316
  157SAPE  H12X17503   1.076   0.749   5.728  1.8930 -0.7057 -0.9581
  157SAPE  H12Y17504   0.951   0.630   5.792  0.2504 -0.4876  1.0539
  157SAPE  C31317505   1.079   0.548   5.651 -0.1849 -0.2976 -0.4029
  157SAPE  H13X17506   1.067   0.443   5.684 -0.9747  0.0953  0.5899
  157SAPE  H13Y17507   1.181   0.556   5.608 -0.4405 -1.7270 -1.3367
  157SAPE  C31417508   0.986   0.561   5.525  0.2015  0.0221 -0.3981
  157SAPE  H14X17509   0.882   0.549   5.560 -0.5188 -0.7581 -2.6790
  157SAPE  H14Y17510   1.019   0.482   5.456 -0.2911 -0.3282 -0.2346
  157SAPE  C31517511   0.986   0.712   5.474  0.5423  0.5765  0.1861
  157SAPE  H15X17512   1.088   0.750   5.452  0.0915  0.9153 -1.4356
  157SAPE  H15Y17513   0.927   0.767   5.550  0.6456  1.2750 -0.2361
  157SAPE  C31617514   0.916   0.709   5.342 -0.5485 -1.0415 -0.0930
  157SAPE  H16X17515   0.818   0.657   5.343 -0.6646 -0.8828 -1.1655
  157SAPE  H16Y17516   0.959   0.644   5.263  0.5585 -0.8454  0.3238
  157SAPE  C31717517   0.897   0.847   5.282 -0.5397 -0.3124  0.2137
  157SAPE  H17X17518   0.997   0.878   5.246 -1.1351  0.8886 -0.4648
  157SAPE  H17Y17519   0.866   0.911   5.368  2.8484 -2.2066  3.1017
  157SAPE  C31817520   0.786   0.859   5.171  0.3387  1.1354 -0.3387
  157SAPE  H18X17521   0.795   0.776   5.099  1.3229 -1.4140  2.5083
  157SAPE  H18Y17522   0.793   0.955   5.115 -0.7264  2.2384  1.3139
  157SAPE  H18Z17523   0.687   0.850   5.221 -0.9859  0.2742 -2.9662
  158SAPE     N17524   4.647   5.779   7.080  0.0607 -0.2584  0.0056
  158SAPE   HN117525   4.556   5.745   7.116  0.0047  0.4823  0.5833
  158SAPE   HN217526   4.705   5.695   7.059  0.2582  0.0651 -0.8327
  158SAPE   HN317527   4.701   5.827   7.154 -0.3531 -0.2305  0.2889
  158SAPE   C1217528   4.617   5.878   6.969 -0.2235 -0.0644  0.1237
  158SAPE  H12A17529   4.518   5.846   6.930  0.7771 -1.5001 -1.3881
  158SAPE  H12B17530   4.696   5.875   6.891 -0.3928 -0.9709 -0.0322
  158SAPE   C1117531   4.608   6.025   7.015  0.3546 -0.3240  0.4438
  158SAPE  H11A17532   4.590   6.087   6.925 -1.6417  1.9766  2.2779
  158SAPE  H11B17533   4.704   6.067   7.052  1.0926 -1.2490 -0.3573
  158SAPE     P17534   4.366   6.113   7.107  0.1150 -0.1664 -0.0020
  158SAPE   O1317535   4.261   6.008   7.119 -0.0024 -0.2155  0.1179
  158SAPE   O1417536   4.359   6.212   7.221 -0.5920  0.1780  0.5760
  158SAPE   O1217537   4.506   6.047   7.112 -0.0070  0.0465 -0.3071
  158SAPE   O1117538   4.368   6.181   6.968 -0.1012  0.2560 -0.4902
  158SAPE    C117539   4.255   6.244   6.926  0.4192 -0.2992 -0.0182
  158SAPE    HA17540   4.160   6.186   6.934  1.2118 -1.9068 -1.5892
  158SAPE    HB17541   4.251   6.342   6.978  1.7222 -1.3715  2.2527
  158SAPE    C217542   4.275   6.279   6.785  0.6187  0.2696 -0.3865
  158SAPE    HS17543   4.213   6.367   6.758 -1.0113 -0.8782 -0.4896
  158SAPE   O2117544   4.253   6.172   6.696  0.4637  0.4516  0.1862
  158SAPE   C2117545   4.136   6.127   6.686 -0.1614  0.5730 -0.0613
  158SAPE   O2217546   4.033   6.173   6.723 -0.6245 -0.3730 -0.0167
  158SAPE   C2217547   4.139   5.996   6.608 -0.6006  0.4983 -0.2516
  158SAPE   H2R17548   4.229   5.934   6.627 -1.0605 -0.2152 -0.3546
  158SAPE   H2S17549   4.046   5.939   6.627 -1.5499  1.0381 -2.8410
  158SAPE    C317550   4.416   6.348   6.757 -0.0237  0.1119  0.3574
  158SAPE    HX17551   4.491   6.268   6.779  0.1000  0.6052  1.8388
  158SAPE    HY17552   4.437   6.428   6.832  0.2493  0.8193 -0.4627
  158SAPE   O3117553   4.427   6.413   6.622 -1.0347  0.3782 -0.2935
  158SAPE   C3117554   4.472   6.321   6.525 -0.2622 -0.6981  0.0048
  158SAPE   O3217555   4.538   6.224   6.552 -0.3153 -0.4101 -0.1823
  158SAPE   C3217556   4.419   6.363   6.385  0.3862  0.3794 -0.7801
  158SAPE   H2X17557   4.443   6.284   6.311  1.4856  0.1589 -0.1974
  158SAPE   H2Y17558   4.466   6.462   6.365  0.5025  0.5530  0.2925
  158SAPE   C2317559   4.139   6.017   6.453  0.1937 -0.3754 -0.5211
  158SAPE   H3R17560   4.163   5.918   6.409 -0.0833 -1.5809  1.9201
  158SAPE   H3S17561   4.227   6.084   6.439  0.1967 -0.1953  0.3497
  158SAPE   C2417562   4.003   6.075   6.408 -0.3037  0.1531 -0.3290
  158SAPE   H4R17563   4.020   6.119   6.308 -1.6983 -1.3751 -1.2889
  158SAPE   H4S17564   3.983   6.158   6.479  1.3199 -0.1200  0.5036
  158SAPE   C2517565   3.886   5.981   6.403  0.1460 -0.1964 -0.1467
  158SAPE   H5R17566   3.879   5.910   6.487  1.2558  0.6017  0.6609
  158SAPE   C2617567   3.808   5.973   6.293 -0.0484  0.2574  0.1614
  158SAPE   H6R17568   3.732   5.894   6.295 -1.0691  1.1384 -1.7063
  158SAPE   C2717569   3.826   6.055   6.164 -0.7565 -0.4149  0.2937
  158SAPE   H7R17570   3.841   6.164   6.181  0.5761 -0.2531 -1.5657
  158SAPE   H7S17571   3.741   6.032   6.097 -0.6815 -0.6092  0.2656
  158SAPE   C2817572   3.949   5.996   6.092 -0.1698 -0.2683 -0.2289
  158SAPE   H8R17573   4.023   5.962   6.166 -0.1096  1.9748  0.8310
  158SAPE   C2917574   3.970   5.999   5.959  0.6231 -0.1696 -0.1612
  158SAPE   H9R17575   4.064   5.958   5.920  1.1826  0.9876 -0.0768
  158SAPE  C21017576   3.874   6.059   5.856 -0.2776 -0.5368 -0.0048
  158SAPE  H10R17577   3.902   6.166   5.841 -3.2546  0.9577  3.4127
  158SAPE  H10S17578   3.768   6.079   5.882 -1.3238 -1.8028 -2.9085
  158SAPE  C21117579   3.881   5.978   5.728 -0.0249  0.0627 -0.7189
  158SAPE  H11R17580   3.882   5.869   5.741  0.0436  0.3100  1.7808
  158SAPE  C21217581   3.885   6.031   5.599  0.2032  0.6037 -0.2956
  158SAPE  H12R17582   3.891   5.959   5.516  1.6004 -1.0801  1.1570
  158SAPE  C21317583   3.917   6.170   5.564 -0.0992 -0.1089 -0.1510
  158SAPE  H13R17584   4.027   6.182   5.571 -0.1383  1.8476 -1.7334
  158SAPE  H13S17585   3.884   6.242   5.643 -0.2168  1.5706 -1.6547
  158SAPE  C21417586   3.855   6.226   5.439 -0.1889 -0.3461 -0.3107
  158SAPE  H14R17587   3.766   6.286   5.464  0.2926  0.2474  0.0219
  158SAPE  C21517588   3.896   6.216   5.307 -0.4777  0.2109 -0.7109
  158SAPE  H15R17589   3.838   6.263   5.227 -1.6312  2.7854  1.4949
  158SAPE  C21617590   4.022   6.135   5.254  0.2688  0.1939  0.1145
  158SAPE  H16R17591   4.001   6.037   5.207  1.9117 -0.2957  0.3416
  158SAPE  H16S17592   4.080   6.106   5.344 -0.6539 -0.8884  0.3758
  158SAPE  C21717593   4.107   6.222   5.156 -0.3642 -0.0172  0.2520
  158SAPE  H17R17594   4.190   6.159   5.118 -0.5596  1.5069 -2.9415
  158SAPE  H17S17595   4.143   6.321   5.190 -0.8750  0.7672 -1.4195
  158SAPE  C21817596   4.039   6.245   5.015  0.9089  0.4035  0.4697
  158SAPE  H18R17597   3.937   6.283   5.037 -0.8268 -2.6863 -1.4202
  158SAPE  H18S17598   4.008   6.147   4.973  2.0929  0.3633 -0.3541
  158SAPE  C21917599   4.115   6.334   4.926 -0.0447 -0.4525  0.4481
  158SAPE  H19R17600   4.149   6.418   4.991  0.2902  1.5709 -2.1879
  158SAPE  H19S17601   4.053   6.370   4.841 -0.3550 -2.6824 -0.3332
  158SAPE  C22017602   4.225   6.256   4.853  0.6268 -0.3083  0.3090
  158SAPE  H20R17603   4.297   6.204   4.920 -0.1509 -0.1023  1.3432
  158SAPE  H20S17604   4.275   6.317   4.775 -0.5425 -0.8082 -0.8590
  158SAPE  H20T17605   4.169   6.179   4.798 -2.0855  1.0825  0.9478
  158SAPE   C3317606   4.270   6.410   6.377  0.3913 -0.1902 -0.0251
  158SAPE   H3X17607   4.241   6.466   6.468 -0.8169 -0.6176 -0.1374
  158SAPE   H3Y17608   4.199   6.325   6.372  1.2291 -0.9266  0.3935
  158SAPE   C3417609   4.247   6.508   6.260  0.1110  0.2336  0.5364
  158SAPE   H4X17610   4.321   6.591   6.269 -2.3465  2.4183  2.2732
  158SAPE   H4Y17611   4.147   6.556   6.259  0.3523  0.7854 -1.0326
  158SAPE   C3517612   4.263   6.452   6.119 -0.2983 -0.3840  0.5323
  158SAPE   H5X17613   4.366   6.413   6.102 -1.1613 -2.8572  0.4826
  158SAPE   H5Y17614   4.255   6.536   6.047 -2.2339 -0.0459  1.0938
  158SAPE   C3617615   4.162   6.341   6.081  0.0624 -0.5753  0.1681
  158SAPE   H6X17616   4.062   6.387   6.100 -0.2082 -0.5706 -1.1761
  158SAPE   H6Y17617   4.166   6.245   6.136 -1.7089 -1.2247 -0.7418
  158SAPE   C3717618   4.182   6.298   5.928  0.1494  0.7711 -0.3190
  158SAPE   H7X17619   4.119   6.209   5.909 -0.0856  0.0646  3.1067
  158SAPE   H7Y17620   4.287   6.265   5.913  0.9837  2.6970  0.8661
  158SAPE   C3817621   4.141   6.405   5.829  0.3596 -0.0575 -0.0104
  158SAPE   H8X17622   4.173   6.501   5.876  2.3496 -1.8270  2.5532
  158SAPE   H8Y17623   4.030   6.406   5.828  0.2835 -0.8206  2.0857
  158SAPE   C3917624   4.203   6.392   5.692  0.2733 -0.0747 -0.0894
  158SAPE   H9X17625   4.169   6.305   5.632 -1.1386  0.1046  0.4328
  158SAPE   H9Y17626   4.312   6.371   5.698  0.4104  0.9744  1.9140
  158SAPE  C31017627   4.178   6.515   5.605  0.2490  0.4446 -0.2194
  158SAPE  H10X17628   4.209   6.602   5.667 -1.5647 -0.4897  2.1678
  158SAPE  H10Y17629   4.068   6.515   5.591 -0.0494  0.4643  1.8294
  158SAPE  C31117630   4.255   6.506   5.471  0.2088  0.0605 -0.0260
  158SAPE  H11X17631   4.242   6.411   5.414 -0.5790 -0.2650  0.6615
  158SAPE  H11Y17632   4.365   6.519   5.481  0.1086  2.8072 -1.5299
  158SAPE  C31217633   4.209   6.617   5.370  0.4879  0.3496  0.0734
  158SAPE  H12X17634   4.194   6.713   5.424 -1.2872 -0.1327  0.4904
  158SAPE  H12Y17635   4.111   6.602   5.320  0.6734 -0.2519 -0.1241
  158SAPE  C31317636   4.309   6.636   5.251 -0.0890 -0.4488  0.6919
  158SAPE  H13X17637   4.293   6.537   5.203 -0.8925 -1.1459  2.3128
  158SAPE  H13Y17638   4.412   6.645   5.291  0.1052 -1.0143  0.3276
  158SAPE  C31417639   4.260   6.750   5.160 -0.5068  0.5275 -0.4011
  158SAPE  H14X17640   4.300   6.839   5.213  2.4185 -2.0487  2.1510
  158SAPE  H14Y17641   4.149   6.757   5.160 -0.4445  1.8605 -1.6108
  158SAPE  C31517642   4.323   6.751   5.015 -0.1132 -0.0114 -0.1330
  158SAPE  H15X17643   4.281   6.671   4.951 -0.7545 -1.8528  2.4474
  158SAPE  H15Y17644   4.434   6.750   5.014 -0.1150 -1.6308 -1.0908
  158SAPE  C31617645   4.280   6.885   4.954 -0.6374  0.2026 -0.5886
  158SAPE  H16X17646   4.311   6.971   5.018  0.4058 -0.9217  0.4626
  158SAPE  H16Y17647   4.169   6.884   4.948 -0.6018  0.6805 -1.4814
  158SAPE  C31717648   4.338   6.919   4.816 -0.0759  0.9526  0.9559
  158SAPE  H17X17649   4.387   6.830   4.772  0.5235  2.2483 -1.1152
  158SAPE  H17Y17650   4.421   6.993   4.820  0.2170  1.1581 -3.7425
  158SAPE  C31817651   4.234   6.958   4.712 -0.2517 -0.6477  0.1448
  158SAPE  H18X17652   4.152   6.883   4.718  0.7367 -1.7140  0.8031
  158SAPE  H18Y17653   4.260   6.964   4.604  0.5715  0.2795  0.3830
  158SAPE  H18Z17654   4.187   7.056   4.735  3.7029  2.7717 -4.2758
  159SAPE     N17655   6.527   3.030   2.726  0.0211  0.3839  0.2831
  159SAPE   HN117656   6.457   3.013   2.801 -0.3253 -2.2359 -0.5268
  159SAPE   HN217657   6.477   3.073   2.646 -0.1943  0.7927  0.6357
  159SAPE   HN317658   6.561   2.933   2.712 -0.1814  0.4548 -0.7836
  159SAPE   C1217659   6.647   3.110   2.767  0.6439 -0.3714 -0.3087
  159SAPE  H12A17660   6.670   3.091   2.874  1.9468 -0.5388 -0.5936
  159SAPE  H12B17661   6.623   3.218   2.764  0.0512 -0.3143  2.8249
  159SAPE   C1117662   6.772   3.074   2.688  0.2347 -0.5129  0.2302
  159SAPE  H11A17663   6.850   3.141   2.728 -0.1935 -0.6860  1.3957
  159SAPE  H11B17664   6.752   3.100   2.582  0.0038  2.6478  0.9660
  159SAPE     P17665   6.955   2.892   2.675  0.6761  0.1600 -0.4249
  159SAPE   O1317666   6.957   2.747   2.643  0.1935 -0.2295 -0.1929
  159SAPE   O1417667   7.006   2.981   2.565 -0.1357  0.1065 -0.2066
  159SAPE   O1217668   6.807   2.939   2.717 -0.2259  0.1756 -0.3201
  159SAPE   O1117669   7.035   2.908   2.804 -0.1893 -0.1642 -0.0911
  159SAPE    C117670   6.981   2.905   2.935 -0.1807  0.2831  0.8252
  159SAPE    HA17671   7.052   2.960   3.001  0.0653  1.2821 -0.2494
  159SAPE    HB17672   6.877   2.943   2.943  0.0865  1.1266  0.3811
  159SAPE    C217673   6.984   2.753   2.993  0.0845 -0.5757 -0.0538
  159SAPE    HS17674   6.948   2.693   2.907  0.8582  2.2962 -2.5657
  159SAPE   O2117675   6.896   2.757   3.108  0.0143  0.2668 -0.0431
  159SAPE   C2117676   6.851   2.638   3.145 -0.7900 -0.8566  0.0075
  159SAPE   O2217677   6.880   2.533   3.094 -0.1725  0.5699  0.2491
  159SAPE   C2217678   6.773   2.665   3.269  0.2376 -0.1111 -0.6645
  159SAPE   H2R17679   6.803   2.760   3.318  0.0150 -1.5345  2.4718
  159SAPE   H2S17680   6.673   2.689   3.226  0.1457  0.4844 -0.1397
  159SAPE    C317681   7.123   2.712   3.044 -0.3827 -0.0019 -0.2459
  159SAPE    HX17682   7.192   2.734   2.960 -3.0574  1.4864 -2.2139
  159SAPE    HY17683   7.116   2.602   3.063  1.3550 -0.0653  0.1623
  159SAPE   O3117684   7.173   2.790   3.153  0.3155  0.3138 -0.0209
  159SAPE   C3117685   7.226   2.734   3.270  0.1839 -1.0364  0.5655
  159SAPE   O3217686   7.230   2.613   3.289  0.7314 -0.1193 -0.2609
  159SAPE   C3217687   7.270   2.849   3.357  0.0000 -0.2469 -0.6282
  159SAPE   H2X17688   7.321   2.808   3.447 -0.4353  0.1861 -0.1775
  159SAPE   H2Y17689   7.180   2.894   3.403  0.5745  0.7472 -0.4291
  159SAPE   C2317690   6.759   2.544   3.369  0.2636  0.5388  0.1166
  159SAPE   H3R17691   6.857   2.529   3.417  0.6373 -1.1234 -1.0815
  159SAPE   H3S17692   6.745   2.457   3.301  1.3396 -0.3997  1.0680
  159SAPE   C2417693   6.645   2.563   3.478 -0.4729 -0.5085 -0.4322
  159SAPE   H4R17694   6.547   2.552   3.427 -0.1563 -0.7744 -0.9926
  159SAPE   H4S17695   6.652   2.665   3.519 -0.3700  0.5443 -2.8801
  159SAPE   C2517696   6.669   2.463   3.590 -0.1023  0.3413  0.4998
  159SAPE   H5R17697   6.644   2.360   3.559 -2.3983  0.8332  0.5771
  159SAPE   C2617698   6.696   2.483   3.721  0.3952 -0.4449  0.7521
  159SAPE   H6R17699   6.713   2.395   3.784  1.1407 -0.9143 -0.0859
  159SAPE   C2717700   6.716   2.615   3.786  0.2212  0.2104  1.0785
  159SAPE   H7R17701   6.620   2.638   3.838 -0.2646 -1.9305  1.2291
  159SAPE   H7S17702   6.727   2.697   3.712  1.0682 -1.9532 -1.3111
  159SAPE   C2817703   6.836   2.605   3.877 -0.0358  0.7054 -0.1246
  159SAPE   H8R17704   6.821   2.549   3.971 -0.0298  0.2003 -0.4225
  159SAPE   C2917705   6.960   2.647   3.852 -0.3498 -0.1511  0.5020
  159SAPE   H9R17706   7.039   2.635   3.927  0.4865  1.5801 -0.0554
  159SAPE  C21017707   7.004   2.691   3.716  0.0510 -0.1926 -0.2644
  159SAPE  H10R17708   6.990   2.799   3.698 -1.5144 -0.7450 -2.8158
  159SAPE  H10S17709   6.944   2.644   3.635 -0.3943 -0.9143  0.4656
  159SAPE  C21117710   7.154   2.658   3.690  0.2617 -1.2730 -0.5486
  159SAPE  H11R17711   7.171   2.567   3.632  2.5715  0.0542 -2.1360
  159SAPE  C21217712   7.260   2.733   3.745  0.5434  0.0403  0.7200
  159SAPE  H12R17713   7.362   2.703   3.717  0.9093  1.6757  0.1570
  159SAPE  C21317714   7.245   2.864   3.823  0.7694  0.1531 -0.6076
  159SAPE  H13R17715   7.151   2.867   3.883  1.9092  1.8966  1.2185
  159SAPE  H13S17716   7.241   2.940   3.743 -2.2287 -2.0668 -2.8220
  159SAPE  C21417717   7.359   2.877   3.918  0.3176 -0.0833 -0.9509
  159SAPE  H14R17718   7.454   2.905   3.871  0.0548  0.7483 -0.9974
  159SAPE  C21517719   7.351   2.873   4.047 -1.0942  0.8547  0.2549
  159SAPE  H15R17720   7.446   2.885   4.102 -2.2853 -0.1129  2.6547
  159SAPE  C21617721   7.242   2.831   4.136  0.0303 -0.3884 -0.3802
  159SAPE  H16R17722   7.273   2.754   4.210  0.6613 -0.6357 -0.8902
  159SAPE  H16S17723   7.155   2.787   4.084 -1.3960 -4.3455  4.5584
  159SAPE  C21717724   7.174   2.953   4.209  0.1667  0.1930 -1.2051
  159SAPE  H17R17725   7.085   2.911   4.261  1.8993 -1.4971  0.5417
  159SAPE  H17S17726   7.152   3.022   4.124 -1.6534 -0.6329 -1.4636
  159SAPE  C21817727   7.266   3.013   4.313  0.8306 -0.4536  0.6648
  159SAPE  H18R17728   7.335   3.069   4.247  0.9277 -1.1890  0.1306
  159SAPE  H18S17729   7.329   2.931   4.354 -1.0296 -1.7097  1.1581
  159SAPE  C21917730   7.204   3.099   4.422  0.0415  0.4887  0.5381
  159SAPE  H19R17731   7.154   3.047   4.507  1.4212 -0.5465  0.7474
  159SAPE  H19S17732   7.113   3.146   4.379  0.1721  0.5671  0.3476
  159SAPE  C22017733   7.293   3.206   4.483 -0.0482 -0.5984 -0.3511
  159SAPE  H20R17734   7.392   3.168   4.517  0.1459  0.0268 -0.1934
  159SAPE  H20S17735   7.234   3.244   4.569 -2.4196  1.2496 -2.6310
  159SAPE  H20T17736   7.314   3.290   4.413 -0.1256 -0.1693  0.1300
  159SAPE   C3317737   7.369   2.954   3.295 -0.1706 -0.3748 -0.4964
  159SAPE   H3X17738   7.307   3.014   3.225  1.8101  0.2440 -1.8304
  159SAPE   H3Y17739   7.445   2.909   3.228  0.2736 -1.5353  0.7474
  159SAPE   C3417740   7.434   3.047   3.395 -0.4366  0.3878  0.1057
  159SAPE   H4X17741   7.368   3.072   3.480  1.6823 -1.7817  2.5787
  159SAPE   H4Y17742   7.459   3.145   3.348 -1.2969  0.2153 -0.7392
  159SAPE   C3517743   7.561   2.988   3.460 -0.3449  0.1932  0.3875
  159SAPE   H5X17744   7.654   3.032   3.419 -1.0333  0.3418 -1.0961
  159SAPE   H5Y17745   7.563   2.879   3.440  1.8331  0.1462  0.6153
  159SAPE   C3617746   7.559   3.004   3.617  0.3857 -0.7215  0.9825
  159SAPE   H6X17747   7.619   2.926   3.667  1.0758 -1.4104 -0.8180
  159SAPE   H6Y17748   7.455   2.997   3.655 -0.1551  1.1174 -0.0221
  159SAPE   C3717749   7.599   3.143   3.662 -0.5244  0.2942  0.2058
  159SAPE   H7X17750   7.540   3.216   3.603 -1.5552 -1.5957 -1.2184
  159SAPE   H7Y17751   7.704   3.148   3.626 -0.8635  1.6658 -0.6838
  159SAPE   C3817752   7.578   3.170   3.814 -0.3996 -0.2413  0.1311
  159SAPE   H8X17753   7.634   3.088   3.864  1.5772 -1.3477 -3.5295
  159SAPE   H8Y17754   7.472   3.149   3.837  0.1186 -1.6970  1.4050
  159SAPE   C3917755   7.627   3.314   3.865  0.2231 -0.2192  0.7623
  159SAPE   H9X17756   7.543   3.386   3.861 -0.0685 -0.5486  0.9609
  159SAPE   H9Y17757   7.721   3.342   3.811  1.3206 -1.0681  2.1574
  159SAPE  C31017758   7.663   3.308   4.015 -0.2908  0.2760 -0.2874
  159SAPE  H10X17759   7.719   3.401   4.036 -0.7127  1.0051 -2.2550
  159SAPE  H10Y17760   7.728   3.219   4.031 -0.5918  0.4079  1.9718
  159SAPE  C31117761   7.554   3.284   4.119 -0.2841 -0.1387  0.5246
  159SAPE  H11X17762   7.508   3.192   4.077  0.0868 -0.9919  1.9161
  159SAPE  H11Y17763   7.473   3.359   4.128 -0.7659 -0.3363 -1.7567
  159SAPE  C31217764   7.606   3.264   4.265 -0.0381 -0.5110 -0.2340
  159SAPE  H12X17765   7.518   3.227   4.321 -0.1193  1.2255  0.8729
  159SAPE  H12Y17766   7.625   3.361   4.316 -0.4708  0.0830 -1.1837
  159SAPE  C31317767   7.725   3.163   4.284 -0.7026 -0.2302  0.2386
  159SAPE  H13X17768   7.814   3.217   4.245 -2.8273  2.0270 -1.7323
  159SAPE  H13Y17769   7.718   3.083   4.207  0.2847 -0.4324  0.3429
  159SAPE  C31417770   7.730   3.105   4.424  0.0873  0.4491 -0.3757
  159SAPE  H14X17771   7.631   3.057   4.443  0.0076  0.6275 -0.3361
  159SAPE  H14Y17772   7.722   3.190   4.496 -2.7946 -0.7687  0.8938
  159SAPE  C31517773   7.839   2.998   4.443 -0.2213 -0.4529  0.1966
  159SAPE  H15X17774   7.827   2.935   4.353  1.4498 -1.0424  0.3578
  159SAPE  H15Y17775   7.822   2.945   4.539  1.9153  2.1212  2.1628
  159SAPE  C31617776   7.976   3.064   4.436  0.7297  0.0717 -0.2056
  159SAPE  H16X17777   7.998   3.138   4.516  1.8038 -1.3305  0.8405
  159SAPE  H16Y17778   7.983   3.132   4.348 -1.3036  0.8971  0.2329
  159SAPE  C31717779   8.099   2.976   4.420  0.3693 -0.3684  0.4928
  159SAPE  H17X17780   8.067   2.890   4.358 -1.7612  0.2625  0.6361
  159SAPE  H17Y17781   8.124   2.929   4.518 -0.4952 -0.7524  0.5410
  159SAPE  C31817782   8.208   3.056   4.354  0.7056 -0.4126 -0.6270
  159SAPE  H18X17783   8.290   2.983   4.340  1.3538  0.2024 -0.1298
  159SAPE  H18Y17784   8.237   3.142   4.419  2.8331 -1.6085  0.0951
  159SAPE  H18Z17785   8.170   3.091   4.256  0.2424 -1.0647 -0.6863
  160SAPE     N17786   6.322   6.583   2.143 -0.8136 -0.0842  0.4773
  160SAPE   HN117787   6.225   6.568   2.177 -0.4231 -2.1542  0.7615
  160SAPE   HN217788   6.348   6.684   2.152  0.7296 -0.3052 -0.9759
  160SAPE   HN317789   6.317   6.575   2.039  0.0955 -2.7601  0.5649
  160SAPE   C1217790   6.423   6.491   2.195  0.0756  0.1188  0.0905
  160SAPE  H12A17791   6.388   6.385   2.194  1.5336 -0.4205  1.8163
  160SAPE  H12B17792   6.439   6.501   2.304 -0.0910  0.5421  0.0783
  160SAPE   C1117793   6.552   6.500   2.119  0.2465 -0.6875  0.0725
  160SAPE  H11A17794   6.538   6.499   2.009  0.4340 -0.2349  0.0415
  160SAPE  H11B17795   6.612   6.409   2.140  0.5252 -0.7114 -0.7762
  160SAPE     P17796   6.758   6.602   2.248  0.0327 -0.0280  0.1197
  160SAPE   O1317797   6.727   6.510   2.353  0.2445  0.1750 -0.3207
  160SAPE   O1417798   6.860   6.553   2.152 -0.2596 -0.2225  0.4283
  160SAPE   O1217799   6.618   6.620   2.171  0.1404  0.2181 -0.4597
  160SAPE   O1117800   6.792   6.748   2.294  0.8456  0.3191  0.2358
  160SAPE    C117801   6.687   6.838   2.341 -0.8751 -0.0495  0.4482
  160SAPE    HA17802   6.704   6.925   2.273  0.8640 -1.5762 -1.1964
  160SAPE    HB17803   6.581   6.809   2.324 -1.3185  1.9848 -0.7303
  160SAPE    C217804   6.711   6.889   2.486 -0.5451  0.6749 -0.9696
  160SAPE    HS17805   6.642   6.974   2.504  0.4489  1.1508  0.7862
  160SAPE   O2117806   6.853   6.923   2.500 -0.4384 -0.3526  0.9033
  160SAPE   C2117807   6.878   7.010   2.592 -0.6143  0.5899  0.1332
  160SAPE   O2217808   6.802   7.065   2.663  0.3769 -0.0241  0.4909
  160SAPE   C2217809   7.028   7.003   2.613  0.3620  0.2724 -0.0586
  160SAPE   H2R17810   7.054   6.900   2.646 -4.4460 -0.5638  1.9528
  160SAPE   H2S17811   7.077   7.013   2.514  1.4264 -0.2513  0.4015
  160SAPE    C317812   6.690   6.770   2.581  0.2989  0.3548  0.1966
  160SAPE    HX17813   6.782   6.707   2.583 -0.6833 -1.1259  2.0660
  160SAPE    HY17814   6.609   6.705   2.545  0.9867  0.5225 -1.7732
  160SAPE   O3117815   6.662   6.815   2.717  0.1962  0.0401 -0.3118
  160SAPE   C3117816   6.538   6.843   2.738  0.2318  0.4622 -1.0747
  160SAPE   O3217817   6.441   6.810   2.671 -0.5358  0.4021 -0.8700
  160SAPE   C3217818   6.527   6.925   2.873  0.3278 -1.0449 -0.1384
  160SAPE   H2X17819   6.601   7.008   2.873  2.7264 -3.0477  1.0582
  160SAPE   H2Y17820   6.555   6.861   2.959 -1.3749  1.7683  2.7299
  160SAPE   C2317821   7.068   7.109   2.718 -0.0700  0.5504 -0.5805
  160SAPE   H3R17822   7.005   7.091   2.807  0.0496  1.5699 -0.2785
  160SAPE   H3S17823   7.039   7.209   2.678 -0.7175 -0.6411 -3.3672
  160SAPE   C2417824   7.216   7.102   2.752 -0.5062  0.4567  0.4596
  160SAPE   H4R17825   7.236   7.181   2.827 -2.2011  1.0529  0.3096
  160SAPE   H4S17826   7.265   7.138   2.659  0.6861 -0.3083  0.7677
  160SAPE   C2517827   7.271   6.966   2.802  0.4970 -0.9055 -0.3860
  160SAPE   H5R17828   7.348   6.918   2.740  1.9042 -3.2804  2.9163
  160SAPE   C2617829   7.230   6.903   2.914 -0.3230 -0.1685  0.4764
  160SAPE   H6R17830   7.286   6.810   2.933 -0.0803 -0.7196 -2.4388
  160SAPE   C2717831   7.127   6.936   3.015  0.0896 -0.3511 -0.0709
  160SAPE   H7R17832   7.100   7.044   3.013 -0.5009 -0.4351  1.4667
  160SAPE   H7S17833   7.172   6.914   3.115 -1.9974 -0.8601  0.8087
  160SAPE   C2817834   6.995   6.870   2.992  0.2044 -0.8240  0.2151
  160SAPE   H8R17835   6.963   6.868   2.887  1.6376 -1.3034 -0.2398
  160SAPE   C2917836   6.916   6.832   3.092  0.2266 -0.2181  0.1520
  160SAPE   H9R17837   6.814   6.808   3.061  0.6109  1.7500 -3.2067
  160SAPE  C21017838   6.956   6.821   3.232  0.4349 -0.4907 -0.3550
  160SAPE  H10R17839   7.063   6.846   3.249  0.9747 -3.0293  0.5849
  160SAPE  H10S17840   6.951   6.714   3.264 -3.2122 -0.8460 -1.5841
  160SAPE  C21117841   6.862   6.910   3.313  0.6316 -0.5874 -0.0736
  160SAPE  H11R17842   6.758   6.918   3.277  0.6535  2.8497  0.2572
  160SAPE  C21217843   6.885   6.977   3.427  0.5237 -0.1693  0.5158
  160SAPE  H12R17844   6.809   7.042   3.474  3.2362  2.4281  1.6742
  160SAPE  C21317845   7.002   6.971   3.510 -0.3423 -0.1379 -1.1435
  160SAPE  H13R17846   7.033   7.074   3.536 -0.9653 -0.4496  0.9770
  160SAPE  H13S17847   7.089   6.932   3.452 -1.1201 -1.6090 -1.3641
  160SAPE  C21417848   6.977   6.886   3.637 -0.0321  0.2734 -0.3800
  160SAPE  H14R17849   6.950   6.783   3.611  1.4303  0.1245 -1.4507
  160SAPE  C21517850   6.986   6.911   3.769 -0.2010  0.7815 -0.0421
  160SAPE  H15R17851   6.965   6.836   3.847 -0.7991  2.1661  1.1693
  160SAPE  C21617852   7.007   7.048   3.816 -0.2926 -0.0869 -0.5556
  160SAPE  H16R17853   6.933   7.114   3.765 -1.6052 -1.0143  0.1109
  160SAPE  H16S17854   7.112   7.078   3.794 -0.5260  0.9663 -0.2867
  160SAPE  C21717855   6.958   7.050   3.964 -0.6488 -0.1082 -0.8000
  160SAPE  H17R17856   6.853   7.014   3.953 -1.3861  2.1440 -1.7686
  160SAPE  H17S17857   6.946   7.153   4.003 -4.0466 -0.1244 -1.4069
  160SAPE  C21817858   7.032   6.970   4.069  0.5708  0.4962 -0.0951
  160SAPE  H18R17859   7.121   7.033   4.089 -0.6160  2.4337 -0.6748
  160SAPE  H18S17860   7.063   6.872   4.026  2.6235  2.7458 -4.4008
  160SAPE  C21917861   6.960   6.954   4.205  0.1994 -0.1742 -0.4317
  160SAPE  H19R17862   6.857   6.913   4.200 -1.5611  3.8744 -1.9598
  160SAPE  H19S17863   6.946   7.057   4.244  0.9448 -0.0591 -0.4519
  160SAPE  C22017864   7.041   6.880   4.318  0.2543 -0.0086  0.4469
  160SAPE  H20R17865   7.056   6.777   4.282  0.2761 -0.0581  0.5968
  160SAPE  H20S17866   6.984   6.874   4.413 -0.1464  3.4007  0.5663
  160SAPE  H20T17867   7.142   6.920   4.342  2.3782 -2.6650 -3.0748
  160SAPE   C3317868   6.392   6.974   2.909 -0.5580 -0.3483  0.5501
  160SAPE   H3X17869   6.310   6.899   2.908 -0.1635 -0.8007 -0.9108
  160SAPE   H3Y17870   6.365   7.050   2.832 -0.5776 -2.7531 -1.9998
  160SAPE   C3417871   6.391   7.052   3.041 -0.4512  0.3048  0.3602
  160SAPE   H4X17872   6.305   7.122   3.044  0.4921  1.6153 -0.9958
  160SAPE   H4Y17873   6.482   7.117   3.035  0.0126 -0.4515 -1.7400
  160SAPE   C3517874   6.393   6.968   3.167  0.4536  0.3291 -0.2837
  160SAPE   H5X17875   6.483   6.905   3.179 -0.8227 -1.4025  0.8706
  160SAPE   H5Y17876   6.309   6.896   3.158 -0.9023  1.7891  0.1572
  160SAPE   C3617877   6.367   7.055   3.293  0.0343 -0.3053  0.0933
  160SAPE   H6X17878   6.299   7.011   3.369 -1.6938  3.6645  1.0923
  160SAPE   H6Y17879   6.312   7.147   3.264  0.0750 -0.1180  0.6067
  160SAPE   C3717880   6.498   7.104   3.360  0.8015  0.1760  0.9063
  160SAPE   H7X17881   6.517   7.206   3.318  2.4101  0.5065  2.3105
  160SAPE   H7Y17882   6.582   7.037   3.332  0.8101  0.8610 -0.8088
  160SAPE   C3817883   6.474   7.116   3.507 -0.0939  0.0363  0.4202
  160SAPE   H8X17884   6.414   7.033   3.551 -0.4508  0.3836  0.5987
  160SAPE   H8Y17885   6.412   7.208   3.519 -3.1927 -1.6810 -1.2398
  160SAPE   C3917886   6.598   7.121   3.592  0.9247  0.2521 -0.8463
  160SAPE   H9X17887   6.665   7.188   3.534  0.3110 -0.0997 -1.9773
  160SAPE   H9Y17888   6.639   7.018   3.596 -0.2837 -0.2250  0.5038
  160SAPE  C31017889   6.576   7.171   3.740  0.0230  0.8157  0.5247
  160SAPE  H10X17890   6.534   7.274   3.742 -0.0131  1.0130 -3.0266
  160SAPE  H10Y17891   6.668   7.168   3.801 -0.7142  1.8525  1.7263
  160SAPE  C31117892   6.484   7.080   3.825 -0.0692 -0.6926  0.5351
  160SAPE  H11X17893   6.521   6.976   3.813  1.2989 -0.3147  1.2641
  160SAPE  H11Y17894   6.383   7.101   3.783  0.0115 -0.7484  0.3130
  160SAPE  C31217895   6.494   7.097   3.978 -0.0620 -0.5683 -0.2104
  160SAPE  H12X17896   6.441   7.191   4.001  0.1078 -0.1450 -1.4887
  160SAPE  H12Y17897   6.602   7.096   4.004 -0.5395 -0.5623  1.9490
  160SAPE  C31317898   6.422   6.992   4.062  0.3634  0.0637 -0.2353
  160SAPE  H13X17899   6.463   6.890   4.049 -2.4527 -1.3413  1.0389
  160SAPE  H13Y17900   6.315   6.982   4.034  0.3858  3.2160 -1.8239
  160SAPE  C31417901   6.421   7.021   4.213  0.3529 -0.0487 -0.2349
  160SAPE  H14X17902   6.359   7.110   4.236 -1.3266 -0.6634 -2.0813
  160SAPE  H14Y17903   6.524   7.039   4.249  0.1853  0.9404 -0.2274
  160SAPE  C31517904   6.357   6.911   4.288  0.2774  0.6665 -0.1901
  160SAPE  H15X17905   6.421   6.820   4.279  0.0944  0.2873  1.8033
  160SAPE  H15Y17906   6.256   6.892   4.246  0.3670  1.8441 -0.9965
  160SAPE  C31617907   6.331   6.949   4.435 -0.1075  0.6823 -0.4449
  160SAPE  H16X17908   6.254   7.028   4.447  0.1827  0.6827  1.9325
  160SAPE  H16Y17909   6.418   6.985   4.494 -1.9489  4.3502  0.3427
  160SAPE  C31717910   6.269   6.832   4.515  0.4707  0.1753 -0.1690
  160SAPE  H17X17911   6.191   6.780   4.455 -0.3070 -1.0778  1.8405
  160SAPE  H17Y17912   6.213   6.875   4.600 -0.0443  0.1318 -0.4842
  160SAPE  C31817913   6.380   6.740   4.569 -0.9275  0.3640 -0.0840
  160SAPE  H18X17914   6.426   6.675   4.491 -2.7903 -0.1324 -0.8545
  160SAPE  H18Y17915   6.334   6.672   4.644  0.2131  0.7269  0.9640
  160SAPE  H18Z17916   6.467   6.795   4.609  0.3949 -0.7794 -1.2830
  161SAPE     N17917   6.409   3.849   2.743  0.5557 -0.0040 -0.1863
  161SAPE   HN117918   6.482   3.905   2.694  1.3829  0.3104  1.3503
  161SAPE   HN217919   6.454   3.813   2.830 -1.2188  2.5782  1.9734
  161SAPE   HN317920   6.372   3.780   2.674 -1.8643 -0.3390  1.3306
  161SAPE   C1217921   6.311   3.949   2.799  0.0034 -0.7011 -0.5648
  161SAPE  H12A17922   6.235   3.892   2.856  0.5546 -0.5927  0.2849
  161SAPE  H12B17923   6.256   4.001   2.718  0.9142 -0.0637 -0.7899
  161SAPE   C1117924   6.382   4.057   2.878  0.4315  0.3101  0.6792
  161SAPE  H11A17925   6.442   4.020   2.965  0.0746 -1.5985  0.1589
  161SAPE  H11B17926   6.319   4.132   2.931 -0.9618 -0.3670  0.0175
  161SAPE     P17927   6.468   4.248   2.703  0.2099  0.3256 -0.2941
  161SAPE   O1317928   6.596   4.319   2.709 -0.3449 -0.3858 -0.4788
  161SAPE   O1417929   6.424   4.210   2.568 -1.0648 -0.5870  0.3087
  161SAPE   O1217930   6.483   4.125   2.797  0.3570  0.0551  0.3489
  161SAPE   O1117931   6.348   4.332   2.769 -0.1006 -0.2306 -0.2864
  161SAPE    C117932   6.365   4.394   2.894  0.0754 -0.0046  0.3926
  161SAPE    HA17933   6.415   4.317   2.956  0.5695 -0.7794 -0.9292
  161SAPE    HB17934   6.438   4.477   2.886  0.4624 -0.3628  0.1448
  161SAPE    C217935   6.236   4.443   2.963  0.8390 -0.0744  0.3326
  161SAPE    HS17936   6.206   4.533   2.905 -1.6095 -0.7816  0.4297
  161SAPE   O2117937   6.277   4.469   3.097 -0.5549 -0.0526 -0.5296
  161SAPE   C2117938   6.193   4.545   3.168 -1.0070  0.1172  0.1454
  161SAPE   O2217939   6.104   4.608   3.118  0.4639 -0.0487  0.0097
  161SAPE   C2217940   6.235   4.555   3.319  0.4658  0.2201 -0.4017
  161SAPE   H2R17941   6.270   4.453   3.347 -2.1286  0.3157  4.2252
  161SAPE   H2S17942   6.310   4.637   3.326 -0.4450  1.1159 -0.8809
  161SAPE    C317943   6.111   4.353   2.965 -0.2531 -0.0624  0.5534
  161SAPE    HX17944   6.087   4.320   2.862  0.2301 -2.2880  1.0915
  161SAPE    HY17945   6.015   4.408   2.975 -0.2753 -0.0592  0.3151
  161SAPE   O3117946   6.118   4.231   3.041  0.5950 -0.4097  0.1035
  161SAPE   C3117947   6.003   4.178   3.078  1.1423  0.5827  0.3952
  161SAPE   O3217948   5.888   4.216   3.065  0.1403  0.2851  0.3862
  161SAPE   C3217949   6.046   4.061   3.172 -0.3714 -0.4032  0.2366
  161SAPE   H2X17950   6.127   4.102   3.236 -0.6589  0.6367 -0.0394
  161SAPE   H2Y17951   6.096   3.975   3.122 -2.0644 -2.4386  1.8535
  161SAPE   C2317952   6.114   4.583   3.420  0.5130 -0.2123 -0.0148
  161SAPE   H3R17953   6.019   4.609   3.368  1.2855 -0.6297 -1.7040
  161SAPE   H3S17954   6.145   4.664   3.489 -2.1163  1.5544 -0.7585
  161SAPE   C2417955   6.081   4.463   3.514  0.2023  0.1022 -0.2070
  161SAPE   H4R17956   6.149   4.443   3.600 -0.1331  0.6903  0.2016
  161SAPE   H4S17957   6.082   4.373   3.450 -1.4990  0.4388 -0.7600
  161SAPE   C2517958   5.945   4.489   3.569  0.7251 -0.0427  0.4074
  161SAPE   H5R17959   5.860   4.461   3.506 -0.9699 -0.3056  2.6681
  161SAPE   C2617960   5.915   4.559   3.682  0.2181  0.1167  0.2316
  161SAPE   H6R17961   5.807   4.580   3.688 -0.1915 -2.0634  2.4064
  161SAPE   C2717962   6.017   4.609   3.785 -0.0297 -0.0426  0.6911
  161SAPE   H7R17963   6.083   4.671   3.722 -1.2407  0.1249 -0.4754
  161SAPE   H7S17964   6.079   4.523   3.818  2.7520  0.7769 -1.9416
  161SAPE   C2817965   5.949   4.701   3.893 -0.4136  0.3907 -0.2203
  161SAPE   H8R17966   5.887   4.783   3.853 -0.9837 -0.4660 -1.1411
  161SAPE   C2917967   5.981   4.695   4.024 -0.2229 -0.2227  0.0815
  161SAPE   H9R17968   5.916   4.747   4.096  2.7132  2.9652  0.6844
  161SAPE  C21017969   6.080   4.601   4.085  0.0987  0.5837 -0.8309
  161SAPE  H10R17970   6.099   4.638   4.188 -1.0794  1.9696 -1.0729
  161SAPE  H10S17971   6.171   4.596   4.022 -0.0834 -0.3490 -1.0386
  161SAPE  C21117972   6.022   4.461   4.097  0.0162 -0.1396  0.7117
  161SAPE  H11R17973   6.024   4.403   4.004 -1.0890  1.1820 -0.1824
  161SAPE  C21217974   5.982   4.391   4.202  0.3479 -0.1205  0.2007
  161SAPE  H12R17975   5.941   4.290   4.186 -0.8859  0.7137 -2.4788
  161SAPE  C21317976   5.998   4.448   4.334  0.4950 -0.3403 -0.1379
  161SAPE  H13R17977   5.930   4.532   4.357 -1.4604 -2.3244  1.7724
  161SAPE  H13S17978   6.104   4.481   4.330  0.4851 -0.3737 -3.5393
  161SAPE  C21417979   5.982   4.346   4.443  0.4790  0.2527  0.2433
  161SAPE  H14R17980   6.074   4.288   4.463  1.5409  1.8182  0.0412
  161SAPE  C21517981   5.874   4.296   4.510  0.1989  0.6276 -0.3306
  161SAPE  H15R17982   5.895   4.217   4.584 -0.3082  0.5735 -0.2456
  161SAPE  C21617983   5.731   4.336   4.498 -0.0098 -0.3333  0.0374
  161SAPE  H16R17984   5.670   4.251   4.460  0.9049 -1.5219  1.1592
  161SAPE  H16S17985   5.721   4.420   4.426  3.2388  0.8592  0.8307
  161SAPE  C21717986   5.676   4.377   4.635  0.1824 -0.3243  0.4693
  161SAPE  H17R17987   5.694   4.293   4.705  1.5158 -0.9821 -0.6146
  161SAPE  H17S17988   5.567   4.391   4.650  0.0744 -2.8763  3.1495
  161SAPE  C21817989   5.744   4.498   4.702  0.2795  0.0707 -0.2337
  161SAPE  H18R17990   5.720   4.595   4.654  0.4795  0.2569  0.0398
  161SAPE  H18S17991   5.853   4.475   4.704  0.1537 -0.7630 -1.7876
  161SAPE  C21917992   5.705   4.518   4.848  0.1584 -0.0661  0.5630
  161SAPE  H19R17993   5.594   4.523   4.851 -0.1588 -4.1489  0.8962
  161SAPE  H19S17994   5.759   4.611   4.877  0.6226 -1.2097  3.7525
  161SAPE  C22017995   5.733   4.409   4.948 -0.4048  1.0681  0.4736
  161SAPE  H20R17996   5.746   4.431   5.056  0.1739  1.4221  0.3383
  161SAPE  H20S17997   5.835   4.369   4.926 -0.5542  1.3175 -0.7285
  161SAPE  H20T17998   5.667   4.320   4.938  0.9345 -0.0331  1.1585
  161SAPE   C3317999   5.940   3.995   3.257 -0.2116  0.1806 -0.3434
  161SAPE   H3X18000   5.959   3.885   3.249  3.5796  0.5333  1.4190
  161SAPE   H3Y18001   5.837   4.020   3.225 -1.2326 -2.9356  0.1297
  161SAPE   C3418002   5.956   4.038   3.399  0.2346 -0.1614 -0.8914
  161SAPE   H4X18003   5.927   4.144   3.413 -1.1697 -0.8110  1.9312
  161SAPE   H4Y18004   6.063   4.036   3.431  0.0454  1.5684 -0.0324
  161SAPE   C3518005   5.877   3.942   3.483 -0.1191  0.4178  0.6343
  161SAPE   H5X18006   5.932   3.846   3.474  0.0478  0.6071 -0.5253
  161SAPE   H5Y18007   5.771   3.939   3.450  0.0120  1.0571  0.1428
  161SAPE   C3618008   5.887   3.967   3.629  0.4563 -0.8426  0.0161
  161SAPE   H6X18009   5.995   3.965   3.657  0.4139  1.0765  0.4772
  161SAPE   H6Y18010   5.834   3.882   3.674  0.5675 -2.2715 -2.3875
  161SAPE   C3718011   5.804   4.091   3.664 -0.4509 -0.2732 -0.2697
  161SAPE   H7X18012   5.709   4.106   3.609 -0.2885 -1.8893 -1.0584
  161SAPE   H7Y18013   5.871   4.177   3.641 -2.4881  1.2971 -0.6099
  161SAPE   C3818014   5.777   4.099   3.816 -1.0972  0.4834 -0.7027
  161SAPE   H8X18015   5.877   4.096   3.865 -1.5588 -3.6550  0.3518
  161SAPE   H8Y18016   5.733   4.000   3.840  1.1007 -0.5414 -0.6104
  161SAPE   C3918017   5.706   4.219   3.867 -0.1234 -0.4012  0.0639
  161SAPE   H9X18018   5.597   4.229   3.844 -0.2710  1.3160  1.3178
  161SAPE   H9Y18019   5.766   4.307   3.837 -0.0777  0.0606  1.4444
  161SAPE  C31018020   5.701   4.209   4.021 -0.2626  0.1511  0.0509
  161SAPE  H10X18021   5.671   4.311   4.051  1.3298  1.0558 -1.2143
  161SAPE  H10Y18022   5.800   4.184   4.064 -1.0824 -1.0986  1.2845
  161SAPE  C31118023   5.593   4.111   4.079  0.7015  0.5577  0.5605
  161SAPE  H11X18024   5.618   4.013   4.033 -2.0453  1.2441 -2.8089
  161SAPE  H11Y18025   5.491   4.128   4.040  0.4888 -2.0398 -0.1625
  161SAPE  C31218026   5.592   4.103   4.232  0.2516 -0.1360  0.3547
  161SAPE  H12X18027   5.621   4.207   4.260  2.0282 -0.0621 -1.4941
  161SAPE  H12Y18028   5.676   4.041   4.270 -0.1627 -0.5934  0.5310
  161SAPE  C31318029   5.448   4.075   4.286  0.0209 -0.4070  0.1282
  161SAPE  H13X18030   5.461   4.034   4.389 -1.4443 -0.1936  0.4223
  161SAPE  H13Y18031   5.389   4.003   4.226  0.1743 -0.5540  0.1553
  161SAPE  C31418032   5.361   4.205   4.305  0.0608 -0.0811  0.5642
  161SAPE  H14X18033   5.373   4.267   4.214 -2.8552  3.0583  2.0951
  161SAPE  H14Y18034   5.403   4.259   4.393 -0.2456 -1.4306  1.5664
  161SAPE  C31518035   5.214   4.186   4.331  0.9503  0.6475  0.6457
  161SAPE  H15X18036   5.194   4.098   4.396  2.3750  0.9960  1.6026
  161SAPE  H15Y18037   5.162   4.163   4.235  1.1532 -0.7080  0.8461
  161SAPE  C31618038   5.138   4.307   4.396 -0.2190 -0.3558  0.6423
  161SAPE  H16X18039   5.142   4.396   4.330 -0.4314 -1.1284 -0.4498
  161SAPE  H16Y18040   5.184   4.340   4.492  0.8180 -1.4064  0.5354
  161SAPE  C31718041   4.991   4.283   4.413 -0.5537  0.4214  0.3886
  161SAPE  H17X18042   4.992   4.198   4.485  0.3219  0.3156  0.2632
  161SAPE  H17Y18043   4.933   4.246   4.327 -0.9312  0.7646  0.4935
  161SAPE  C31818044   4.917   4.403   4.449 -1.0378  0.3782  0.3256
  161SAPE  H18X18045   4.813   4.375   4.475 -0.7145 -2.0870 -0.7889
  161SAPE  H18Y18046   4.930   4.470   4.361 -0.4841 -2.4429 -1.8750
  161SAPE  H18Z18047   4.964   4.453   4.536  0.3183 -1.2477  0.5763
  162SAPE     N18048   4.616   0.089   2.859  0.3918  0.0201 -0.4244
  162SAPE   HN118049   4.568  -0.000   2.881 -0.3726  0.2688 -1.0513
  162SAPE   HN218050   4.587   0.101   2.760 -1.1886  2.4743  0.2501
  162SAPE   HN318051   4.713   0.082   2.897  0.4414  1.8075 -0.1195
  162SAPE   C1218052   4.544   0.181   2.943  0.0127  0.1659  0.0863
  162SAPE  H12A18053   4.478   0.233   2.869  1.8903  1.0335 -1.0461
  162SAPE  H12B18054   4.610   0.244   3.006  1.5646 -0.3744 -0.9382
  162SAPE   C1118055   4.445   0.098   3.026  1.2122 -0.0724  0.1681
  162SAPE  H11A18056   4.407   0.159   3.111  2.8311 -0.1331  0.9755
  162SAPE  H11B18057   4.493   0.015   3.081  0.8037 -0.2634  0.2390
  162SAPE     P18058   4.204  -0.013   3.008 -0.0378  0.2320 -0.4631
  162SAPE   O1318059   4.106   0.100   3.038 -1.1960  0.0255  0.3350
  162SAPE   O1418060   4.153  -0.121   2.918  0.1306 -0.4333  0.1594
  162SAPE   O1218061   4.338   0.038   2.951  0.0133 -0.4839  0.3796
  162SAPE   O1118062   4.253  -0.070   3.144  0.2383 -0.6879 -0.2182
  162SAPE    C118063   4.173  -0.156   3.227  0.2624  0.7093  0.2957
  162SAPE    HA18064   4.181  -0.117   3.330  3.6229 -2.5023  1.4964
  162SAPE    HB18065   4.070  -0.163   3.188  0.8838  1.8178 -1.7208
  162SAPE    C218066   4.239  -0.288   3.254  0.3186  0.0582  0.2518
  162SAPE    HS18067   4.347  -0.279   3.281 -0.2968  0.4232  2.8965
  162SAPE   O2118068   4.214  -0.375   3.139 -0.1743  0.3554 -0.6669
  162SAPE   C2118069   4.315  -0.380   3.052  0.2928  0.5867 -0.4860
  162SAPE   O2218070   4.414  -0.313   3.067 -0.2508 -0.0742 -0.6105
  162SAPE   C2218071   4.288  -0.485   2.939 -0.2626 -0.1531  0.6229
  162SAPE   H2R18072   4.287  -0.437   2.839  0.6361 -2.1135 -0.3785
  162SAPE   H2S18073   4.375  -0.554   2.933  0.1604  0.4695 -0.4814
  162SAPE    C318074   4.172  -0.358   3.376 -1.0093 -0.5558  0.2388
  162SAPE    HX18075   4.236  -0.447   3.391  0.1419 -0.0545 -1.4132
  162SAPE    HY18076   4.076  -0.394   3.333  0.2699 -0.9749 -2.4694
  162SAPE   O3118077   4.142  -0.278   3.495 -0.0874 -0.2509 -0.2309
  162SAPE   C3118078   4.231  -0.289   3.599  0.0278  0.2841  0.3970
  162SAPE   O3218079   4.333  -0.350   3.592  0.1008 -0.5265  0.4507
  162SAPE   C3218080   4.184  -0.205   3.718 -1.0831 -0.5427  0.0703
  162SAPE   H2X18081   4.109  -0.264   3.774 -1.5323  0.1148  0.1702
  162SAPE   H2Y18082   4.139  -0.116   3.668  0.4961  0.1304 -0.2363
  162SAPE   C2318083   4.158  -0.568   2.943  0.6408 -0.2110 -0.0668
  162SAPE   H3R18084   4.142  -0.607   2.839  2.5712  0.8889 -0.8176
  162SAPE   H3S18085   4.069  -0.503   2.957 -0.0957 -0.1615 -3.8551
  162SAPE   C2418086   4.162  -0.677   3.056  0.4421  0.2785 -0.6504
  162SAPE   H4R18087   4.059  -0.701   3.090  0.4773  0.7505 -0.2109
  162SAPE   H4S18088   4.205  -0.612   3.135 -2.0974  4.2993 -2.3077
  162SAPE   C2518089   4.242  -0.802   3.026 -0.3248  0.3061 -0.5649
  162SAPE   H5R18090   4.218  -0.854   2.932  1.9352 -0.0538 -1.0046
  162SAPE   C2618091   4.346  -0.854   3.098  0.1939 -0.2632 -0.3579
  162SAPE   H6R18092   4.406  -0.932   3.050 -0.0003  0.8170 -2.5062
  162SAPE   C2718093   4.394  -0.815   3.240  0.7608 -0.8276 -0.0867
  162SAPE   H7R18094   4.428  -0.711   3.222 -0.6836 -0.4848 -0.9957
  162SAPE   H7S18095   4.489  -0.865   3.270  2.0963  0.4116 -2.0090
  162SAPE   C2818096   4.292  -0.837   3.346  0.4773  0.2884 -0.0971
  162SAPE   H8R18097   4.187  -0.827   3.313  0.2583  1.9152  0.9874
  162SAPE   C2918098   4.313  -0.877   3.470 -0.2916  0.0243  0.2154
  162SAPE   H9R18099   4.223  -0.896   3.531 -1.1565  1.2678 -0.6469
  162SAPE  C21018100   4.440  -0.883   3.554 -0.5024 -0.1934  0.3302
  162SAPE  H10R18101   4.529  -0.858   3.493 -1.0974  1.6399  0.1309
  162SAPE  H10S18102   4.452  -0.991   3.575  1.0776 -0.1817 -0.3876
  162SAPE  C21118103   4.463  -0.786   3.673 -0.0420  0.4876  0.1176
  162SAPE  H11R18104   4.491  -0.687   3.634 -2.7516  0.7145 -1.4532
  162SAPE  C21218105   4.440  -0.822   3.803  1.3385 -0.7995 -0.9293
  162SAPE  H12R18106   4.458  -0.757   3.890  0.4128 -1.6429 -0.0737
  162SAPE  C21318107   4.384  -0.955   3.847 -0.5990  0.2387 -0.1187
  162SAPE  H13R18108   4.347  -1.024   3.768  0.4056 -1.7301  1.0495
  162SAPE  H13S18109   4.288  -0.936   3.901 -2.1418 -1.9720 -1.8994
  162SAPE  C21418110   4.462  -1.039   3.942  0.0987  0.0812  0.0642
  162SAPE  H14R18111   4.511  -1.128   3.900  0.9712  0.5333  0.1148
  162SAPE  C21518112   4.483  -1.011   4.076 -0.1506 -0.0340 -0.1743
  162SAPE  H15R18113   4.514  -1.090   4.146  1.6785  2.2208  1.7780
  162SAPE  C21618114   4.428  -0.902   4.160 -0.0631  0.6037  0.0397
  162SAPE  H16R18115   4.320  -0.876   4.151 -0.2163  0.4196  1.2188
  162SAPE  H16S18116   4.485  -0.813   4.126  0.6891  0.6943  1.4890
  162SAPE  C21718117   4.460  -0.911   4.307 -0.2141 -0.1934  0.0261
  162SAPE  H17R18118   4.427  -0.810   4.340  0.8046  0.2719 -0.3542
  162SAPE  H17S18119   4.568  -0.906   4.329 -0.5229  3.9337  1.3679
  162SAPE  C21818120   4.393  -1.022   4.389 -0.2229 -0.5784 -0.6044
  162SAPE  H18R18121   4.395  -1.125   4.346 -0.7740  0.0912 -2.3394
  162SAPE  H18S18122   4.283  -1.008   4.382 -0.3321  1.0934  2.6534
  162SAPE  C21918123   4.408  -1.012   4.540 -0.6275  0.4327 -0.0380
  162SAPE  H19R18124   4.351  -1.102   4.569 -0.2707  0.3077  0.2897
  162SAPE  H19S18125   4.363  -0.916   4.575 -1.9276  0.6167 -2.0486
  162SAPE  C22018126   4.553  -1.054   4.596  0.7270 -0.0818 -0.1230
  162SAPE  H20R18127   4.561  -1.164   4.590  1.2760  0.0285 -1.9188
  162SAPE  H20S18128   4.555  -1.040   4.706  0.3297 -1.6001  0.0985
  162SAPE  H20T18129   4.630  -1.000   4.537  0.5810  0.5686  0.2704
  162SAPE   C3318130   4.294  -0.155   3.813  0.1180 -0.0008 -0.0109
  162SAPE   H3X18131   4.370  -0.099   3.755  0.7714 -0.5725  0.2784
  162SAPE   H3Y18132   4.356  -0.237   3.857 -1.2111 -1.0176  0.0356
  162SAPE   C3418133   4.253  -0.059   3.925  0.5720  0.0302  0.3110
  162SAPE   H4X18134   4.193   0.022   3.880  0.4943 -0.4196 -0.4192
  162SAPE   H4Y18135   4.338  -0.006   3.975  0.7552 -0.6097  0.6957
  162SAPE   C3518136   4.177  -0.128   4.034 -0.1782 -0.1277  0.1347
  162SAPE   H5X18137   4.248  -0.191   4.091  1.9471  2.1631  0.1738
  162SAPE   H5Y18138   4.093  -0.191   3.998  0.9455 -1.5112 -0.1325
  162SAPE   C3618139   4.132  -0.031   4.140  0.0892 -0.1751 -0.5951
  162SAPE   H6X18140   4.078   0.055   4.096  0.7297  0.9713  0.7803
  162SAPE   H6Y18141   4.222   0.001   4.198 -0.3176  2.2255 -1.1928
  162SAPE   C3718142   4.046  -0.107   4.247  0.4451 -0.0784  0.4022
  162SAPE   H7X18143   4.078  -0.213   4.259  0.2421 -0.1676  0.1498
  162SAPE   H7Y18144   3.942  -0.115   4.209  0.3778 -0.0878  0.5834
  162SAPE   C3818145   4.036  -0.042   4.384 -0.1744 -1.3952  0.5070
  162SAPE   H8X18146   4.020   0.068   4.390  3.1731 -0.8009  0.8123
  162SAPE   H8Y18147   4.131  -0.068   4.436  0.1017 -2.1257 -0.3236
  162SAPE   C3918148   3.913  -0.107   4.466  0.6555 -0.1110 -0.6603
  162SAPE   H9X18149   3.929  -0.217   4.467  3.8144  0.2349 -1.1323
  162SAPE   H9Y18150   3.821  -0.090   4.406 -1.3160 -0.9955  1.9458
  162SAPE  C31018151   3.894  -0.063   4.608  0.0523  0.6500  0.8214
  162SAPE  H10X18152   3.977  -0.100   4.673 -0.0392  0.7004  0.9665
  162SAPE  H10Y18153   3.806  -0.115   4.651  1.1029  0.5964  3.0321
  162SAPE  C31118154   3.868   0.092   4.634 -0.8619  0.0451  0.3037
  162SAPE  H11X18155   3.773   0.112   4.581 -1.1745 -0.1774  0.7764
  162SAPE  H11Y18156   3.955   0.145   4.590 -1.6249  1.2092  0.1680
  162SAPE  C31218157   3.859   0.134   4.787  0.2274 -0.4000  0.0460
  162SAPE  H12X18158   3.951   0.107   4.843  1.1703  0.4477 -1.0723
  162SAPE  H12Y18159   3.766   0.078   4.814 -1.4435  1.0439 -2.3175
  162SAPE  C31318160   3.843   0.285   4.801 -0.0076  0.1719 -0.2121
  162SAPE  H13X18161   3.759   0.317   4.736 -1.9758 -2.4642  0.8639
  162SAPE  H13Y18162   3.935   0.330   4.759  1.2397 -1.0873  1.0624
  162SAPE  C31418163   3.818   0.331   4.947  0.4187 -0.0765 -0.4721
  162SAPE  H14X18164   3.896   0.290   5.014 -0.1243  0.3111  0.4165
  162SAPE  H14Y18165   3.720   0.290   4.977  0.3403  0.2217 -0.3178
  162SAPE  C31518166   3.805   0.486   4.958  0.3188  0.5607 -0.0502
  162SAPE  H15X18167   3.719   0.514   4.893  0.0005 -0.7878 -0.2274
  162SAPE  H15Y18168   3.898   0.532   4.918  0.5399 -0.2205 -0.4339
  162SAPE  C31618169   3.770   0.537   5.102 -0.3936  0.2732  0.3260
  162SAPE  H16X18170   3.791   0.646   5.103 -1.2066  0.4699  2.7748
  162SAPE  H16Y18171   3.833   0.482   5.176  1.0349  1.9492  0.4135
  162SAPE  C31718172   3.618   0.504   5.135 -0.2515 -0.2463 -0.5193
  162SAPE  H17X18173   3.608   0.394   5.146  0.8223 -0.1208  2.8709
  162SAPE  H17Y18174   3.551   0.535   5.051  0.9359  1.8055 -0.7835
  162SAPE  C31818175   3.565   0.581   5.261 -0.4624  0.4287  0.6190
  162SAPE  H18X18176   3.453   0.579   5.263 -0.4981 -0.0930 -0.6048
  162SAPE  H18Y18177   3.588   0.689   5.247  0.5589  0.1093 -0.2347
  162SAPE  H18Z18178   3.617   0.536   5.347  2.6526  1.5016 -0.5563
  163SAPE     N18179   3.894   5.550   2.362 -0.1803  0.2113 -0.0716
  163SAPE   HN118180   3.944   5.565   2.272  0.0494 -0.5240 -0.0680
  163SAPE   HN218181   3.906   5.456   2.405 -0.0707 -0.2265 -1.0385
  163SAPE   HN318182   3.795   5.570   2.339 -0.4490  2.2477  2.3561
  163SAPE   C1218183   3.927   5.649   2.473  0.3106 -1.0224  0.0750
  163SAPE  H12A18184   3.856   5.636   2.557 -2.1937  0.3861 -1.6931
  163SAPE  H12B18185   3.916   5.753   2.437 -1.2677 -0.8050  1.1399
  163SAPE   C1118186   4.068   5.620   2.528 -0.5976  0.3236 -0.7451
  163SAPE  H11A18187   4.073   5.514   2.560  2.3859  0.4799 -0.3795
  163SAPE  H11B18188   4.074   5.687   2.617 -0.2995  1.0633 -1.3047
  163SAPE     P18189   4.265   5.752   2.442  0.0219  0.1272  0.0067
  163SAPE   O1318190   4.383   5.727   2.353  0.3427  0.1395  0.5981
  163SAPE   O1418191   4.185   5.881   2.446 -0.0963  0.0186  0.9547
  163SAPE   O1218192   4.169   5.631   2.420  0.4001  0.2157 -0.2984
  163SAPE   O1118193   4.308   5.718   2.594  0.0577  0.1423 -0.4895
  163SAPE    C118194   4.414   5.621   2.619  0.7717 -0.5170 -0.0754
  163SAPE    HA18195   4.364   5.546   2.685 -2.0302  1.1012 -0.2063
  163SAPE    HB18196   4.462   5.567   2.534  1.1607  0.5529 -0.5459
  163SAPE    C218197   4.531   5.683   2.699 -0.5813  0.4164 -0.5712
  163SAPE    HS18198   4.593   5.739   2.626  1.2835 -0.0164  0.6168
  163SAPE   O2118199   4.609   5.576   2.761 -0.0328 -0.2737 -0.2545
  163SAPE   C2118200   4.735   5.606   2.780  0.4837  0.1418 -0.0156
  163SAPE   O2218201   4.790   5.705   2.731 -0.2955 -0.1133 -0.0790
  163SAPE   C2218202   4.799   5.515   2.890 -0.1665 -0.0020  0.2453
  163SAPE   H2R18203   4.718   5.476   2.956 -0.3639  1.0784  0.6529
  163SAPE   H2S18204   4.841   5.428   2.833 -0.6733  0.5531 -1.0068
  163SAPE    C318205   4.490   5.786   2.807  0.3168  0.4483 -0.0354
  163SAPE    HX18206   4.438   5.726   2.886  0.8103 -0.7007 -0.5538
  163SAPE    HY18207   4.409   5.853   2.771  0.3767 -0.0506 -1.1377
  163SAPE   O3118208   4.599   5.864   2.859 -0.3117 -0.7732  0.5701
  163SAPE   C3118209   4.628   5.967   2.781  0.0798  0.6027  0.1174
  163SAPE   O3218210   4.569   5.999   2.677  0.5181 -0.2620  0.3213
  163SAPE   C3218211   4.709   6.071   2.863  0.0540 -0.6515 -0.5503
  163SAPE   H2X18212   4.703   6.165   2.804 -0.3406  0.5393  1.3176
  163SAPE   H2Y18213   4.819   6.060   2.866 -0.1515 -2.9220  0.1136
  163SAPE   C2318214   4.920   5.585   2.971  0.3199  0.3532  0.4507
  163SAPE   H3R18215   4.912   5.696   2.980  0.5912  0.2855  1.6614
  163SAPE   H3S18216   5.008   5.576   2.904  0.0047 -0.8536  0.1840
  163SAPE   C2418217   4.932   5.516   3.109  0.1363 -0.3816  0.4339
  163SAPE   H4R18218   4.834   5.528   3.160 -0.6792  0.2320 -1.1895
  163SAPE   H4S18219   5.007   5.573   3.168  0.6282 -0.2617 -0.2953
  163SAPE   C2518220   4.950   5.366   3.098 -0.0030 -0.2844  0.5381
  163SAPE   H5R18221   4.932   5.320   3.000 -0.8260  0.5962  0.2565
  163SAPE   C2618222   5.001   5.297   3.201  0.0025  0.8585  0.1917
  163SAPE   H6R18223   5.006   5.188   3.186 -1.6989  0.6860  0.6359
  163SAPE   C2718224   5.034   5.357   3.332 -0.1817 -0.0099 -0.2041
  163SAPE   H7R18225   4.962   5.322   3.410  1.4548 -0.2960  1.2448
  163SAPE   H7S18226   5.014   5.466   3.334 -2.2127 -0.2950 -1.9234
  163SAPE   C2818227   5.175   5.326   3.378  0.3656  0.1971 -0.4511
  163SAPE   H8R18228   5.241   5.277   3.306 -3.3816 -2.5526 -2.3330
  163SAPE   C2918229   5.221   5.343   3.507  0.4463  0.7056 -0.4497
  163SAPE   H9R18230   5.322   5.309   3.532 -0.3078 -1.9970 -0.7364
  163SAPE  C21018231   5.146   5.400   3.623  0.7159  0.4823 -0.9833
  163SAPE  H10R18232   5.123   5.321   3.697  0.3963  0.7197 -0.8260
  163SAPE  H10S18233   5.047   5.442   3.593 -0.0851  1.0779  2.1504
  163SAPE  C21118234   5.229   5.507   3.696  0.3444 -1.0119  0.0992
  163SAPE  H11R18235   5.266   5.586   3.630  1.7050 -0.6625  1.2275
  163SAPE  C21218236   5.245   5.525   3.835  0.2193  0.0219  0.1493
  163SAPE  H12R18237   5.318   5.604   3.859  1.3181 -1.4917  2.0212
  163SAPE  C21318238   5.197   5.432   3.939 -0.0413 -0.1902 -0.3384
  163SAPE  H13R18239   5.094   5.407   3.908  0.1864  0.3889 -1.5900
  163SAPE  H13S18240   5.192   5.495   4.030  2.3481 -0.4963  0.0815
  163SAPE  C21418241   5.286   5.318   3.959  0.4562 -0.2819  0.2824
  163SAPE  H14R18242   5.365   5.310   3.882 -0.8535 -2.7664 -0.9502
  163SAPE  C21518243   5.276   5.228   4.058 -0.4828  0.1581 -0.2266
  163SAPE  H15R18244   5.336   5.136   4.060 -0.6413  0.0591  0.1373
  163SAPE  C21618245   5.178   5.229   4.174  0.2223  0.1472  0.3292
  163SAPE  H16R18246   5.106   5.147   4.154 -0.2668  0.8258 -0.7999
  163SAPE  H16S18247   5.127   5.328   4.177  0.5645  0.4856 -2.6146
  163SAPE  C21718248   5.246   5.199   4.311 -0.8512 -0.3427 -0.0413
  163SAPE  H17R18249   5.325   5.272   4.339 -0.3659 -0.2380 -1.6007
  163SAPE  H17S18250   5.298   5.102   4.300  1.1867  0.5813  0.9325
  163SAPE  C21818251   5.145   5.199   4.424 -1.0446  0.0125 -0.1262
  163SAPE  H18R18252   5.076   5.116   4.397 -1.6556  1.2192 -2.4956
  163SAPE  H18S18253   5.084   5.290   4.444  0.3010  0.7839  0.6633
  163SAPE  C21918254   5.200   5.152   4.564  0.1007  0.0964  0.2265
  163SAPE  H19R18255   5.282   5.223   4.586  0.3315 -0.3809  0.9433
  163SAPE  H19S18256   5.242   5.050   4.554 -0.0372  0.1177 -0.6863
  163SAPE  C22018257   5.087   5.146   4.672  0.4708 -0.6510 -1.1453
  163SAPE  H20R18258   4.998   5.084   4.650 -2.4837  1.8202  2.5175
  163SAPE  H20S18259   5.043   5.248   4.672 -0.6617 -1.1213 -0.8145
  163SAPE  H20T18260   5.128   5.130   4.774  0.6345 -0.1288 -1.1247
  163SAPE   C3318261   4.667   6.098   3.005  0.1446  0.4593  0.0395
  163SAPE   H3X18262   4.558   6.115   3.017  0.3420  2.8103 -0.9209
  163SAPE   H3Y18263   4.701   6.195   3.048  0.5515  0.0858  0.5809
  163SAPE   C3418264   4.713   5.992   3.099  0.4173  0.0948 -0.3357
  163SAPE   H4X18265   4.647   5.903   3.087 -1.9449  1.5332  1.2537
  163SAPE   H4Y18266   4.687   6.021   3.203  0.8616  0.6353 -0.3683
  163SAPE   C3518267   4.868   5.969   3.089  0.4259  0.3225 -0.2119
  163SAPE   H5X18268   4.916   6.066   3.113  2.8989 -0.5536 -1.2769
  163SAPE   H5Y18269   4.881   5.924   2.988 -0.7115  0.1955 -0.3242
  163SAPE   C3618270   4.913   5.859   3.194  0.0700  0.2885 -0.6193
  163SAPE   H6X18271   5.011   5.817   3.162  0.1238 -1.2966  1.3937
  163SAPE   H6Y18272   4.848   5.769   3.191  1.7309 -0.9933  0.3663
  163SAPE   C3718273   4.923   5.916   3.334 -0.9051 -0.3619 -0.1616
  163SAPE   H7X18274   4.824   5.963   3.353 -0.0144  0.8188  1.8588
  163SAPE   H7Y18275   5.003   5.993   3.334 -1.5489  0.3313 -0.7894
  163SAPE   C3818276   4.943   5.806   3.440  0.4005  0.3369  0.1230
  163SAPE   H8X18277   5.052   5.782   3.436  0.2721 -0.1420 -3.2022
  163SAPE   H8Y18278   4.888   5.713   3.414  2.2002 -0.8431  0.3323
  163SAPE   C3918279   4.916   5.845   3.590 -0.5066  0.0465 -0.3655
  163SAPE   H9X18280   4.808   5.870   3.603 -0.6205  0.5337 -2.0075
  163SAPE   H9Y18281   4.970   5.930   3.637 -0.5373 -1.0060  1.7231
  163SAPE  C31018282   4.926   5.712   3.677  0.5781  0.5166  0.8676
  163SAPE  H10X18283   5.033   5.684   3.684  0.3419 -0.9767 -0.7280
  163SAPE  H10Y18284   4.877   5.626   3.626 -0.2634  0.7447  1.2740
  163SAPE  C31118285   4.882   5.730   3.822  0.1465 -0.2887  0.7027
  163SAPE  H11X18286   4.886   5.626   3.862 -0.7160 -0.5408  0.1712
  163SAPE  H11Y18287   4.777   5.763   3.833  0.1003  0.3247 -1.2331
  163SAPE  C31218288   4.980   5.807   3.913  0.0875 -0.8896  0.3156
  163SAPE  H12X18289   4.988   5.910   3.871  1.0739 -0.9131  0.4094
  163SAPE  H12Y18290   5.086   5.780   3.895 -0.1423 -1.0216 -0.9859
  163SAPE  C31318291   4.924   5.815   4.058 -0.4207 -1.1842 -0.1837
  163SAPE  H13X18292   4.932   5.711   4.097  1.7721 -0.7425  0.7019
  163SAPE  H13Y18293   4.819   5.852   4.058  0.2480  0.8622  1.2649
  163SAPE  C31418294   4.997   5.919   4.146  0.3427  0.5227 -0.1276
  163SAPE  H14X18295   5.006   6.011   4.084 -1.9620 -0.2561 -1.7424
  163SAPE  H14Y18296   5.095   5.879   4.176 -0.9557 -0.6182  2.9796
  163SAPE  C31518297   4.928   5.948   4.284 -0.5482  0.5980  0.0634
  163SAPE  H15X18298   4.817   5.949   4.269 -0.4582  0.9084 -0.6073
  163SAPE  H15Y18299   4.956   6.047   4.326  0.7519 -0.9115  3.0371
  163SAPE  C31618300   4.948   5.843   4.398 -0.5555 -0.6407 -0.0378
  163SAPE  H16X18301   5.058   5.828   4.402 -0.4714  0.0744  0.5823
  163SAPE  H16Y18302   4.902   5.743   4.386 -0.7591 -0.9231  2.5621
  163SAPE  C31718303   4.913   5.897   4.540 -0.1003 -0.5610  0.1055
  163SAPE  H17X18304   4.808   5.932   4.533  0.0370 -0.0359  0.6399
  163SAPE  H17Y18305   4.978   5.981   4.572  0.5762  0.6095 -3.9130
  163SAPE  C31818306   4.931   5.797   4.652  0.0977  0.1878 -0.5487
  163SAPE  H18X18307   4.885   5.827   4.748  4.0797 -1.2865  2.0640
  163SAPE  H18Y18308   5.038   5.794   4.684 -0.0590 -1.6001 -0.1244
  163SAPE  H18Z18309   4.907   5.690   4.638  1.7078 -0.7658  2.8054
  164SAPE     N18310   0.845   3.228   2.517 -0.5194 -0.1436 -0.0762
  164SAPE   HN118311   0.819   3.131   2.544  1.0466 -0.1692  1.5108
  164SAPE   HN218312   0.762   3.267   2.468 -2.3495 -2.6957  0.7650
  164SAPE   HN318313   0.919   3.229   2.443 -1.9952  0.1299 -1.6089
  164SAPE   C1218314   0.913   3.298   2.635 -0.0341  0.4677 -0.4682
  164SAPE  H12A18315   0.840   3.271   2.715 -1.0559  2.2781 -0.7353
  164SAPE  H12B18316   0.915   3.406   2.609  1.3621  0.0157 -2.4416
  164SAPE   C1118317   1.053   3.232   2.651  0.3788 -0.1382 -0.7169
  164SAPE  H11A18318   1.107   3.297   2.723  1.4083 -0.4397 -1.2063
  164SAPE  H11B18319   1.102   3.254   2.554  2.7810  1.7305  0.8048
  164SAPE     P18320   1.019   3.036   2.831  0.1367 -0.4054 -0.0403
  164SAPE   O1318321   0.895   2.957   2.818  0.0667 -0.2967  0.5253
  164SAPE   O1418322   1.132   2.955   2.878 -0.3771 -0.4931  0.1814
  164SAPE   O1218323   1.038   3.091   2.682 -0.3409  0.0268  0.5112
  164SAPE   O1118324   0.993   3.166   2.923  0.7063  1.0258  0.2981
  164SAPE    C118325   0.987   3.147   3.062 -0.0315  0.0209  0.0152
  164SAPE    HA18326   0.880   3.142   3.091  0.2931 -0.8690  1.1595
  164SAPE    HB18327   1.044   3.058   3.096  0.2212  0.4676  0.7970
  164SAPE    C218328   1.053   3.263   3.142 -0.4323 -0.4784 -0.3435
  164SAPE    HS18329   0.975   3.342   3.142 -0.7013 -0.7368 -0.6562
  164SAPE   O2118330   1.174   3.308   3.079 -0.1201 -0.2795 -0.0611
  164SAPE   C2118331   1.153   3.414   3.003 -0.1803 -0.1123 -0.5947
  164SAPE   O2218332   1.046   3.451   2.954  0.2625 -0.5739  0.1915
  164SAPE   C2218333   1.281   3.499   3.003  0.5229  0.2229 -0.1795
  164SAPE   H2R18334   1.329   3.491   3.103 -0.8463 -1.4193  0.3728
  164SAPE   H2S18335   1.355   3.466   2.926  0.5496  2.3903 -1.1840
  164SAPE    C318336   1.084   3.228   3.290 -0.2120  0.6388  1.0331
  164SAPE    HX18337   1.174   3.163   3.282  1.7834  3.0557  1.9986
  164SAPE    HY18338   1.006   3.171   3.343  0.4480  3.6727  5.9006
  164SAPE   O3118339   1.116   3.341   3.371 -0.8946 -0.1781 -0.3470
  164SAPE   C3118340   1.246   3.369   3.389  0.0361  0.2824 -0.1221
  164SAPE   O3218341   1.339   3.294   3.363 -0.4055 -0.6068 -0.1274
  164SAPE   C3218342   1.261   3.513   3.423 -0.4020  0.0966  0.4587
  164SAPE   H2X18343   1.172   3.561   3.469  0.6712  1.4135  1.2093
  164SAPE   H2Y18344   1.281   3.564   3.326  1.8126  0.1884  0.9192
  164SAPE   C2318345   1.256   3.650   2.973  0.2228  0.7264  0.3716
  164SAPE   H3R18346   1.191   3.695   3.051  1.5818  0.9205  1.4119
  164SAPE   H3S18347   1.205   3.658   2.875  1.8526  0.6231 -0.5193
  164SAPE   C2418348   1.382   3.727   2.950 -0.0569 -0.3000 -0.3663
  164SAPE   H4R18349   1.357   3.833   2.928 -1.6358 -0.7633 -0.9195
  164SAPE   H4S18350   1.426   3.697   2.852 -0.6379  1.7464 -1.3091
  164SAPE   C2518351   1.481   3.717   3.061 -0.5057 -0.1417 -1.7196
  164SAPE   H5R18352   1.562   3.648   3.034 -1.1499 -0.8191 -1.9540
  164SAPE   C2618353   1.478   3.783   3.180  0.4104 -0.5771 -0.6098
  164SAPE   H6R18354   1.548   3.762   3.263  0.0408  3.2540  0.8769
  164SAPE   C2718355   1.387   3.895   3.216 -0.3120  0.2156 -0.4623
  164SAPE   H7R18356   1.294   3.854   3.262 -0.1258  1.3483  1.0052
  164SAPE   H7S18357   1.350   3.952   3.129 -1.2002  2.8577  1.5040
  164SAPE   C2818358   1.443   3.996   3.316  0.8796 -0.1929 -0.1478
  164SAPE   H8R18359   1.503   4.076   3.270 -0.3729  0.2150 -1.1270
  164SAPE   C2918360   1.406   4.017   3.440  0.0804 -0.6585 -0.7375
  164SAPE   H9R18361   1.460   4.093   3.499 -2.4764 -0.3381  1.3891
  164SAPE  C21018362   1.317   3.932   3.525  0.0284  1.0168 -0.5883
  164SAPE  H10R18363   1.375   3.879   3.605 -0.4976  1.0823 -0.1564
  164SAPE  H10S18364   1.270   3.845   3.473  0.5794 -0.3276  1.0438
  164SAPE  C21118365   1.227   4.030   3.592 -0.4809 -0.8451 -0.2418
  164SAPE  H11R18366   1.140   4.062   3.531  0.1581 -2.1675 -1.9239
  164SAPE  C21218367   1.238   4.071   3.724 -0.3705 -0.0752 -0.2006
  164SAPE  H12R18368   1.159   4.134   3.767  0.3422  1.5846 -1.2338
  164SAPE  C21318369   1.347   4.023   3.816  0.3078 -0.0984  0.1236
  164SAPE  H13R18370   1.445   4.008   3.766  0.4409 -2.8102  1.0306
  164SAPE  H13S18371   1.318   3.921   3.852 -1.4520  0.6145  0.8670
  164SAPE  C21418372   1.354   4.113   3.940 -0.3211 -0.4141 -0.1530
  164SAPE  H14R18373   1.358   4.223   3.934 -1.2352 -0.4714 -2.7547
  164SAPE  C21518374   1.355   4.068   4.066  0.2703  1.0010 -0.1193
  164SAPE  H15R18375   1.352   4.141   4.148  2.2973  0.6299  0.3581
  164SAPE  C21618376   1.350   3.925   4.119 -0.8013 -0.8268  0.5704
  164SAPE  H16R18377   1.456   3.899   4.140  0.4390  1.3087 -2.3144
  164SAPE  H16S18378   1.303   3.854   4.047 -1.6779  0.4223 -0.1296
  164SAPE  C21718379   1.260   3.915   4.246  0.1383 -0.1654 -0.2446
  164SAPE  H17R18380   1.270   3.813   4.290  1.0696  0.1567  0.3168
  164SAPE  H17S18381   1.152   3.927   4.224 -0.4403 -1.0455  1.8022
  164SAPE  C21818382   1.310   4.019   4.355  0.5689  0.1031  0.9712
  164SAPE  H18R18383   1.293   4.127   4.338  1.0520 -0.1193 -1.1157
  164SAPE  H18S18384   1.420   4.001   4.352  0.4800 -0.2785 -1.1802
  164SAPE  C21918385   1.258   3.976   4.495 -0.1657 -0.3837  0.3703
  164SAPE  H19R18386   1.306   4.055   4.558  1.4864 -2.2980  1.6548
  164SAPE  H19S18387   1.311   3.882   4.522 -1.3817 -1.1778  0.0605
  164SAPE  C22018388   1.116   3.967   4.529 -0.2378  0.0210  0.6153
  164SAPE  H20R18389   1.099   3.926   4.631 -0.4264 -0.0575  0.5533
  164SAPE  H20S18390   1.060   3.903   4.458 -1.2646  1.0334  0.4634
  164SAPE  H20T18391   1.069   4.068   4.528 -0.4316 -0.0526 -1.0726
  164SAPE   C3318392   1.376   3.542   3.521 -0.0283  0.2216 -0.3571
  164SAPE   H3X18393   1.395   3.650   3.541  0.7688 -0.2203  1.5524
  164SAPE   H3Y18394   1.463   3.481   3.489 -1.8691 -2.8326  0.1207
  164SAPE   C3418395   1.342   3.490   3.663 -0.3567  0.0829 -0.1751
  164SAPE   H4X18396   1.335   3.380   3.668  2.1986 -0.1054  0.8409
  164SAPE   H4Y18397   1.242   3.534   3.685 -0.7424 -0.0113 -1.6685
  164SAPE   C3518398   1.443   3.535   3.768  0.2763 -0.0659  0.4157
  164SAPE   H5X18399   1.440   3.644   3.788 -3.2984 -0.0731  0.6840
  164SAPE   H5Y18400   1.543   3.512   3.726 -0.7112 -1.3452 -1.4304
  164SAPE   C3618401   1.433   3.467   3.907  0.0618 -0.7367  0.2395
  164SAPE   H6X18402   1.531   3.476   3.957  0.8130 -0.0879 -1.2750
  164SAPE   H6Y18403   1.411   3.359   3.892 -3.3976 -0.1845  0.4320
  164SAPE   C3718404   1.308   3.515   3.990 -0.4103 -0.6470 -0.2050
  164SAPE   H7X18405   1.215   3.489   3.934 -1.5233  0.4543  1.0474
  164SAPE   H7Y18406   1.318   3.626   3.989  2.8711 -0.8071  1.5541
  164SAPE   C3818407   1.301   3.465   4.134  0.6656  0.2334 -0.2301
  164SAPE   H8X18408   1.399   3.489   4.180  0.7041  1.8328 -1.0965
  164SAPE   H8Y18409   1.294   3.354   4.129  2.3805 -0.0605  2.0440
  164SAPE   C3918410   1.181   3.516   4.224 -0.4738 -0.2806  0.1407
  164SAPE   H9X18411   1.084   3.482   4.181  0.5008  0.6093 -3.0062
  164SAPE   H9Y18412   1.192   3.626   4.219  0.3276 -0.3540  0.1695
  164SAPE  C31018413   1.194   3.458   4.368 -0.3889  0.6534  1.2823
  164SAPE  H10X18414   1.300   3.482   4.394 -0.0389 -1.1907  1.7463
  164SAPE  H10Y18415   1.190   3.348   4.353 -2.8235  1.1388 -3.1720
  164SAPE  C31118416   1.091   3.498   4.467  0.0130 -0.6520 -0.2229
  164SAPE  H11X18417   0.991   3.457   4.442 -0.4829 -0.3704  1.2247
  164SAPE  H11Y18418   1.096   3.609   4.475  1.5987 -0.8438  2.4415
  164SAPE  C31218419   1.138   3.444   4.602  0.2110 -1.0986 -0.2116
  164SAPE  H12X18420   1.243   3.474   4.622 -0.4152  0.7270  0.5123
  164SAPE  H12Y18421   1.151   3.334   4.611 -1.4350 -1.2046  1.5935
  164SAPE  C31318422   1.038   3.472   4.720  0.6008 -0.0796  0.6619
  164SAPE  H13X18423   1.064   3.403   4.803 -3.5966 -0.6649  1.7117
  164SAPE  H13Y18424   0.940   3.435   4.684  1.2590  0.0122 -1.3430
  164SAPE  C31418425   1.027   3.612   4.767 -0.8746  0.3087  0.2262
  164SAPE  H14X18426   1.008   3.680   4.681  1.8671 -0.9031 -1.4696
  164SAPE  H14Y18427   1.129   3.650   4.791 -0.4969 -0.4973 -0.0811
  164SAPE  C31518428   0.927   3.635   4.886 -1.0593 -0.2151  0.2625
  164SAPE  H15X18429   0.969   3.589   4.978 -3.2310 -2.1820  0.3594
  164SAPE  H15Y18430   0.832   3.582   4.863 -0.5767 -0.0481 -2.3562
  164SAPE  C31618431   0.893   3.783   4.920  0.4894  0.1338 -0.0771
  164SAPE  H16X18432   0.844   3.809   4.824  0.5744 -0.1437 -0.1974
  164SAPE  H16Y18433   0.986   3.839   4.946  1.1518  0.4859 -2.8814
  164SAPE  C31718434   0.789   3.814   5.029  0.0309 -0.4337  0.4062
  164SAPE  H17X18435   0.756   3.920   5.018  1.3166 -0.0146  0.3772
  164SAPE  H17Y18436   0.839   3.812   5.129  1.8222  1.4992 -0.3634
  164SAPE  C31818437   0.673   3.717   5.032 -0.6085 -0.0322 -0.2105
  164SAPE  H18X18438   0.621   3.701   4.934  1.2863 -2.1681 -0.9788
  164SAPE  H18Y18439   0.586   3.746   5.094  0.3337 -0.0715  1.1680
  164SAPE  H18Z18440   0.705   3.622   5.081  0.0007 -0.5498 -1.5590
  165SAPE     N18441   0.614   5.621   2.654  0.0581  0.0554  0.5551
  165SAPE   HN118442   0.594   5.538   2.596 -1.5367 -0.3765  1.6362
  165SAPE   HN218443   0.673   5.677   2.588 -0.7136 -1.0625 -1.1529
  165SAPE   HN318444   0.669   5.586   2.735  0.1985 -1.0336 -0.0002
  165SAPE   C1218445   0.489   5.697   2.703 -0.6283 -0.0448 -0.0444
  165SAPE  H12A18446   0.401   5.630   2.692  1.0858 -2.1463 -1.9991
  165SAPE  H12B18447   0.474   5.772   2.623  0.4280 -0.3751 -0.5745
  165SAPE   C1118448   0.517   5.769   2.837 -0.3579 -0.0546  0.8892
  165SAPE  H11A18449   0.540   5.699   2.920 -3.6152 -2.4952 -0.0490
  165SAPE  H11B18450   0.432   5.826   2.881 -1.7663 -0.8588 -0.7037
  165SAPE     P18451   0.610   6.007   2.783 -0.2405  0.0611 -0.1662
  165SAPE   O1318452   0.742   6.073   2.753  0.3477  0.8067 -0.9272
  165SAPE   O1418453   0.500   6.005   2.685 -0.1423  0.1884 -0.6963
  165SAPE   O1218454   0.630   5.858   2.817  0.1551 -0.2583 -0.1161
  165SAPE   O1118455   0.550   6.071   2.916 -0.3071 -0.3831  0.2547
  165SAPE    C118456   0.619   6.039   3.039 -0.1706  0.1065 -0.5277
  165SAPE    HA18457   0.594   5.942   3.087 -0.7509  0.8205  0.6581
  165SAPE    HB18458   0.729   6.036   3.020 -0.3124  0.8317 -1.5349
  165SAPE    C218459   0.582   6.144   3.151  0.2257 -0.6888  0.4041
  165SAPE    HS18460   0.573   6.249   3.114  0.8742 -0.0173  2.0343
  165SAPE   O2118461   0.677   6.131   3.254  0.1423  0.4897 -0.1673
  165SAPE   C2118462   0.712   6.229   3.337 -0.1337  0.0493 -0.4066
  165SAPE   O2218463   0.694   6.348   3.313 -0.2621  0.1692 -0.7433
  165SAPE   C2218464   0.780   6.170   3.466 -0.0455  0.5542 -0.0240
  165SAPE   H2R18465   0.712   6.095   3.511 -0.5017 -0.5482 -2.3475
  165SAPE   H2S18466   0.868   6.115   3.426  1.4024  1.5888  1.5819
  165SAPE    C318467   0.446   6.108   3.210 -0.3280 -0.6438 -0.1979
  165SAPE    HX18468   0.442   5.998   3.220 -1.5976 -0.6637 -0.7535
  165SAPE    HY18469   0.362   6.138   3.144 -0.2544 -0.1980 -0.0949
  165SAPE   O3118470   0.430   6.172   3.340 -0.4759  0.4310  0.4043
  165SAPE   C3118471   0.342   6.122   3.418  0.9068 -0.3133 -0.1385
  165SAPE   O3218472   0.261   6.035   3.400  0.1182  0.2807  0.3218
  165SAPE   C3218473   0.348   6.190   3.552  0.2443  0.1449 -0.1449
  165SAPE   H2X18474   0.247   6.230   3.577  0.3815 -0.2227  1.0547
  165SAPE   H2Y18475   0.406   6.284   3.539  0.1168  0.2180 -0.1943
  165SAPE   C2318476   0.819   6.274   3.571 -0.4577 -0.1344 -1.0687
  165SAPE   H3R18477   0.734   6.338   3.604 -0.3951 -0.5045 -0.1608
  165SAPE   H3S18478   0.882   6.345   3.514 -2.1395  3.6146  1.3584
  165SAPE   C2418479   0.894   6.219   3.696  0.0409 -0.3275 -0.0693
  165SAPE   H4R18480   0.944   6.308   3.739 -0.0933 -0.3896  0.2229
  165SAPE   H4S18481   0.978   6.161   3.653  0.2489 -1.2710  1.5247
  165SAPE   C2518482   0.818   6.127   3.787  0.0969  0.2877 -0.0249
  165SAPE   H5R18483   0.742   6.056   3.751  0.9621 -0.7617  0.1680
  165SAPE   C2618484   0.834   6.123   3.921  0.6231  0.3005  0.0198
  165SAPE   H6R18485   0.748   6.082   3.977  0.8827 -0.6497 -0.2656
  165SAPE   C2718486   0.923   6.209   4.002 -0.7034  0.3609  0.0777
  165SAPE   H7R18487   1.022   6.208   3.951 -0.9916 -0.0881 -0.4955
  165SAPE   H7S18488   0.938   6.152   4.096  0.0056  1.5338  0.6988
  165SAPE   C2818489   0.878   6.348   4.024 -0.6901 -1.1899 -0.0856
  165SAPE   H8R18490   0.816   6.393   3.945  0.7418 -0.7615 -1.0110
  165SAPE   C2918491   0.896   6.420   4.142 -0.2152 -0.7069  0.4544
  165SAPE   H9R18492   0.868   6.526   4.145  2.4192  0.0340  0.5127
  165SAPE  C21018493   0.968   6.364   4.261  0.2213 -0.3525 -0.6043
  165SAPE  H10R18494   1.056   6.430   4.275 -0.6315  0.5373  0.8540
  165SAPE  H10S18495   1.016   6.265   4.250 -1.0368 -1.3255  1.9142
  165SAPE  C21118496   0.891   6.357   4.391  0.2656  0.3836  0.1753
  165SAPE  H11R18497   0.799   6.297   4.384 -0.9158  2.2727 -1.1526
  165SAPE  C21218498   0.926   6.414   4.509 -0.0435  0.8970  0.2421
  165SAPE  H12R18499   0.861   6.396   4.596 -0.4059 -3.1533 -0.6554
  165SAPE  C21318500   1.045   6.500   4.538 -0.0521  0.2467 -0.5269
  165SAPE  H13R18501   0.998   6.600   4.550 -2.7973 -0.6997 -2.4367
  165SAPE  H13S18502   1.116   6.495   4.453  0.0284 -0.1954 -0.4398
  165SAPE  C21418503   1.101   6.459   4.678 -0.9682  0.7832  0.0485
  165SAPE  H14R18504   1.166   6.370   4.678 -1.0620  0.6835  1.7936
  165SAPE  C21518505   1.090   6.525   4.803 -0.1177  0.2820 -0.9920
  165SAPE  H15R18506   1.131   6.488   4.899 -0.8011  1.6260 -0.1554
  165SAPE  C21618507   1.015   6.656   4.836  0.0327 -0.1179  1.0253
  165SAPE  H16R18508   0.959   6.635   4.930 -1.9582 -2.9873 -0.6227
  165SAPE  H16S18509   0.934   6.673   4.761  1.8791  1.1800 -0.7716
  165SAPE  C21718510   1.093   6.791   4.853 -0.5934  0.4667  0.1166
  165SAPE  H17R18511   1.027   6.859   4.912 -2.1759 -1.7010  0.9792
  165SAPE  H17S18512   1.111   6.827   4.750  0.3035  0.4714  0.2653
  165SAPE  C21818513   1.224   6.789   4.933  0.4175 -0.7867 -0.3536
  165SAPE  H18R18514   1.275   6.884   4.905 -1.3874  0.3139 -0.0453
  165SAPE  H18S18515   1.289   6.713   4.885 -0.6940 -2.3507  0.5125
  165SAPE  C21918516   1.217   6.776   5.085 -0.2148 -0.6364 -0.3126
  165SAPE  H19R18517   1.130   6.828   5.130 -1.0356 -0.9908 -1.4267
  165SAPE  H19S18518   1.310   6.818   5.128 -1.0915  1.4677 -0.3609
  165SAPE  C22018519   1.206   6.635   5.138 -0.2571 -0.0325 -0.3930
  165SAPE  H20R18520   1.297   6.576   5.114  0.7827  1.7240 -0.9228
  165SAPE  H20S18521   1.114   6.582   5.105  1.5416 -1.5299 -3.3405
  165SAPE  H20T18522   1.205   6.636   5.249  0.3527 -0.5322 -0.3750
  165SAPE   C3318523   0.401   6.103   3.663 -0.3271  0.1268  0.0142
  165SAPE   H3X18524   0.504   6.065   3.643 -1.6478 -3.8957 -0.1833
  165SAPE   H3Y18525   0.344   6.007   3.659  1.9303 -1.2570 -2.0563
  165SAPE   C3418526   0.394   6.172   3.800 -0.4142 -0.7463  0.5649
  165SAPE   H4X18527   0.304   6.237   3.808  0.2329  0.5197 -1.5759
  165SAPE   H4Y18528   0.475   6.242   3.827 -2.1240  0.9833  1.4705
  165SAPE   C3518529   0.379   6.064   3.904 -0.0656 -0.1514  0.3224
  165SAPE   H5X18530   0.471   6.002   3.901  0.5591  0.7830 -2.8104
  165SAPE   H5Y18531   0.293   5.996   3.882 -0.0677 -1.1996  3.1539
  165SAPE   C3618532   0.364   6.119   4.047 -0.2091  0.2696  0.9243
  165SAPE   H6X18533   0.269   6.176   4.058  0.8399  1.9846  1.5115
  165SAPE   H6Y18534   0.444   6.190   4.077  0.8385 -0.1119 -0.8693
  165SAPE   C3718535   0.350   5.998   4.143  1.0766  0.5011 -0.6144
  165SAPE   H7X18536   0.447   5.944   4.141  0.7344 -0.1745  0.0637
  165SAPE   H7Y18537   0.271   5.928   4.106 -0.3384  1.5991  0.2095
  165SAPE   C3818538   0.307   6.044   4.282 -0.2691  0.3806  0.4902
  165SAPE   H8X18539   0.210   6.099   4.276  1.4369  3.4399 -1.7517
  165SAPE   H8Y18540   0.377   6.119   4.325  0.3171  0.2804 -0.2731
  165SAPE   C3918541   0.307   5.932   4.388  0.1269  0.6113  0.2404
  165SAPE   H9X18542   0.404   5.878   4.391  2.4502  4.4381  0.7523
  165SAPE   H9Y18543   0.220   5.865   4.368 -0.7353  1.7824 -0.0357
  165SAPE  C31018544   0.284   5.996   4.521 -0.0762  0.6153  0.0481
  165SAPE  H10X18545   0.185   6.045   4.507 -1.0093 -1.1849 -0.0017
  165SAPE  H10Y18546   0.358   6.077   4.533 -1.2758  1.7389  0.0649
  165SAPE  C31118547   0.278   5.895   4.641  0.4981 -0.2501 -0.8332
  165SAPE  H11X18548   0.384   5.867   4.656  1.5002  3.4546 -0.0239
  165SAPE  H11Y18549   0.203   5.817   4.613  0.2532 -0.3450  0.0475
  165SAPE  C31218550   0.222   5.955   4.778 -0.0178 -0.7883 -0.0268
  165SAPE  H12X18551   0.243   5.878   4.856 -0.0880  2.4429  3.4430
  165SAPE  H12Y18552   0.113   5.968   4.767 -0.0620  1.6719  2.3560
  165SAPE  C31318553   0.277   6.086   4.832  0.0317  0.2918 -0.1002
  165SAPE  H13X18554   0.259   6.171   4.762  1.2006  0.9994  0.4314
  165SAPE  H13Y18555   0.387   6.073   4.841  0.2339  2.3564  1.0309
  165SAPE  C31418556   0.218   6.114   4.974 -0.3290 -0.3288  0.4045
  165SAPE  H14X18557   0.256   6.214   5.005 -0.5761 -0.8884  2.7163
  165SAPE  H14Y18558   0.261   6.039   5.043  3.0346 -0.9435 -2.0782
  165SAPE  C31518559   0.067   6.134   4.990  0.1114 -0.5827  0.2835
  165SAPE  H15X18560   0.014   6.037   4.981  1.5747 -1.4076  0.1782
  165SAPE  H15Y18561   0.029   6.195   4.906 -0.6918 -0.2542  0.8792
  165SAPE  C31618562   0.017   6.213   5.119  0.4493  0.5588 -0.3168
  165SAPE  H16X18563   0.073   6.309   5.120  0.7574  0.3880 -0.6659
  165SAPE  H16Y18564   0.047   6.162   5.213  2.2776  1.8252 -0.1559
  165SAPE  C31718565  -0.139   6.238   5.132  0.8114  0.3766  0.8599
  165SAPE  H17X18566  -0.196   6.150   5.096  1.4704 -0.3767  1.6110
  165SAPE  H17Y18567  -0.150   6.322   5.060 -0.5921  0.0998  0.7200
  165SAPE  C31818568  -0.187   6.284   5.271 -0.4149 -0.9727  1.1463
  165SAPE  H18X18569  -0.130   6.374   5.303 -0.9851  0.7319 -2.1998
  165SAPE  H18Y18570  -0.172   6.202   5.345  0.2858 -1.0050  0.9771
  165SAPE  H18Z18571  -0.294   6.314   5.280  0.5028  2.4932  2.5036
  166SAPE     N18572   0.750   5.232   2.671  0.1196  0.4297 -0.7656
  166SAPE   HN118573   0.804   5.320   2.679 -0.0756  0.4089  1.6480
  166SAPE   HN218574   0.735   5.200   2.573  0.1468  0.1216 -0.6712
  166SAPE   HN318575   0.654   5.252   2.706  0.1906  0.0611 -0.3363
  166SAPE   C1218576   0.812   5.138   2.771  0.3232  0.0568 -0.1719
  166SAPE  H12A18577   0.920   5.135   2.745 -0.0128 -1.2239 -1.5441
  166SAPE  H12B18578   0.766   5.038   2.764  0.6329 -0.0391 -0.8803
  166SAPE   C1118579   0.805   5.197   2.915 -0.3849 -0.2155  0.5024
  166SAPE  H11A18580   0.850   5.113   2.971  0.2192 -1.4985 -1.7691
  166SAPE  H11B18581   0.701   5.214   2.950 -0.5414  2.2004 -0.9154
  166SAPE     P18582   0.831   5.461   2.945 -0.1732  0.0209  0.1765
  166SAPE   O1318583   0.947   5.560   2.944  1.0354 -0.4017  0.4392
  166SAPE   O1418584   0.724   5.483   2.841 -0.4059 -0.3744 -0.1225
  166SAPE   O1218585   0.888   5.312   2.933 -0.0190 -0.2506 -0.0119
  166SAPE   O1118586   0.762   5.467   3.089 -0.0256  0.1263 -0.0577
  166SAPE    C118587   0.621   5.478   3.099  0.4935  0.3131  0.5958
  166SAPE    HA18588   0.578   5.571   3.057 -1.0013 -0.6128 -0.0251
  166SAPE    HB18589   0.574   5.384   3.063  0.5495  0.9745 -1.3366
  166SAPE    C218590   0.576   5.476   3.251 -0.0493  0.3574  0.1242
  166SAPE    HS18591   0.465   5.485   3.256 -0.0465  0.3813  0.1433
  166SAPE   O2118592   0.635   5.585   3.323 -0.2744 -0.2301  0.4612
  166SAPE   C2118593   0.583   5.709   3.302 -0.7861 -0.3752 -0.5593
  166SAPE   O2218594   0.482   5.730   3.232 -0.4234 -0.2276 -0.1390
  166SAPE   C2218595   0.648   5.808   3.386 -0.6822  0.2677  0.5615
  166SAPE   H2R18596   0.758   5.790   3.377 -0.8623 -0.4340 -0.3839
  166SAPE   H2S18597   0.625   5.911   3.350  0.0976 -0.2827 -1.6648
  166SAPE    C318598   0.632   5.343   3.314 -0.4293 -0.2393 -0.2494
  166SAPE    HX18599   0.741   5.358   3.306  0.1633 -0.9109  3.9573
  166SAPE    HY18600   0.594   5.266   3.243  1.2668 -0.5785 -0.8166
  166SAPE   O3118601   0.580   5.328   3.450  0.3641  0.4246  0.0368
  166SAPE   C3118602   0.660   5.267   3.530 -0.7135 -1.0081 -0.4530
  166SAPE   O3218603   0.767   5.212   3.505  0.3617 -0.2990  0.0501
  166SAPE   C3218604   0.596   5.282   3.671  0.1050  0.0642  0.2024
  166SAPE   H2X18605   0.507   5.214   3.672  1.9945 -2.5858  1.1766
  166SAPE   H2Y18606   0.568   5.389   3.665 -0.6017 -0.2126 -2.7006
  166SAPE   C2318607   0.602   5.800   3.532 -0.4848  0.1875 -0.1664
  166SAPE   H3R18608   0.492   5.808   3.547 -0.5891  0.9000 -1.2048
  166SAPE   H3S18609   0.644   5.880   3.596  0.2886 -0.0231 -0.4038
  166SAPE   C2418610   0.649   5.680   3.616 -0.1355  0.0175  0.1568
  166SAPE   H4R18611   0.598   5.596   3.563 -0.0705  0.5441 -0.7646
  166SAPE   H4S18612   0.606   5.684   3.718 -1.4786 -1.6366 -0.2901
  166SAPE   C2518613   0.797   5.662   3.614  0.6599  0.3179 -0.1343
  166SAPE   H5R18614   0.839   5.606   3.530  0.7714  0.8797 -0.4532
  166SAPE   C2618615   0.875   5.694   3.717 -0.2630 -0.0068 -0.2807
  166SAPE   H6R18616   0.980   5.670   3.697  0.5207  1.7334  1.4087
  166SAPE   C2718617   0.846   5.773   3.843  0.0851 -0.0735  0.4742
  166SAPE   H7R18618   0.745   5.820   3.853 -0.1555 -0.7130  1.1901
  166SAPE   H7S18619   0.923   5.853   3.853 -0.5139  0.6182 -0.3222
  166SAPE   C2818620   0.862   5.669   3.955 -0.0063  0.5230 -0.3367
  166SAPE   H8R18621   0.896   5.567   3.932 -1.9321 -0.0583 -0.7764
  166SAPE   C2918622   0.834   5.693   4.087  0.6841 -0.4131  0.6376
  166SAPE   H9R18623   0.858   5.608   4.152  1.3402 -0.7064  0.0312
  166SAPE  C21018624   0.787   5.814   4.145 -0.5013 -0.2933  0.2099
  166SAPE  H10R18625   0.697   5.786   4.204 -1.9965 -1.7060 -2.4995
  166SAPE  H10S18626   0.748   5.881   4.065 -1.7855 -1.3522 -0.0914
  166SAPE  C21118627   0.884   5.892   4.239  0.3129 -0.0447  0.3879
  166SAPE  H11R18628   0.990   5.865   4.230 -0.0108 -1.7497  1.4015
  166SAPE  C21218629   0.842   5.981   4.335 -0.3929 -0.2402  0.1955
  166SAPE  H12R18630   0.908   6.026   4.411 -2.2309  0.1851  1.6098
  166SAPE  C21318631   0.694   6.009   4.349 -0.1093  0.5640  0.3464
  166SAPE  H13R18632   0.650   5.914   4.387 -1.3322  0.3056 -1.5708
  166SAPE  H13S18633   0.646   6.014   4.249  2.0161  0.3462 -0.7387
  166SAPE  C21418634   0.646   6.127   4.434 -0.1574 -0.1334 -0.0983
  166SAPE  H14R18635   0.592   6.208   4.382 -0.7919 -0.7050 -0.3545
  166SAPE  C21518636   0.659   6.135   4.568 -0.3826 -0.4583 -0.0708
  166SAPE  H15R18637   0.638   6.228   4.622 -0.6742  0.5972 -1.9111
  166SAPE  C21618638   0.732   6.032   4.650  0.4505  0.5173  0.2360
  166SAPE  H16R18639   0.766   5.950   4.583 -0.2115  0.4641 -0.0498
  166SAPE  H16S18640   0.661   5.986   4.723  0.9270 -1.4748 -0.4767
  166SAPE  C21718641   0.846   6.094   4.733 -0.8564 -0.0274  1.3144
  166SAPE  H17R18642   0.917   6.144   4.663 -0.3783  0.0254  1.8260
  166SAPE  H17S18643   0.903   6.005   4.765 -0.3765  0.1491  0.9646
  166SAPE  C21818644   0.805   6.164   4.864  0.0542  0.0796  0.3535
  166SAPE  H18R18645   0.738   6.096   4.921 -0.1431 -0.6136 -0.6781
  166SAPE  H18S18646   0.750   6.258   4.844 -1.3963 -0.3822  1.9259
  166SAPE  C21918647   0.924   6.196   4.962  0.3032  0.2697  0.8491
  166SAPE  H19R18648   0.881   6.259   5.043 -1.6960  0.5558 -0.3631
  166SAPE  H19S18649   1.006   6.255   4.915  0.0530 -0.6945 -0.8802
  166SAPE  C22018650   0.984   6.066   5.036 -0.0092 -0.0400  0.3380
  166SAPE  H20R18651   1.055   6.092   5.116  1.0429  0.7186 -0.7983
  166SAPE  H20S18652   1.034   6.001   4.961 -1.8565  0.0536 -1.0769
  166SAPE  H20T18653   0.897   6.010   5.077  1.6596 -2.7281  0.4228
  166SAPE   C3318654   0.690   5.289   3.790  0.1862  0.0272 -0.1172
  166SAPE   H3X18655   0.752   5.381   3.780  0.4511 -0.2386 -1.0696
  166SAPE   H3Y18656   0.762   5.204   3.797  1.2323  0.9779  1.3299
  166SAPE   C3418657   0.622   5.299   3.922  0.6466 -1.3467  0.5367
  166SAPE   H4X18658   0.559   5.209   3.938 -0.7891 -0.0868  2.3569
  166SAPE   H4Y18659   0.544   5.378   3.917 -0.3886 -2.3598 -0.1132
  166SAPE   C3518660   0.722   5.324   4.034  0.2177  0.2892 -0.1329
  166SAPE   H5X18661   0.801   5.396   4.002  0.8825 -0.7755 -0.9497
  166SAPE   H5Y18662   0.768   5.224   4.045 -1.0043 -0.1240  1.7523
  166SAPE   C3618663   0.657   5.349   4.178 -0.0239  0.2988  0.3753
  166SAPE   H6X18664   0.592   5.260   4.190  0.2113 -0.2454 -1.8636
  166SAPE   H6Y18665   0.599   5.444   4.173 -1.0310 -0.1707  2.2746
  166SAPE   C3718666   0.757   5.371   4.296 -0.2674 -0.1841  0.0995
  166SAPE   H7X18667   0.833   5.440   4.254 -1.0718  0.1705 -0.7945
  166SAPE   H7Y18668   0.804   5.270   4.309 -0.3277 -0.4827 -1.7387
  166SAPE   C3818669   0.700   5.415   4.432 -0.4332  0.0400 -0.9802
  166SAPE   H8X18670   0.781   5.398   4.506  0.5064 -0.2335 -2.0292
  166SAPE   H8Y18671   0.609   5.354   4.452 -0.1203 -0.1358 -0.0570
  166SAPE   C3918672   0.664   5.565   4.451 -0.0669 -0.0542  0.4640
  166SAPE   H9X18673   0.581   5.586   4.379 -0.1695 -2.8692 -0.3358
  166SAPE   H9Y18674   0.754   5.623   4.422  0.3336 -1.7209 -1.8619
  166SAPE  C31018675   0.617   5.599   4.591  0.3594 -0.5331  0.2907
  166SAPE  H10X18676   0.612   5.710   4.595 -3.2644 -0.4947 -1.0378
  166SAPE  H10Y18677   0.694   5.568   4.665  1.9359  0.2336 -0.9772
  166SAPE  C31118678   0.477   5.546   4.611 -0.0063  0.1625  0.0005
  166SAPE  H11X18679   0.450   5.448   4.566 -1.6643  0.9532 -0.8353
  166SAPE  H11Y18680   0.405   5.614   4.560 -0.2206 -0.2602 -0.2704
  166SAPE  C31218681   0.435   5.543   4.762  0.8188 -0.0198 -0.6083
  166SAPE  H12X18682   0.453   5.642   4.809 -0.2854 -0.4985  0.9063
  166SAPE  H12Y18683   0.491   5.472   4.826  1.6587  0.0812 -1.2223
  166SAPE  C31318684   0.282   5.503   4.769  0.6039 -0.0743  0.1446
  166SAPE  H13X18685   0.288   5.396   4.740 -0.5824 -0.2472  0.4978
  166SAPE  H13Y18686   0.214   5.563   4.705  1.6458 -1.6453 -2.6072
  166SAPE  C31418687   0.233   5.510   4.914 -1.1616 -0.1612 -0.3671
  166SAPE  H14X18688   0.217   5.615   4.948 -1.6512  0.1650 -1.5318
  166SAPE  H14Y18689   0.305   5.462   4.983 -2.5776 -2.2809 -0.2761
  166SAPE  C31518690   0.098   5.441   4.936 -0.5963  0.6246  0.0922
  166SAPE  H15X18691   0.083   5.359   4.863  0.0269  1.8159 -1.4360
  166SAPE  H15Y18692   0.013   5.508   4.910 -1.6573 -1.1977 -1.4252
  166SAPE  C31618693   0.085   5.392   5.079  0.7595 -0.1172  0.4874
  166SAPE  H16X18694   0.171   5.336   5.121 -0.3155 -0.0050  3.0676
  166SAPE  H16Y18695   0.005   5.315   5.090  0.9878 -0.4866 -0.3785
  166SAPE  C31718696   0.034   5.499   5.174 -0.3242  0.2165 -0.0671
  166SAPE  H17X18697  -0.073   5.518   5.153 -1.1904 -2.5415  1.3536
  166SAPE  H17Y18698   0.092   5.593   5.159  0.6074 -0.7265 -2.9656
  166SAPE  C31818699   0.035   5.470   5.321 -0.5062  0.8365 -0.0505
  166SAPE  H18X18700   0.122   5.415   5.361 -0.1327 -1.2121 -3.2673
  166SAPE  H18Y18701  -0.056   5.413   5.350 -0.1521  1.4496  2.4496
  166SAPE  H18Z18702   0.023   5.562   5.382  1.4884  0.6955  0.5951
  167SAPE     N18703   1.903   4.223   2.372 -0.2838  0.5561  0.5802
  167SAPE   HN118704   1.834   4.257   2.442  0.1404 -1.4134  2.0592
  167SAPE   HN218705   1.958   4.297   2.324 -0.0984  0.6398  0.9158
  167SAPE   HN318706   1.852   4.161   2.305  0.8817 -0.7768  0.8675
  167SAPE   C1218707   2.013   4.136   2.447  1.4049 -0.5247  0.6048
  167SAPE  H12A18708   1.955   4.048   2.482 -1.2454  0.2193 -1.5495
  167SAPE  H12B18709   2.049   4.193   2.535 -0.7728  1.5241  0.2696
  167SAPE   C1118710   2.126   4.096   2.351  0.3763  0.2356  0.0879
  167SAPE  H11A18711   2.208   4.058   2.416 -1.5020 -0.8508  1.9475
  167SAPE  H11B18712   2.161   4.189   2.303 -1.3968  1.3686  0.9015
  167SAPE     P18713   2.078   3.864   2.246 -0.1096 -0.0587 -0.2027
  167SAPE   O1318714   1.960   3.818   2.169 -0.6326 -0.6690  0.2009
  167SAPE   O1418715   2.215   3.819   2.202  0.2574  0.2271  0.2958
  167SAPE   O1218716   2.081   4.024   2.237 -0.4987  0.0174 -0.2817
  167SAPE   O1118717   2.059   3.838   2.399  0.0279 -0.6422  0.1866
  167SAPE    C118718   2.020   3.707   2.447 -1.0988 -0.1305 -0.2399
  167SAPE    HA18719   1.915   3.685   2.416 -2.1516  1.9151  1.5697
  167SAPE    HB18720   2.092   3.629   2.415  0.2661  0.3551  1.4956
  167SAPE    C218721   1.995   3.712   2.602 -0.0994 -0.0024 -0.3774
  167SAPE    HS18722   1.935   3.621   2.617  2.3066 -1.6231  0.0029
  167SAPE   O2118723   1.919   3.828   2.628 -0.5467  0.0911 -0.0691
  167SAPE   C2118724   1.857   3.833   2.741  0.6585 -0.6663 -0.1846
  167SAPE   O2218725   1.816   3.736   2.805 -0.2268  0.1494 -0.1145
  167SAPE   C2218726   1.816   3.980   2.769 -0.0701 -0.4043 -0.1320
  167SAPE   H2R18727   1.784   4.024   2.672  3.5015  0.8914 -0.8855
  167SAPE   H2S18728   1.723   3.980   2.828  0.7790  1.2198  1.3037
  167SAPE    C318729   2.131   3.699   2.684  0.0092 -0.1597  1.1443
  167SAPE    HX18730   2.178   3.799   2.670  0.0788 -0.4707 -1.2471
  167SAPE    HY18731   2.193   3.618   2.641 -0.9453 -0.6307  0.6240
  167SAPE   O3118732   2.109   3.655   2.818  0.4798  0.3171  0.3520
  167SAPE   C3118733   2.202   3.684   2.910  0.1848 -1.2420 -0.2200
  167SAPE   O3218734   2.296   3.765   2.895  0.4632  0.2191 -0.7946
  167SAPE   C3218735   2.174   3.618   3.039  0.6054 -0.0485  0.0223
  167SAPE   H2X18736   2.173   3.509   3.018 -0.8599  0.1822 -1.2737
  167SAPE   H2Y18737   2.072   3.650   3.070  0.4479  0.4489 -0.9815
  167SAPE   C2318738   1.935   4.053   2.824  0.2917  0.5752  0.0441
  167SAPE   H3R18739   1.913   4.162   2.825 -0.5386  0.4248 -0.8595
  167SAPE   H3S18740   2.027   4.044   2.762 -0.6835  0.9893 -1.5087
  167SAPE   C2418741   1.983   4.003   2.961 -0.1252 -0.0312 -0.0893
  167SAPE   H4R18742   2.067   4.065   2.999 -0.6873  0.2300  0.7800
  167SAPE   H4S18743   2.015   3.896   2.959  2.0004  0.4976  1.5360
  167SAPE   C2518744   1.876   4.044   3.063  0.6678  0.2404  0.4362
  167SAPE   H5R18745   1.837   4.147   3.067  2.4932  0.9449  1.3942
  167SAPE   C2618746   1.821   3.962   3.151  0.2338  0.0947  0.5311
  167SAPE   H6R18747   1.742   3.994   3.220 -0.6246  0.8379 -0.7509
  167SAPE   C2718748   1.869   3.820   3.180  0.0045  0.4507  0.4604
  167SAPE   H7R18749   1.924   3.784   3.090  3.4073  0.2000  2.4930
  167SAPE   H7S18750   1.787   3.745   3.187 -0.0218  0.5083  0.7762
  167SAPE   C2818751   1.956   3.822   3.298 -0.1630  0.0735 -0.3898
  167SAPE   H8R18752   2.062   3.842   3.274 -0.3491 -0.9875 -2.2747
  167SAPE   C2918753   1.934   3.763   3.417 -0.3761  0.1450  0.5448
  167SAPE   H9R18754   2.010   3.769   3.496  0.0989 -0.3963  0.1358
  167SAPE  C21018755   1.802   3.722   3.478 -0.3851  0.3730  0.2542
  167SAPE  H10R18756   1.822   3.645   3.554 -0.0965  0.2790  0.0838
  167SAPE  H10S18757   1.739   3.675   3.399 -1.2261  1.0978  0.4658
  167SAPE  C21118758   1.731   3.844   3.533  0.1336 -0.3872 -0.3667
  167SAPE  H11R18759   1.740   3.927   3.462 -0.1307 -2.0869 -2.4975
  167SAPE  C21218760   1.704   3.880   3.660  0.7837  0.2746  0.4696
  167SAPE  H12R18761   1.645   3.973   3.670 -0.5964 -0.4054 -0.8385
  167SAPE  C21318762   1.709   3.802   3.792  0.4753  0.0713  0.1345
  167SAPE  H13R18763   1.675   3.698   3.775  0.7100 -0.1959  1.2049
  167SAPE  H13S18764   1.633   3.835   3.866  0.4238 -1.9447  1.0504
  167SAPE  C21418765   1.848   3.800   3.850  0.3187 -0.0665  0.8474
  167SAPE  H14R18766   1.930   3.844   3.792 -1.3559  0.4134 -1.2694
  167SAPE  C21518767   1.881   3.759   3.973 -0.7164  0.0084 -0.3693
  167SAPE  H15R18768   1.988   3.764   4.002 -0.7027  1.6159 -0.6243
  167SAPE  C21618769   1.788   3.690   4.069  0.3994  0.0950 -0.0803
  167SAPE  H16R18770   1.796   3.581   4.049  0.4532 -0.1765  1.3119
  167SAPE  H16S18771   1.684   3.715   4.039  0.2168 -1.6021 -0.9532
  167SAPE  C21718772   1.801   3.710   4.220 -0.5020 -0.0136  0.0336
  167SAPE  H17R18773   1.786   3.817   4.247  1.1549  0.1070  0.6285
  167SAPE  H17S18774   1.907   3.694   4.251  0.0556  2.3264 -0.4746
  167SAPE  C21818775   1.693   3.635   4.305 -0.1190  0.1295  0.7971
  167SAPE  H18R18776   1.684   3.536   4.254 -0.3915 -0.6782  2.3484
  167SAPE  H18S18777   1.596   3.682   4.278 -0.2018 -0.7329 -0.4988
  167SAPE  C21918778   1.712   3.632   4.458 -0.3706 -0.7043  1.2666
  167SAPE  H19R18779   1.739   3.733   4.494 -0.6028 -0.5399  0.9834
  167SAPE  H19S18780   1.805   3.575   4.482  1.3916  0.3991 -2.2878
  167SAPE  C22018781   1.579   3.584   4.527 -0.5624 -0.0698  0.1045
  167SAPE  H20R18782   1.486   3.637   4.496 -0.5627  0.2474  0.6457
  167SAPE  H20S18783   1.589   3.585   4.637 -1.4717 -0.3401  0.1990
  167SAPE  H20T18784   1.551   3.483   4.489 -0.0168 -0.5526  0.9579
  167SAPE   C3318785   2.282   3.646   3.143 -0.5071  0.4475 -0.2385
  167SAPE   H3X18786   2.286   3.757   3.150  1.2649  0.4947 -1.3308
  167SAPE   H3Y18787   2.371   3.600   3.094 -0.9686  0.0437 -0.7066
  167SAPE   C3418788   2.245   3.576   3.274  0.6039  0.3091  0.4908
  167SAPE   H4X18789   2.248   3.466   3.262  1.2910  0.4244 -0.4718
  167SAPE   H4Y18790   2.140   3.604   3.299  0.9542  1.5794  0.5888
  167SAPE   C3518791   2.341   3.611   3.388  1.0122  0.3731 -0.2328
  167SAPE   H5X18792   2.319   3.714   3.425  1.9711  0.3100  0.5622
  167SAPE   H5Y18793   2.447   3.598   3.359  1.4339  1.5088  0.7118
  167SAPE   C3618794   2.321   3.515   3.507 -0.2301  0.9178 -0.1034
  167SAPE   H6X18795   2.415   3.498   3.564 -0.8252 -0.5567  0.4743
  167SAPE   H6Y18796   2.288   3.421   3.458 -1.3813  1.8884 -1.2675
  167SAPE   C3718797   2.227   3.566   3.612  0.1886 -0.3464 -0.6518
  167SAPE   H7X18798   2.128   3.596   3.572  0.8440  0.4009 -1.7988
  167SAPE   H7Y18799   2.266   3.663   3.650 -0.9879 -0.0724 -0.1212
  167SAPE   C3818800   2.212   3.468   3.730 -0.9215  0.3244  0.3249
  167SAPE   H8X18801   2.316   3.450   3.763 -0.5115  1.0127 -0.5584
  167SAPE   H8Y18802   2.159   3.371   3.711  1.0392 -0.8685  0.6786
  167SAPE   C3918803   2.148   3.542   3.850 -0.1462 -0.3847  0.2140
  167SAPE   H9X18804   2.048   3.576   3.816  0.0160  0.2730  0.3791
  167SAPE   H9Y18805   2.217   3.624   3.878 -0.1529 -0.4212  0.3370
  167SAPE  C31018806   2.147   3.454   3.970 -0.0547  0.0111  0.1692
  167SAPE  H10X18807   2.242   3.395   3.966 -0.3743 -0.5993  1.1243
  167SAPE  H10Y18808   2.070   3.381   3.938  0.9181 -0.8692 -0.2241
  167SAPE  C31118809   2.136   3.520   4.106  0.1018 -0.5867  0.5468
  167SAPE  H11X18810   2.032   3.555   4.119  0.0775 -0.0310 -0.9575
  167SAPE  H11Y18811   2.199   3.612   4.103 -0.2740 -0.3120  1.0459
  167SAPE  C31218812   2.185   3.431   4.212 -0.0930 -0.4779 -0.2559
  167SAPE  H12X18813   2.284   3.387   4.187 -0.1160 -1.3520  1.0939
  167SAPE  H12Y18814   2.110   3.350   4.218  0.0008 -0.5073  0.5924
  167SAPE  C31318815   2.187   3.502   4.351  0.0133  0.2944  0.2251
  167SAPE  H13X18816   2.125   3.594   4.360  1.0763  0.8330  3.0162
  167SAPE  H13Y18817   2.290   3.542   4.363  0.1794 -0.4117  1.2365
  167SAPE  C31418818   2.166   3.395   4.461  0.4651 -0.7086 -0.3590
  167SAPE  H14X18819   2.256   3.329   4.454  0.4911 -1.0427  2.1780
  167SAPE  H14Y18820   2.077   3.330   4.449  0.0385 -0.0495 -0.8320
  167SAPE  C31518821   2.155   3.443   4.612 -0.2252 -0.2864 -1.1302
  167SAPE  H15X18822   2.138   3.355   4.679 -0.2006  1.5998  1.5400
  167SAPE  H15Y18823   2.059   3.497   4.626  1.6389  3.2206 -0.7273
  167SAPE  C31618824   2.261   3.528   4.661  0.3687 -1.1018 -0.2044
  167SAPE  H16X18825   2.240   3.563   4.765  2.0030  0.1968 -0.2781
  167SAPE  H16Y18826   2.269   3.615   4.593  0.1623 -0.7083  0.2675
  167SAPE  C31718827   2.401   3.462   4.661 -0.1827 -0.3824 -0.3603
  167SAPE  H17X18828   2.438   3.449   4.557  0.6261  0.5612 -0.2001
  167SAPE  H17Y18829   2.396   3.364   4.714  0.9709 -0.5260 -0.5004
  167SAPE  C31818830   2.513   3.532   4.745 -0.1358  0.2333 -0.1388
  167SAPE  H18X18831   2.493   3.550   4.853 -0.2165 -1.6032  0.1755
  167SAPE  H18Y18832   2.555   3.623   4.695  1.1629 -0.1585  0.2060
  167SAPE  H18Z18833   2.603   3.468   4.752  2.1603  3.2507  0.2825
  168SAPE     N18834   4.053   4.822   2.385  0.5330  0.3965 -0.3780
  168SAPE   HN118835   4.018   4.908   2.338 -1.7011  0.6269  1.5370
  168SAPE   HN218836   4.157   4.818   2.381  0.5510 -1.4085  0.7166
  168SAPE   HN318837   4.019   4.735   2.339 -1.2071  0.3866  0.8181
  168SAPE   C1218838   4.003   4.831   2.526  0.1598  0.2090 -0.1885
  168SAPE  H12A18839   4.038   4.741   2.580  0.5440 -0.4278 -1.4834
  168SAPE  H12B18840   3.892   4.832   2.524  0.1388  2.7548 -1.7134
  168SAPE   C1118841   4.058   4.955   2.596 -0.0430  0.3545  0.2099
  168SAPE  H11A18842   4.168   4.947   2.588  0.0152  0.8948  0.4426
  168SAPE  H11B18843   4.046   4.961   2.706 -0.7119  0.9334  0.1147
  168SAPE     P18844   4.062   5.218   2.547  0.0604  0.1877  0.0857
  168SAPE   O1318845   4.194   5.233   2.478 -0.0043 -0.3899  0.0275
  168SAPE   O1418846   3.944   5.293   2.503  0.4488 -0.3347  0.0022
  168SAPE   O1218847   4.015   5.069   2.524 -0.3720 -0.0492  0.0071
  168SAPE   O1118848   4.078   5.227   2.706  0.0090 -0.3552  0.0196
  168SAPE    C118849   3.961   5.236   2.791  0.5569 -0.8129 -0.4128
  168SAPE    HA18850   3.876   5.177   2.750 -0.6092  0.4692  0.0962
  168SAPE    HB18851   3.980   5.198   2.894 -0.3626 -1.1606 -0.3617
  168SAPE    C218852   3.917   5.389   2.811  0.1428  0.4809 -0.0604
  168SAPE    HS18853   3.905   5.435   2.710  0.8509  0.0369 -0.3502
  168SAPE   O2118854   4.018   5.454   2.892 -0.4757 -0.3549  0.1687
  168SAPE   C2118855   4.017   5.588   2.885  0.2404 -0.2036 -0.6551
  168SAPE   O2218856   3.952   5.655   2.807 -0.1263 -0.3193  0.1127
  168SAPE   C2218857   4.109   5.646   2.989 -0.1815 -0.5168  0.1071
  168SAPE   H2R18858   4.181   5.568   3.022 -1.6260 -0.7241  3.1073
  168SAPE   H2S18859   4.167   5.730   2.946  0.3827  0.5728  2.8414
  168SAPE    C318860   3.776   5.394   2.876 -0.5195 -0.0636  0.0839
  168SAPE    HX18861   3.710   5.316   2.834 -0.0163  0.6480 -2.1790
  168SAPE    HY18862   3.741   5.497   2.853 -0.7863 -0.4934 -1.5009
  168SAPE   O3118863   3.782   5.375   3.020 -0.6314  0.0186 -0.4052
  168SAPE   C3118864   3.679   5.421   3.088 -0.6411 -0.0080 -0.5087
  168SAPE   O3218865   3.591   5.492   3.041 -0.1166  0.7478  0.6631
  168SAPE   C3218866   3.682   5.370   3.231 -0.4699 -0.7850 -1.0203
  168SAPE   H2X18867   3.687   5.464   3.291  1.1476 -1.2198 -0.4206
  168SAPE   H2Y18868   3.764   5.296   3.244  0.3432  0.1739 -0.5041
  168SAPE   C2318869   4.042   5.712   3.114  0.1440  0.6345  0.3593
  168SAPE   H3R18870   3.984   5.802   3.083 -1.7302 -0.6085  0.1150
  168SAPE   H3S18871   4.116   5.755   3.184  0.4537 -0.2527  0.5869
  168SAPE   C2418872   3.935   5.630   3.190  0.6560 -0.5826  1.1303
  168SAPE   H4R18873   3.985   5.536   3.222  3.8079  1.1518  1.6507
  168SAPE   H4S18874   3.873   5.588   3.108  1.4534 -1.9187  1.1776
  168SAPE   C2518875   3.852   5.706   3.294  0.7883 -0.1365 -0.1831
  168SAPE   H5R18876   3.812   5.802   3.260 -0.5956 -0.2933  0.9054
  168SAPE   C2618877   3.839   5.674   3.429  0.4012  0.5371  0.9782
  168SAPE   H6R18878   3.786   5.750   3.488  0.1982  1.3285 -0.1717
  168SAPE   C2718879   3.898   5.553   3.495  0.1024 -0.5536 -0.4689
  168SAPE   H7R18880   3.927   5.468   3.429  0.4294 -2.4082  1.9038
  168SAPE   H7S18881   3.818   5.512   3.560 -0.7715 -0.5931 -1.5340
  168SAPE   C2818882   4.024   5.603   3.561  0.4501 -1.3630  0.1777
  168SAPE   H8R18883   4.087   5.662   3.493 -2.4807  2.3142  0.2870
  168SAPE   C2918884   4.039   5.613   3.697  0.4655  0.2917 -0.2846
  168SAPE   H9R18885   4.135   5.643   3.741  1.5597 -3.0138 -0.2117
  168SAPE  C21018886   3.951   5.558   3.804 -0.0859  0.2382  0.0504
  168SAPE  H10R18887   3.847   5.579   3.770  0.5816  3.1666 -0.4636
  168SAPE  H10S18888   3.954   5.615   3.899 -2.1346  1.9014 -0.7926
  168SAPE  C21118889   3.954   5.408   3.835  0.5403  0.4005  0.0182
  168SAPE  H11R18890   3.933   5.343   3.749 -4.2408  1.1907  0.3076
  168SAPE  C21218891   3.946   5.360   3.954  0.3032  1.5499 -0.5112
  168SAPE  H12R18892   3.950   5.252   3.971 -0.6149  1.3639 -1.3770
  168SAPE  C21318893   3.940   5.415   4.090 -0.4259 -0.2300 -0.4523
  168SAPE  H13R18894   3.874   5.353   4.154 -2.3322  1.2424 -0.8936
  168SAPE  H13S18895   3.891   5.515   4.094  1.0913  0.5749 -0.8732
  168SAPE  C21418896   4.082   5.431   4.141  0.2545  0.5278  0.8743
  168SAPE  H14R18897   4.153   5.467   4.065  0.7254  0.3519  1.2274
  168SAPE  C21518898   4.125   5.416   4.266  0.5268  0.3266 -0.1362
  168SAPE  H15R18899   4.230   5.434   4.293  0.9094 -1.7583 -0.0778
  168SAPE  C21618900   4.034   5.370   4.378  0.7378 -0.3159  0.1858
  168SAPE  H16R18901   4.084   5.304   4.452  0.4834 -0.0165  0.6285
  168SAPE  H16S18902   3.968   5.298   4.326  0.6696  0.4419 -0.8139
  168SAPE  C21718903   3.956   5.475   4.455 -0.1336 -0.1298 -0.5242
  168SAPE  H17R18904   3.875   5.436   4.520  0.1029 -0.2429 -0.2931
  168SAPE  H17S18905   3.903   5.547   4.390  0.4359  1.3735  0.6157
  168SAPE  C21818906   4.046   5.575   4.533 -0.0512 -0.8260  0.6951
  168SAPE  H18R18907   4.089   5.649   4.462 -0.1171  0.3637  1.8551
  168SAPE  H18S18908   4.136   5.532   4.584  0.8858 -0.5754 -0.6985
  168SAPE  C21918909   3.950   5.651   4.625 -0.6291  0.0054 -0.6733
  168SAPE  H19R18910   3.924   5.569   4.696  1.4349 -1.6068 -1.6529
  168SAPE  H19S18911   3.859   5.691   4.575 -0.9942  0.4402  0.3102
  168SAPE  C22018912   4.015   5.760   4.712  0.5578 -0.9543  0.8892
  168SAPE  H20R18913   4.054   5.834   4.638  0.5090 -1.5467  0.2576
  168SAPE  H20S18914   4.100   5.719   4.769  0.2038  1.4777  3.3701
  168SAPE  H20T18915   3.938   5.801   4.781  0.4945  0.4407  0.0289
  168SAPE   C3318916   3.544   5.302   3.266  0.0798  0.4198 -0.5492
  168SAPE   H3X18917   3.533   5.225   3.187  0.8965  0.0108 -0.2717
  168SAPE   H3Y18918   3.462   5.373   3.243 -0.8007  0.1328  1.4772
  168SAPE   C3418919   3.519   5.252   3.410  0.3321 -0.1697  0.1742
  168SAPE   H4X18920   3.603   5.182   3.423 -0.2478 -0.9892 -0.4160
  168SAPE   H4Y18921   3.422   5.197   3.416  0.3604 -0.8430 -3.3741
  168SAPE   C3518922   3.521   5.367   3.518 -0.4504 -0.0670 -0.2160
  168SAPE   H5X18923   3.441   5.443   3.505 -0.1185  0.1299 -1.2048
  168SAPE   H5Y18924   3.619   5.418   3.501 -0.2484 -0.2643  0.3119
  168SAPE   C3618925   3.529   5.300   3.662 -0.6594  0.7055  0.0346
  168SAPE   H6X18926   3.605   5.219   3.664 -1.6475 -0.2182  0.8935
  168SAPE   H6Y18927   3.427   5.259   3.673  0.4653 -2.0205  1.2522
  168SAPE   C3718928   3.567   5.398   3.776 -0.6445  0.1106 -0.3865
  168SAPE   H7X18929   3.504   5.489   3.772  1.8231  2.3228  3.6817
  168SAPE   H7Y18930   3.670   5.439   3.767 -0.8933  1.2524  1.4474
  168SAPE   C3818931   3.544   5.338   3.916 -0.2088  0.2245 -0.6054
  168SAPE   H8X18932   3.609   5.249   3.924 -1.8670 -1.2636 -2.5206
  168SAPE   H8Y18933   3.442   5.294   3.918 -0.0383 -0.2400 -1.3703
  168SAPE   C3918934   3.564   5.425   4.032 -0.8119 -0.1764 -0.3693
  168SAPE   H9X18935   3.503   5.518   4.038  0.2568  0.6005 -1.2001
  168SAPE   H9Y18936   3.668   5.441   4.066 -1.5697 -0.0566  2.1067
  168SAPE  C31018937   3.516   5.366   4.165 -0.5254  0.6433 -0.3562
  168SAPE  H10X18938   3.545   5.259   4.173  0.4131  0.9403  0.3476
  168SAPE  H10Y18939   3.406   5.365   4.180 -0.3962 -1.5167  0.8381
  168SAPE  C31118940   3.566   5.447   4.284  0.6803  0.6498  0.0455
  168SAPE  H11X18941   3.503   5.539   4.281 -0.0370  0.2557  1.6180
  168SAPE  H11Y18942   3.676   5.461   4.277  0.7498 -0.4331 -1.5350
  168SAPE  C31218943   3.521   5.396   4.420 -0.5968 -0.4988 -0.3971
  168SAPE  H12X18944   3.566   5.298   4.447  0.2835 -0.1062 -0.3888
  168SAPE  H12Y18945   3.412   5.377   4.428 -0.3695 -1.4433  0.7543
  168SAPE  C31318946   3.560   5.505   4.532 -0.3967  0.7606  0.3686
  168SAPE  H13X18947   3.534   5.608   4.499 -0.0620  0.9243  0.6096
  168SAPE  H13Y18948   3.671   5.502   4.545 -0.2991  0.8856 -0.3882
  168SAPE  C31418949   3.505   5.466   4.678  0.0068 -0.3985 -0.2752
  168SAPE  H14X18950   3.409   5.520   4.691  0.6267  0.3993  1.2644
  168SAPE  H14Y18951   3.560   5.522   4.756 -0.0832 -0.2318 -0.3298
  168SAPE  C31518952   3.507   5.321   4.712 -0.2483 -0.5935  0.2779
  168SAPE  H15X18953   3.615   5.295   4.717  0.2303  1.2287  0.1567
  168SAPE  H15Y18954   3.459   5.260   4.634 -0.9078 -0.5652  0.6587
  168SAPE  C31618955   3.449   5.287   4.852  0.0347 -0.1522 -0.3730
  168SAPE  H16X18956   3.340   5.303   4.850 -0.3843 -2.6964 -1.0948
  168SAPE  H16Y18957   3.498   5.352   4.928 -0.6844 -0.4506  0.3603
  168SAPE  C31718958   3.484   5.141   4.891 -0.0795 -0.4579  0.0967
  168SAPE  H17X18959   3.421   5.119   4.980 -0.0439  3.1060  1.1611
  168SAPE  H17Y18960   3.593   5.137   4.914  0.0150  0.6910 -0.0956
  168SAPE  C31818961   3.457   5.037   4.781  0.0762 -0.5819 -0.2621
  168SAPE  H18X18962   3.349   5.012   4.782 -0.0330 -0.1403 -0.8118
  168SAPE  H18Y18963   3.506   4.942   4.811  2.1597  0.0962 -1.3517
  168SAPE  H18Z18964   3.501   5.056   4.681 -0.2185 -0.4579 -0.3687
  169SAPE     N18965   1.380   2.964   3.000 -0.2882  0.5344 -0.4927
  169SAPE   HN118966   1.402   2.911   3.087 -1.1997  2.2261  0.8287
  169SAPE   HN218967   1.278   2.949   2.986 -0.6646  1.5510  0.8737
  169SAPE   HN318968   1.430   2.915   2.923 -2.4620 -0.8587 -1.1067
  169SAPE   C1218969   1.422   3.098   3.050  0.4539 -0.4545 -0.3498
  169SAPE  H12A18970   1.349   3.134   3.125 -0.3295  1.4307 -1.9309
  169SAPE  H12B18971   1.416   3.174   2.970  3.7604  1.9196  1.3987
  169SAPE   C1118972   1.569   3.118   3.098 -0.4232  0.3069  0.7171
  169SAPE  H11A18973   1.590   3.044   3.178 -0.2797 -0.1020  0.3075
  169SAPE  H11B18974   1.588   3.221   3.134  0.3795  0.6998 -0.7527
  169SAPE     P18975   1.713   2.960   2.947  0.0316 -0.2251 -0.1284
  169SAPE   O1318976   1.613   2.900   2.858 -0.0765  0.1487  0.5065
  169SAPE   O1418977   1.851   2.967   2.901  0.5260  0.1791 -0.0502
  169SAPE   O1218978   1.659   3.102   2.992  0.3411  0.0643 -0.4500
  169SAPE   O1118979   1.705   2.887   3.084  0.3439  0.1944  0.2552
  169SAPE    C118980   1.753   2.753   3.099 -0.6032 -0.3239 -0.5034
  169SAPE    HA18981   1.677   2.677   3.072 -1.4493  0.9422 -1.8484
  169SAPE    HB18982   1.840   2.723   3.036  0.2305  1.1107 -0.0925
  169SAPE    C218983   1.807   2.736   3.238  0.4057 -0.3945  0.1135
  169SAPE    HS18984   1.839   2.629   3.239  0.4296 -0.4039 -0.6761
  169SAPE   O2118985   1.699   2.772   3.327  0.5618  0.0195  0.0729
  169SAPE   C2118986   1.717   2.716   3.446 -0.2093 -0.0642 -0.8457
  169SAPE   O2218987   1.786   2.622   3.467 -0.4418 -0.4824 -0.1882
  169SAPE   C2218988   1.610   2.782   3.543  0.1264 -0.2566 -0.7714
  169SAPE   H2R18989   1.555   2.855   3.480  1.3591  0.0400 -1.5310
  169SAPE   H2S18990   1.540   2.704   3.580 -0.2554  2.0577  4.1805
  169SAPE    C318991   1.928   2.839   3.275  0.1780  0.1331 -0.2354
  169SAPE    HX18992   1.888   2.943   3.273 -2.6098 -0.7979  1.2537
  169SAPE    HY18993   1.998   2.824   3.190  1.5886 -2.4894  1.2814
  169SAPE   O3118994   1.990   2.831   3.404 -0.6231 -0.4388  0.0153
  169SAPE   C3118995   2.071   2.724   3.420  0.7356  0.3105  0.4461
  169SAPE   O3218996   2.089   2.640   3.331  0.5510 -0.1442 -0.7572
  169SAPE   C3218997   2.131   2.726   3.558  0.1523  0.4805 -0.4004
  169SAPE   H2X18998   2.240   2.743   3.547 -0.2511  3.2236 -0.8990
  169SAPE   H2Y18999   2.119   2.626   3.606  2.8716  0.4389  0.3343
  169SAPE   C2319000   1.677   2.848   3.669 -0.6790 -0.7277  0.6378
  169SAPE   H3R19001   1.741   2.932   3.633 -2.5109  0.4409 -0.0376
  169SAPE   H3S19002   1.737   2.774   3.726  1.0947 -0.2674 -0.5280
  169SAPE   C2419003   1.570   2.915   3.753 -0.3357 -0.5915 -0.0041
  169SAPE   H4R19004   1.610   2.957   3.847 -2.2634  0.2150  0.4995
  169SAPE   H4S19005   1.487   2.848   3.783 -1.7455  0.9409 -0.3985
  169SAPE   C2519006   1.517   3.034   3.674  0.2769  0.0305 -0.1372
  169SAPE   H5R19007   1.593   3.080   3.610 -0.8548  0.9942 -0.8317
  169SAPE   C2619008   1.391   3.084   3.671  0.4293 -1.0837 -0.7111
  169SAPE   H6R19009   1.368   3.177   3.617 -0.2980  0.5285  2.1586
  169SAPE   C2719010   1.265   3.035   3.741  0.1925 -0.0998 -0.8006
  169SAPE   H7R19011   1.270   2.929   3.772  1.2132  0.0885 -0.2735
  169SAPE   H7S19012   1.180   3.052   3.671 -0.2086  1.5658  0.0360
  169SAPE   C2819013   1.234   3.108   3.870  0.1057  0.7620  0.1463
  169SAPE   H8R19014   1.266   3.213   3.869  0.2434  0.7197  0.0717
  169SAPE   C2919015   1.188   3.055   3.989 -0.2530 -0.3926 -0.6558
  169SAPE   H9R19016   1.183   3.120   4.078  1.2137  2.1429 -2.3231
  169SAPE  C21019017   1.140   2.916   4.007 -0.5777  0.4014 -0.1974
  169SAPE  H10R19018   1.087   2.874   3.919 -1.6348  0.0409  0.5862
  169SAPE  H10S19019   1.067   2.914   4.091  3.3153 -0.6354  3.4992
  169SAPE  C21119020   1.265   2.831   4.038  0.4956  0.0437 -0.2316
  169SAPE  H11R19021   1.364   2.872   4.013  0.4215  0.4850  0.1853
  169SAPE  C21219022   1.256   2.705   4.090 -0.2216  1.0158 -0.0700
  169SAPE  H12R19023   1.349   2.646   4.092 -0.1785  1.1030  0.9043
  169SAPE  C21319024   1.133   2.623   4.130 -0.0475  0.1605  0.9055
  169SAPE  H13R19025   1.050   2.695   4.148  1.6639  3.0806 -1.7939
  169SAPE  H13S19026   1.134   2.556   4.218 -1.2314 -0.9334  0.1125
  169SAPE  C21419027   1.086   2.542   4.003 -0.6533 -0.1168 -1.1922
  169SAPE  H14R19028   1.029   2.600   3.928  1.4388  1.7208 -1.4481
  169SAPE  C21519029   1.096   2.408   3.989  0.3489 -0.1917  0.0599
  169SAPE  H15R19030   1.068   2.368   3.890 -0.4151  3.4030 -1.3523
  169SAPE  C21619031   1.150   2.314   4.083 -0.2059 -0.6433  0.2272
  169SAPE  H16R19032   1.073   2.258   4.141  0.5983  0.8324  2.8373
  169SAPE  H16S19033   1.213   2.362   4.160  0.3279  0.1500 -0.6961
  169SAPE  C21719034   1.240   2.216   4.003 -0.1238  0.2702 -0.8878
  169SAPE  H17R19035   1.335   2.265   3.970  0.3459 -0.1854 -0.2470
  169SAPE  H17S19036   1.183   2.187   3.913 -1.3615  0.8426 -0.3060
  169SAPE  C21819037   1.275   2.092   4.087  0.5437  0.3402 -0.1199
  169SAPE  H18R19038   1.188   2.028   4.115  0.9598  1.0910  3.3568
  169SAPE  H18S19039   1.315   2.133   4.183 -0.5787  1.1590  0.0345
  169SAPE  C21919040   1.387   1.994   4.036  0.8048 -0.0751 -0.1143
  169SAPE  H19R19041   1.407   1.924   4.120 -0.4360 -1.3257 -0.8043
  169SAPE  H19S19042   1.478   2.051   4.011  1.4653 -0.9682  0.1902
  169SAPE  C22019043   1.343   1.902   3.918 -0.3569 -0.9826  0.1629
  169SAPE  H20R19044   1.291   1.976   3.852  0.8094 -0.8971 -0.6848
  169SAPE  H20S19045   1.280   1.817   3.951 -1.1538 -1.0830 -1.4986
  169SAPE  H20T19046   1.424   1.857   3.857  0.6128  1.3501 -0.3784
  169SAPE   C3319047   2.082   2.831   3.665 -0.3699 -0.3259  0.8058
  169SAPE   H3X19048   1.974   2.814   3.682 -0.4073 -0.8173  0.0904
  169SAPE   H3Y19049   2.094   2.935   3.626 -0.1626 -0.1227  1.3870
  169SAPE   C3419050   2.156   2.809   3.794  0.4937  0.1233 -0.1188
  169SAPE   H4X19051   2.264   2.824   3.772  0.8399 -0.7786  0.8483
  169SAPE   H4Y19052   2.137   2.707   3.835 -1.7234  0.2576 -0.6814
  169SAPE   C3519053   2.126   2.909   3.899 -0.9216 -0.1540  0.1126
  169SAPE   H5X19054   2.019   2.911   3.929 -1.2856 -0.2917 -1.1054
  169SAPE   H5Y19055   2.164   3.011   3.875 -1.7704  0.1950  0.2208
  169SAPE   C3619056   2.194   2.860   4.025 -0.1139 -0.1381  0.7728
  169SAPE   H6X19057   2.301   2.834   4.009  0.1585  1.5037 -0.4157
  169SAPE   H6Y19058   2.140   2.767   4.053 -2.2271  0.6432 -0.4510
  169SAPE   C3719059   2.194   2.962   4.140 -0.1395 -0.4788 -0.2070
  169SAPE   H7X19060   2.092   3.004   4.154 -1.2830 -2.8508 -0.8523
  169SAPE   H7Y19061   2.270   3.039   4.114  0.7040 -1.6105 -1.2090
  169SAPE   C3819062   2.228   2.900   4.273  0.1320  0.1039 -0.0176
  169SAPE   H8X19063   2.309   2.828   4.249 -1.4450 -1.2116 -1.7427
  169SAPE   H8Y19064   2.136   2.846   4.308 -1.1760  1.7288 -0.8243
  169SAPE   C3919065   2.297   2.993   4.374 -0.0483 -0.0685  0.1028
  169SAPE   H9X19066   2.229   3.078   4.397  0.6116  0.2618  0.8841
  169SAPE   H9Y19067   2.388   3.035   4.328 -0.7689  2.8008  1.0474
  169SAPE  C31019068   2.329   2.921   4.511  0.5671  0.0403  0.3865
  169SAPE  H10X19069   2.420   2.962   4.560  0.2029  0.3122  0.8396
  169SAPE  H10Y19070   2.367   2.820   4.483  0.9718  0.8911 -2.4039
  169SAPE  C31119071   2.206   2.919   4.604 -0.7482 -0.7950 -0.0093
  169SAPE  H11X19072   2.239   2.868   4.696 -0.1834 -0.9853 -0.3127
  169SAPE  H11Y19073   2.120   2.868   4.555 -1.8975  0.1786  0.9325
  169SAPE  C31219074   2.174   3.068   4.645  0.3975  0.1037 -0.8401
  169SAPE  H12X19075   2.144   3.134   4.561 -0.8853  1.1209  0.3626
  169SAPE  H12Y19076   2.257   3.112   4.704 -0.0984 -0.0736  0.0038
  169SAPE  C31319077   2.051   3.074   4.736 -0.2882 -0.5550 -0.1389
  169SAPE  H13X19078   1.964   3.059   4.667 -0.6189 -1.8212  0.5125
  169SAPE  H13Y19079   2.048   3.179   4.771 -0.1139 -0.8837  0.8725
  169SAPE  C31419080   2.051   2.974   4.848  0.4129 -0.1743  0.3982
  169SAPE  H14X19081   2.157   2.953   4.873  0.6133  0.2992 -0.0296
  169SAPE  H14Y19082   2.006   2.885   4.799  2.0685 -0.0181 -1.5710
  169SAPE  C31519083   1.988   3.018   4.978  0.1334  0.5946  0.5110
  169SAPE  H15X19084   2.029   3.115   5.015 -1.4331  1.0418  1.1161
  169SAPE  H15Y19085   2.016   2.941   5.052 -2.6514 -0.2030  0.8235
  169SAPE  C31619086   1.842   3.043   4.962 -0.3963 -0.1226  0.4256
  169SAPE  H16X19087   1.813   3.132   4.902  0.1321 -0.9692 -1.1240
  169SAPE  H16Y19088   1.795   3.067   5.060 -0.1695  2.2853 -0.0020
  169SAPE  C31719089   1.763   2.922   4.910  0.5346 -0.0504 -0.0252
  169SAPE  H17X19090   1.809   2.830   4.951 -1.6639 -2.1133 -1.8367
  169SAPE  H17Y19091   1.758   2.911   4.799 -1.8853 -0.5598  0.0681
  169SAPE  C31819092   1.622   2.939   4.959  0.0196 -0.3003  0.4122
  169SAPE  H18X19093   1.564   2.846   4.947 -0.2117 -0.2908  1.3896
  169SAPE  H18Y19094   1.576   3.018   4.895 -0.7329  0.4346  1.8093
  169SAPE  H18Z19095   1.618   2.960   5.068  0.1669 -0.9229  0.5395
  170SAPE     N19096   2.049   5.185   2.662 -0.9357  0.5825 -0.8413
  170SAPE   HN119097   2.130   5.213   2.604 -0.9087  1.2287 -0.4951
  170SAPE   HN219098   2.011   5.092   2.634 -0.2453 -0.5400  1.5963
  170SAPE   HN319099   1.968   5.249   2.661 -0.6791  0.9057 -1.1298
  170SAPE   C1219100   2.096   5.159   2.803 -0.5991  0.3642 -0.1990
  170SAPE  H12A19101   2.191   5.103   2.791 -0.1822  1.4808 -3.1456
  170SAPE  H12B19102   2.021   5.103   2.863  0.5989  0.2074  1.1858
  170SAPE   C1119103   2.132   5.292   2.873  0.2302  0.6037  0.1248
  170SAPE  H11A19104   2.209   5.341   2.809  1.8406  1.8458  2.8263
  170SAPE  H11B19105   2.173   5.259   2.971  1.0215 -2.3609 -1.0893
  170SAPE     P19106   2.007   5.524   2.885  0.5158 -0.6582  0.2304
  170SAPE   O1319107   2.113   5.583   2.802  0.1356  0.1242  0.5533
  170SAPE   O1419108   1.866   5.550   2.839 -0.4626  0.4353  0.1410
  170SAPE   O1219109   2.016   5.370   2.887  0.1201 -0.5814 -0.5403
  170SAPE   O1119110   2.025   5.558   3.043  0.4368 -0.2799 -0.2506
  170SAPE    C119111   1.953   5.480   3.138 -0.4063  0.6431 -0.6483
  170SAPE    HA19112   1.843   5.477   3.122 -0.5673  0.8399  0.3266
  170SAPE    HB19113   1.978   5.373   3.153 -3.2136  0.0786  0.7506
  170SAPE    C219114   1.983   5.537   3.281  0.0358 -0.2900  0.0807
  170SAPE    HS19115   2.088   5.570   3.291 -0.7726  1.8234  3.1662
  170SAPE   O2119116   1.948   5.443   3.382 -0.3978 -0.7670  0.1477
  170SAPE   C2119117   2.021   5.455   3.495  0.6635  0.2447 -0.4098
  170SAPE   O2219118   2.112   5.528   3.519 -1.2548  0.0203  0.0737
  170SAPE   C2219119   1.949   5.362   3.600  0.6451  0.1952  0.9561
  170SAPE   H2R19120   1.851   5.413   3.608  0.4169 -0.1604  0.4446
  170SAPE   H2S19121   1.949   5.260   3.556  0.3279  0.8853 -0.7239
  170SAPE    C319122   1.894   5.659   3.304 -0.3383  0.7460  0.1941
  170SAPE    HX19123   1.789   5.646   3.270 -0.7107  0.4130  1.4241
  170SAPE    HY19124   1.934   5.735   3.233  1.5630  1.6342  2.0888
  170SAPE   O3119125   1.896   5.705   3.442 -0.0772  0.5362 -0.2493
  170SAPE   C3119126   1.876   5.835   3.453  0.1304  0.1797  0.3453
  170SAPE   O3219127   1.859   5.911   3.357 -0.3217  0.2015 -0.6332
  170SAPE   C3219128   1.902   5.867   3.594  0.2932  0.0519 -0.0753
  170SAPE   H2X19129   1.836   5.806   3.660  1.6015  1.2770  2.5157
  170SAPE   H2Y19130   1.882   5.975   3.607  1.7037  0.3675 -0.2873
  170SAPE   C2319131   2.018   5.374   3.731 -0.1429  0.6040 -0.7532
  170SAPE   H3R19132   2.004   5.474   3.778 -0.2219 -0.0185  0.6150
  170SAPE   H3S19133   2.128   5.363   3.723 -0.2125 -1.3494  0.2786
  170SAPE   C2419134   1.972   5.269   3.839 -0.4691 -0.4668 -0.1436
  170SAPE   H4R19135   1.979   5.165   3.799  1.7524 -0.0702 -0.9225
  170SAPE   H4S19136   1.865   5.296   3.840 -0.0824  1.4517 -2.3580
  170SAPE   C2519137   2.068   5.286   3.956  0.0155 -0.6754 -0.1631
  170SAPE   H5R19138   2.172   5.311   3.932  0.5927 -0.4042  2.4063
  170SAPE   C2619139   2.034   5.262   4.087 -0.0913  0.1368  0.1016
  170SAPE   H6R19140   2.098   5.291   4.172 -0.9330 -3.1298  2.0439
  170SAPE   C2719141   1.899   5.215   4.118  0.0638  0.0086 -0.4060
  170SAPE   H7R19142   1.856   5.151   4.038 -1.6463 -0.3271  0.7253
  170SAPE   H7S19143   1.833   5.303   4.116  1.0055  0.7378 -0.1103
  170SAPE   C2819144   1.904   5.139   4.250  0.3715  0.9030  0.1521
  170SAPE   H8R19145   1.944   5.036   4.242 -1.9744 -0.0898  0.6013
  170SAPE   C2919146   1.856   5.168   4.372 -0.0316  0.2813 -0.1073
  170SAPE   H9R19147   1.893   5.102   4.452  1.2132  1.5511  0.4101
  170SAPE  C21019148   1.783   5.287   4.421  0.5271  0.4322 -0.9109
  170SAPE  H10R19149   1.678   5.283   4.385  0.3556  2.4156 -0.7528
  170SAPE  H10S19150   1.838   5.376   4.382  0.8038  0.9474  0.6064
  170SAPE  C21119151   1.766   5.305   4.572 -0.8410  0.3758  0.1603
  170SAPE  H11R19152   1.673   5.283   4.626 -0.9745  0.1024 -0.1762
  170SAPE  C21219153   1.844   5.376   4.653 -0.3887 -0.2273 -0.4797
  170SAPE  H12R19154   1.811   5.384   4.758  0.0267  1.8405 -0.4531
  170SAPE  C21319155   1.982   5.431   4.629  0.6055  0.1204  0.7839
  170SAPE  H13R19156   1.990   5.532   4.582 -0.7115 -0.2907 -0.3581
  170SAPE  H13S19157   2.030   5.364   4.555 -0.5477  0.9832 -0.7866
  170SAPE  C21419158   2.067   5.428   4.751 -0.4209 -0.2853  0.4848
  170SAPE  H14R19159   2.122   5.339   4.785  1.0617  1.0323  1.6991
  170SAPE  C21519160   2.096   5.537   4.821 -0.1282 -0.0526 -0.1909
  170SAPE  H15R19161   2.155   5.521   4.912 -0.9161 -1.0177  0.1713
  170SAPE  C21619162   2.037   5.674   4.797 -0.0642 -0.2988 -0.5887
  170SAPE  H16R19163   1.935   5.669   4.753 -0.9357 -1.4538  1.4544
  170SAPE  H16S19164   2.098   5.737   4.728 -0.2570  1.6811  0.9444
  170SAPE  C21719165   2.007   5.748   4.928  0.0890  0.3245 -1.1527
  170SAPE  H17R19166   1.943   5.684   4.993  1.0171  1.3369  0.8342
  170SAPE  H17S19167   1.950   5.843   4.924 -1.5394 -0.3003  2.8090
  170SAPE  C21819168   2.131   5.778   5.018  0.6035  0.6461 -0.0291
  170SAPE  H18R19169   2.196   5.861   4.983  1.7973 -0.4446 -0.5224
  170SAPE  H18S19170   2.198   5.689   5.018 -2.3998 -1.8379 -1.9273
  170SAPE  C21919171   2.096   5.811   5.162  0.0474 -0.3273 -0.3863
  170SAPE  H19R19172   2.021   5.737   5.197 -3.2453  3.2296  0.9358
  170SAPE  H19S19173   2.048   5.911   5.158  2.1828  0.7239 -1.1312
  170SAPE  C22019174   2.209   5.807   5.258 -0.5062  0.4283 -0.1577
  170SAPE  H20R19175   2.296   5.875   5.250  0.0610 -0.0783  1.2573
  170SAPE  H20S19176   2.254   5.705   5.263  0.8892  1.0428  0.2683
  170SAPE  H20T19177   2.173   5.828   5.361  1.6863  1.1147  0.5124
  170SAPE   C3319178   2.052   5.847   3.640  0.6657  0.4908  0.1411
  170SAPE   H3X19179   2.127   5.884   3.567  1.4016  1.7736  1.4906
  170SAPE   H3Y19180   2.058   5.736   3.653 -0.3889  0.5068  0.8126
  170SAPE   C3419181   2.080   5.911   3.777  0.8547  0.8448  0.0413
  170SAPE   H4X19182   2.029   6.009   3.784 -1.1599 -0.2077  1.1151
  170SAPE   H4Y19183   2.190   5.930   3.784  1.3459 -1.3545 -0.8888
  170SAPE   C3519184   2.034   5.816   3.895  0.3028  0.0564  0.9063
  170SAPE   H5X19185   2.091   5.721   3.891 -1.4761 -1.0057 -0.7121
  170SAPE   H5Y19186   1.931   5.780   3.870  0.7153 -0.1333 -0.6157
  170SAPE   C3619187   2.057   5.873   4.033 -0.4139  0.4438 -0.2377
  170SAPE   H6X19188   1.996   5.966   4.032  0.8122  1.3471  2.3857
  170SAPE   H6Y19189   2.163   5.894   4.056 -0.5472  2.8436 -1.5173
  170SAPE   C3719190   2.012   5.787   4.148  0.6221 -0.6261  0.5353
  170SAPE   H7X19191   2.092   5.715   4.177  0.1527 -1.2337  0.3578
  170SAPE   H7Y19192   1.929   5.719   4.118  0.0523  0.6034 -0.7910
  170SAPE   C3819193   1.957   5.868   4.264 -0.7883 -0.2753  0.2990
  170SAPE   H8X19194   1.855   5.904   4.239  0.2263  2.2298 -0.4635
  170SAPE   H8Y19195   2.007   5.965   4.284 -1.6015 -0.1630  2.0066
  170SAPE   C3919196   1.951   5.795   4.403 -0.2765 -0.0713  0.5513
  170SAPE   H9X19197   2.046   5.738   4.412 -0.4411 -0.0750  2.8352
  170SAPE   H9Y19198   1.875   5.715   4.405 -0.0690 -0.2602  0.9636
  170SAPE  C31019199   1.932   5.902   4.519  0.1347 -0.2530  0.8624
  170SAPE  H10X19200   2.015   5.975   4.506  0.6381 -1.0857 -0.8373
  170SAPE  H10Y19201   1.942   5.841   4.610 -0.1986 -1.9806 -0.2164
  170SAPE  C31119202   1.794   5.962   4.514  0.3637 -0.5969 -0.1151
  170SAPE  H11X19203   1.730   5.879   4.553 -1.0941  0.9614  0.9953
  170SAPE  H11Y19204   1.765   5.988   4.410  1.5752 -1.8834 -0.8122
  170SAPE  C31219205   1.771   6.082   4.611 -0.0576 -0.3463 -1.0122
  170SAPE  H12X19206   1.661   6.087   4.628 -0.0213  4.3169 -1.0817
  170SAPE  H12Y19207   1.789   6.179   4.560  1.3297 -0.1378 -0.1763
  170SAPE  C31319208   1.854   6.088   4.739 -0.3360 -0.8917 -0.3768
  170SAPE  H13X19209   1.963   6.102   4.720 -0.6214  2.6725 -0.0206
  170SAPE  H13Y19210   1.854   5.996   4.802  1.9456  0.5050  1.8814
  170SAPE  C31419211   1.814   6.210   4.829  0.1377 -0.3582 -0.2186
  170SAPE  H14X19212   1.707   6.240   4.821  0.9731  2.6323 -1.4433
  170SAPE  H14Y19213   1.880   6.296   4.805  1.9131 -1.6419 -0.1249
  170SAPE  C31519214   1.838   6.195   4.981 -0.5028 -0.2524  0.2665
  170SAPE  H15X19215   1.948   6.184   4.995 -0.4950  2.1434  2.8554
  170SAPE  H15Y19216   1.795   6.102   5.025 -1.8271  0.3786  0.3522
  170SAPE  C31619217   1.784   6.301   5.079 -0.0212 -0.2630 -0.3518
  170SAPE  H16X19218   1.797   6.260   5.181  2.0465 -3.5023 -1.7539
  170SAPE  H16Y19219   1.675   6.320   5.068  0.4790  3.1670 -0.5127
  170SAPE  C31719220   1.861   6.431   5.049 -0.0869  0.7608 -0.3897
  170SAPE  H17X19221   1.854   6.463   4.943 -0.1331  1.8715 -0.0655
  170SAPE  H17Y19222   1.970   6.413   5.061 -0.3626 -0.4622  0.4564
  170SAPE  C31819223   1.814   6.543   5.138  0.2740 -0.5775 -0.5856
  170SAPE  H18X19224   1.858   6.637   5.099  0.7067 -0.5717 -0.0877
  170SAPE  H18Y19225   1.856   6.539   5.241  0.7601  0.2485 -0.7452
  170SAPE  H18Z19226   1.703   6.553   5.149  0.5741  0.0616  3.0269
  171SAPE     N19227   2.913   5.017   2.117 -0.5027  0.2536  0.4510
  171SAPE   HN119228   2.977   4.968   2.183  1.7924 -0.4437 -2.1000
  171SAPE   HN219229   2.980   5.037   2.040  0.5346 -1.8731  0.7236
  171SAPE   HN319230   2.878   5.106   2.159  1.6462  1.8365 -0.8735
  171SAPE   C1219231   2.813   4.913   2.059  0.2296  0.0944  0.1796
  171SAPE  H12A19232   2.878   4.862   1.985 -0.3477  0.6623 -0.7246
  171SAPE  H12B19233   2.737   4.971   2.003 -0.6648 -0.3794  0.8681
  171SAPE   C1119234   2.755   4.830   2.170  0.1287  0.1513  1.3522
  171SAPE  H11A19235   2.843   4.803   2.232  0.6899  2.0793  1.4529
  171SAPE  H11B19236   2.698   4.746   2.124  1.9273 -0.8083  0.8125
  171SAPE     P19237   2.567   4.836   2.354 -0.1672 -0.2510 -0.2764
  171SAPE   O1319238   2.514   4.927   2.459 -0.3909 -0.1624  0.2593
  171SAPE   O1419239   2.462   4.771   2.273  0.2155  0.1093 -0.1922
  171SAPE   O1219240   2.668   4.903   2.255  0.2857 -0.1271  0.0901
  171SAPE   O1119241   2.660   4.725   2.426  0.3706 -0.2115  0.5354
  171SAPE    C119242   2.771   4.771   2.511 -0.1403  0.8605 -0.4138
  171SAPE    HA19243   2.869   4.744   2.466 -0.7353  1.6321 -2.2495
  171SAPE    HB19244   2.763   4.879   2.537  0.3594  0.3534  2.1099
  171SAPE    C219245   2.756   4.711   2.653 -0.4299 -0.4479  0.3455
  171SAPE    HS19246   2.855   4.710   2.704 -1.4739 -0.1022  2.4972
  171SAPE   O2119247   2.707   4.576   2.641  0.3573  0.0005 -0.2938
  171SAPE   C2119248   2.814   4.488   2.642 -0.0005 -0.0682  0.1020
  171SAPE   O2219249   2.926   4.520   2.606 -0.3720 -0.0239 -0.9686
  171SAPE   C2219250   2.758   4.345   2.647 -0.1874 -0.4988 -0.0182
  171SAPE   H2R19251   2.678   4.339   2.725  0.1251  1.5704  0.5192
  171SAPE   H2S19252   2.696   4.338   2.555 -0.2214 -0.5164  0.0062
  171SAPE    C319253   2.662   4.798   2.740 -0.5047 -0.5140 -0.3617
  171SAPE    HX19254   2.571   4.822   2.682  0.3618  0.8623 -1.1922
  171SAPE    HY19255   2.694   4.904   2.750  1.7792 -0.8273 -3.1220
  171SAPE   O3119256   2.623   4.733   2.862  0.8358 -0.2607  0.3090
  171SAPE   C3119257   2.705   4.755   2.964  0.1281  0.0661 -0.3709
  171SAPE   O3219258   2.824   4.787   2.955 -0.8068 -0.6417  0.2813
  171SAPE   C3219259   2.622   4.733   3.087  0.1435  0.1539  0.4363
  171SAPE   H2X19260   2.596   4.627   3.068 -1.2625  0.5373  0.0755
  171SAPE   H2Y19261   2.531   4.795   3.074  1.5810  2.2197 -0.2841
  171SAPE   C2319262   2.858   4.231   2.645 -0.4412 -0.4841  0.1402
  171SAPE   H3R19263   2.934   4.251   2.567 -1.0247  0.3682 -0.2289
  171SAPE   H3S19264   2.792   4.146   2.618 -2.3061  0.3138  1.8943
  171SAPE   C2419265   2.921   4.201   2.778 -0.6174  0.0430  0.0091
  171SAPE   H4R19266   3.006   4.272   2.786 -1.6856  1.3046  0.5346
  171SAPE   H4S19267   2.958   4.096   2.776  0.4026  0.3960 -0.8235
  171SAPE   C2519268   2.831   4.225   2.898  0.4670  0.0815 -0.7519
  171SAPE   H5R19269   2.723   4.219   2.877  0.8471 -0.0991 -2.9022
  171SAPE   C2619270   2.866   4.246   3.023  0.3534 -0.1946 -0.2953
  171SAPE   H6R19271   2.790   4.263   3.101  1.5689 -1.9084  1.3804
  171SAPE   C2719272   3.002   4.269   3.081  0.1923 -0.1275  0.2651
  171SAPE   H7R19273   3.073   4.210   3.019 -1.6027 -0.0014 -2.0918
  171SAPE   H7S19274   3.004   4.225   3.182  1.0680 -1.6009 -0.3615
  171SAPE   C2819275   3.032   4.414   3.090 -0.3228  0.1141 -0.3628
  171SAPE   H8R19276   3.028   4.474   2.998 -0.5519  0.8000  0.0800
  171SAPE   C2919277   3.074   4.478   3.204  0.6374 -0.1036 -0.5451
  171SAPE   H9R19278   3.093   4.586   3.194  0.8565 -0.1175 -0.2836
  171SAPE  C21019279   3.071   4.430   3.348 -0.5998 -0.1915  0.1504
  171SAPE  H10R19280   3.170   4.387   3.374  0.4814  1.1326 -1.5718
  171SAPE  H10S19281   2.991   4.353   3.358 -2.4979  0.8852 -4.1491
  171SAPE  C21119282   3.052   4.535   3.446 -0.4827  0.3971 -0.3079
  171SAPE  H11R19283   3.079   4.633   3.404  1.0483  0.0409 -0.2133
  171SAPE  C21219284   3.008   4.533   3.574  0.4880  0.3671  0.1277
  171SAPE  H12R19285   2.986   4.629   3.624 -0.5916  1.5391 -2.4375
  171SAPE  C21319286   2.988   4.417   3.659 -0.7532 -0.1222 -0.4195
  171SAPE  H13R19287   2.976   4.325   3.599  0.6897 -0.8822  0.4083
  171SAPE  H13S19288   2.891   4.419   3.714  0.6869 -2.6612  2.5160
  171SAPE  C21419289   3.106   4.396   3.757  0.3419 -0.1090  0.0060
  171SAPE  H14R19290   3.165   4.311   3.721  0.3394  0.0386 -0.3433
  171SAPE  C21519291   3.132   4.455   3.878 -0.5639 -0.0533 -0.3246
  171SAPE  H15R19292   3.217   4.414   3.935  0.0405 -0.0568 -1.2056
  171SAPE  C21619293   3.061   4.569   3.955  0.0892  0.4138 -0.2794
  171SAPE  H16R19294   3.021   4.639   3.879  0.9717  0.7795 -0.4238
  171SAPE  H16S19295   3.146   4.607   4.016 -0.6463 -1.8971  2.3718
  171SAPE  C21719296   2.955   4.515   4.052 -0.2106 -0.6679 -0.6938
  171SAPE  H17R19297   2.904   4.425   4.012 -1.0854  0.1945 -1.5945
  171SAPE  H17S19298   2.886   4.599   4.073 -1.3436 -1.2366 -1.9797
  171SAPE  C21819299   3.011   4.462   4.187 -0.1641 -0.1118 -0.4738
  171SAPE  H18R19300   3.066   4.369   4.162 -1.4296 -1.3075  0.9374
  171SAPE  H18S19301   2.925   4.428   4.249 -0.1283  1.5359  0.5321
  171SAPE  C21919302   3.084   4.566   4.276  0.4602 -0.1312 -0.3720
  171SAPE  H19R19303   3.178   4.606   4.230  0.4332 -0.0798 -0.3823
  171SAPE  H19S19304   3.114   4.517   4.371  2.4989  1.7311  0.0207
  171SAPE  C22019305   2.995   4.686   4.323  0.2145 -0.7939 -0.2005
  171SAPE  H20R19306   2.892   4.655   4.351  0.4393 -0.2642  1.2840
  171SAPE  H20S19307   2.976   4.753   4.237 -3.4010 -2.8286 -1.2025
  171SAPE  H20T19308   3.047   4.742   4.403  0.6225 -0.4282 -0.7167
  171SAPE   C3319309   2.707   4.741   3.215 -0.2370  0.2857 -0.2090
  171SAPE   H3X19310   2.743   4.846   3.227  1.8177 -0.5261  1.2188
  171SAPE   H3Y19311   2.798   4.681   3.191 -1.0919 -0.6164 -1.2967
  171SAPE   C3419312   2.632   4.685   3.329 -0.9034  0.5138 -0.0614
  171SAPE   H4X19313   2.527   4.723   3.335 -0.5893  2.2150 -3.1714
  171SAPE   H4Y19314   2.678   4.728   3.420 -2.4532  1.5569  0.2792
  171SAPE   C3519315   2.640   4.529   3.331  0.0184 -0.0390 -0.0961
  171SAPE   H5X19316   2.747   4.504   3.348  0.1001  1.1155  1.3337
  171SAPE   H5Y19317   2.613   4.477   3.237 -1.9815 -1.2571  1.0844
  171SAPE   C3619318   2.553   4.480   3.449 -0.0742 -0.2971  0.5654
  171SAPE   H6X19319   2.527   4.373   3.434  1.0762 -0.6097  0.6990
  171SAPE   H6Y19320   2.455   4.530   3.439  0.9718  1.9850  1.2147
  171SAPE   C3719321   2.606   4.514   3.591 -0.4915 -0.1399  0.1811
  171SAPE   H7X19322   2.609   4.622   3.617 -2.0665 -0.2159  0.8375
  171SAPE   H7Y19323   2.708   4.472   3.599  1.1949  3.3648 -0.7455
  171SAPE   C3819324   2.515   4.448   3.699  0.1127  0.3267 -0.0763
  171SAPE   H8X19325   2.449   4.369   3.657  1.2162 -1.0046  0.6361
  171SAPE   H8Y19326   2.455   4.531   3.742  1.7646  1.8537 -0.6015
  171SAPE   C3919327   2.607   4.381   3.796 -0.5979 -0.5457  0.4662
  171SAPE   H9X19328   2.676   4.458   3.838 -0.1109  0.3874 -1.8834
  171SAPE   H9Y19329   2.667   4.305   3.742  0.3377  1.0567 -0.8451
  171SAPE  C31019330   2.528   4.324   3.925  0.0794 -0.4103  0.5001
  171SAPE  H10X19331   2.507   4.215   3.921 -1.0556 -0.2424 -4.3212
  171SAPE  H10Y19332   2.431   4.378   3.928  0.7168  0.7398  1.0903
  171SAPE  C31119333   2.593   4.359   4.066  0.1564 -0.4161  0.0762
  171SAPE  H11X19334   2.588   4.470   4.079 -0.4226 -0.5582  1.1832
  171SAPE  H11Y19335   2.701   4.332   4.065  0.5957  1.0793 -2.1340
  171SAPE  C31219336   2.517   4.297   4.178 -0.6033  0.1786 -0.1234
  171SAPE  H12X19337   2.510   4.186   4.169 -0.5621  0.2006 -0.4334
  171SAPE  H12Y19338   2.415   4.340   4.173 -0.8101 -0.4198 -1.4889
  171SAPE  C31319339   2.568   4.330   4.317  0.6062  0.0168 -0.0796
  171SAPE  H13X19340   2.665   4.280   4.334 -0.9261 -1.9725  4.2398
  171SAPE  H13Y19341   2.510   4.294   4.404  0.7804 -0.7398 -0.2723
  171SAPE  C31419342   2.589   4.479   4.336 -0.5987  0.1742 -0.4428
  171SAPE  H14X19343   2.497   4.537   4.312 -0.2720 -0.3454 -3.2883
  171SAPE  H14Y19344   2.680   4.506   4.278  0.4016  1.3928  1.5717
  171SAPE  C31519345   2.616   4.523   4.481 -0.2972  0.0165 -0.4073
  171SAPE  H15X19346   2.540   4.472   4.543 -3.0625  0.6050 -3.1036
  171SAPE  H15Y19347   2.623   4.634   4.490 -0.4693  0.0338 -0.5013
  171SAPE  C31619348   2.752   4.464   4.537 -0.7026  0.1074  0.1339
  171SAPE  H16X19349   2.826   4.472   4.454 -0.0890 -1.9768  0.4184
  171SAPE  H16Y19350   2.743   4.355   4.557  0.7311 -0.1827 -0.6609
  171SAPE  C31719351   2.809   4.531   4.666  0.2709  0.0083 -0.0685
  171SAPE  H17X19352   2.730   4.542   4.744 -1.3856 -1.2483 -1.5064
  171SAPE  H17Y19353   2.840   4.635   4.642 -2.4527  0.7088 -0.9161
  171SAPE  C31819354   2.932   4.464   4.718 -0.2217  0.1965 -0.0003
  171SAPE  H18X19355   2.980   4.495   4.814 -1.1660 -0.6793  0.7784
  171SAPE  H18Y19356   3.014   4.461   4.643  1.4265  1.4440  1.6395
  171SAPE  H18Z19357   2.887   4.364   4.737  0.4102  0.0740  0.9288
  172SAPE     N19358   1.944   6.773   2.711  0.2154  0.0378  0.5070
  172SAPE   HN119359   1.880   6.839   2.663 -0.6569  1.0223  2.8761
  172SAPE   HN219360   1.883   6.692   2.735 -1.6031  2.0487  3.1064
  172SAPE   HN319361   1.978   6.828   2.792  1.3421  2.4141 -1.4408
  172SAPE   C1219362   2.058   6.725   2.622  0.0632 -0.0699 -0.2443
  172SAPE  H12A19363   2.089   6.819   2.573  0.3487  0.4750  0.9553
  172SAPE  H12B19364   2.010   6.666   2.542 -2.1967 -0.1349  1.0812
  172SAPE   C1119365   2.160   6.637   2.699 -0.5859 -0.1093 -0.4409
  172SAPE  H11A19366   2.197   6.686   2.792  1.7817 -1.0595 -0.8018
  172SAPE  H11B19367   2.249   6.634   2.632  1.1051 -1.9378  1.7029
  172SAPE     P19368   2.236   6.395   2.738  0.2973 -0.4877  0.1243
  172SAPE   O1319369   2.185   6.275   2.798  0.4312  0.6011 -0.0376
  172SAPE   O1419370   2.301   6.378   2.604  0.4280 -0.0850 -1.0766
  172SAPE   O1219371   2.122   6.506   2.721  0.4377  0.7577 -0.2293
  172SAPE   O1119372   2.342   6.456   2.831 -0.4058 -0.1679  0.0038
  172SAPE    C119373   2.320   6.431   2.974  0.1520 -0.3771 -0.3361
  172SAPE    HA19374   2.304   6.532   3.017 -0.9443 -0.4137 -0.6260
  172SAPE    HB19375   2.231   6.368   2.998  0.6653 -1.2890 -0.7576
  172SAPE    C219376   2.439   6.353   3.044 -0.6939  0.6020 -0.1898
  172SAPE    HS19377   2.411   6.246   3.053 -0.9081  0.7825  1.7401
  172SAPE   O2119378   2.465   6.415   3.174 -0.0016 -0.3715 -0.0193
  172SAPE   C2119379   2.498   6.334   3.274  0.1719 -0.1280  0.5901
  172SAPE   O2219380   2.529   6.219   3.261 -0.1487 -0.2486 -0.3043
  172SAPE   C2219381   2.483   6.415   3.408  0.1953  0.1593 -0.3104
  172SAPE   H2R19382   2.541   6.509   3.401  0.6079 -0.1601 -1.5028
  172SAPE   H2S19383   2.374   6.437   3.418 -0.2180 -1.6769 -0.4078
  172SAPE    C319384   2.568   6.354   2.958  0.3656  0.0057 -0.2621
  172SAPE    HX19385   2.576   6.461   2.932 -0.7710 -0.2205 -1.6172
  172SAPE    HY19386   2.563   6.300   2.861  1.1247  0.9776 -0.8606
  172SAPE   O3119387   2.694   6.323   3.024 -0.0395  0.2477  0.1223
  172SAPE   C3119388   2.728   6.196   3.020 -0.5150  0.6096  0.3012
  172SAPE   O3219389   2.674   6.103   2.956 -0.5595 -0.3194 -0.0249
  172SAPE   C3219390   2.861   6.184   3.102  0.6048  0.4325 -0.0810
  172SAPE   H2X19391   2.845   6.242   3.195 -0.4630 -0.9012  0.6106
  172SAPE   H2Y19392   2.942   6.232   3.043  0.4235  2.1199  0.9842
  172SAPE   C2319393   2.532   6.336   3.535 -0.1528  0.2082  0.6365
  172SAPE   H3R19394   2.526   6.407   3.621  0.1358  0.9316  0.0716
  172SAPE   H3S19395   2.641   6.318   3.523 -0.2177  0.5538 -0.5370
  172SAPE   C2419396   2.460   6.205   3.568 -0.1147 -0.3753  0.3109
  172SAPE   H4R19397   2.534   6.146   3.627  0.2801 -0.9356 -0.7022
  172SAPE   H4S19398   2.453   6.148   3.472  1.5544  1.1461 -0.7832
  172SAPE   C2519399   2.323   6.224   3.627 -0.2559  0.5041 -0.8148
  172SAPE   H5R19400   2.241   6.218   3.553 -2.0485  0.5208  1.0567
  172SAPE   C2619401   2.306   6.229   3.760  0.6266  0.7398 -0.1804
  172SAPE   H6R19402   2.204   6.226   3.802 -0.0759 -0.5759 -1.8297
  172SAPE   C2719403   2.419   6.248   3.857  0.5283  0.6262  0.0053
  172SAPE   H7R19404   2.376   6.317   3.933 -0.3533 -0.3338  0.3983
  172SAPE   H7S19405   2.505   6.311   3.827  0.4594  1.1470  0.8665
  172SAPE   C2819406   2.468   6.115   3.916  0.0528 -0.2285 -0.3224
  172SAPE   H8R19407   2.463   6.039   3.838  0.8115 -1.1739  0.5225
  172SAPE   C2919408   2.505   6.085   4.041  0.4639  0.0175  0.6241
  172SAPE   H9R19409   2.526   5.981   4.071  0.0026 -0.1444  0.4104
  172SAPE  C21019410   2.534   6.189   4.149 -0.4893 -0.6139  0.4811
  172SAPE  H10R19411   2.437   6.236   4.177 -0.9831 -1.2033 -0.2119
  172SAPE  H10S19412   2.577   6.283   4.107  0.0653 -1.6458 -1.3756
  172SAPE  C21119413   2.613   6.133   4.259 -0.3112  0.3254 -0.4907
  172SAPE  H11R19414   2.720   6.156   4.258 -0.4609  1.1231  0.6715
  172SAPE  C21219415   2.564   6.072   4.369 -0.3571  0.5909 -0.1550
  172SAPE  H12R19416   2.628   6.036   4.451  0.7144 -0.9557 -1.6225
  172SAPE  C21319417   2.420   6.040   4.395 -0.3667  0.3539 -0.0545
  172SAPE  H13R19418   2.404   5.939   4.439  0.6992 -0.5427 -1.6163
  172SAPE  H13S19419   2.373   6.023   4.295  0.7782 -0.7271 -0.4304
  172SAPE  C21419420   2.352   6.147   4.468  0.2050  0.2670  0.0791
  172SAPE  H14R19421   2.345   6.244   4.417 -1.1858  0.5207  0.7067
  172SAPE  C21519422   2.272   6.136   4.578 -0.1855  0.5637 -0.5841
  172SAPE  H15R19423   2.228   6.223   4.628  0.4965 -1.2760  3.6298
  172SAPE  C21619424   2.245   6.010   4.660  0.0220 -1.2100  0.0994
  172SAPE  H16R19425   2.274   5.915   4.609  1.1920 -1.1773  0.6687
  172SAPE  H16S19426   2.141   5.993   4.696 -0.0883 -0.0335  0.3747
  172SAPE  C21719427   2.332   6.021   4.782 -0.2474  0.4757  0.1866
  172SAPE  H17R19428   2.439   6.046   4.762  1.0625 -2.7099  2.5186
  172SAPE  H17S19429   2.344   5.917   4.817 -0.8774 -0.0474 -1.1102
  172SAPE  C21819430   2.270   6.113   4.885  0.7886 -0.1902 -0.0005
  172SAPE  H18R19431   2.165   6.080   4.900  0.8149 -0.4591 -0.3943
  172SAPE  H18S19432   2.273   6.214   4.841  2.9178 -0.3506 -0.2878
  172SAPE  C21919433   2.357   6.123   5.011  0.0631 -0.1882 -0.3625
  172SAPE  H19R19434   2.455   6.168   4.986  0.0087 -0.8537 -1.9148
  172SAPE  H19S19435   2.369   6.019   5.050  0.2085 -0.0558 -0.0555
  172SAPE  C22019436   2.299   6.214   5.112 -0.5007  0.2084  0.7550
  172SAPE  H20R19437   2.378   6.241   5.185  0.2004 -1.8591  0.8186
  172SAPE  H20S19438   2.210   6.163   5.155  0.0218  0.2197  1.8622
  172SAPE  H20T19439   2.268   6.310   5.066  2.3183  0.6460 -0.4085
  172SAPE   C3319440   2.897   6.035   3.120  0.2430  0.7743  0.5350
  172SAPE   H3X19441   2.924   5.992   3.021 -1.3993  1.2344 -0.1403
  172SAPE   H3Y19442   2.804   5.984   3.152  0.2241 -0.5940 -1.5305
  172SAPE   C3419443   3.014   6.024   3.220  0.2414  0.2011 -0.0974
  172SAPE   H4X19444   3.105   6.071   3.175  0.2453 -0.0783 -0.3830
  172SAPE   H4Y19445   3.028   5.914   3.231  0.4170  0.2519  0.1964
  172SAPE   C3519446   2.989   6.079   3.361  0.4032 -0.0425 -0.9170
  172SAPE   H5X19447   2.981   6.190   3.359  0.6534 -0.0265 -1.1392
  172SAPE   H5Y19448   3.071   6.044   3.427 -0.2228 -2.2110 -1.1997
  172SAPE   C3619449   2.856   6.042   3.430  0.3518  0.3935 -0.1755
  172SAPE   H6X19450   2.839   5.933   3.414 -0.7807  0.2307  1.8309
  172SAPE   H6Y19451   2.769   6.094   3.383  0.3579 -0.5160 -1.2181
  172SAPE   C3719452   2.856   6.070   3.581 -0.3789 -0.4389 -0.8264
  172SAPE   H7X19453   2.755   6.089   3.624  0.6402 -0.5227  1.7570
  172SAPE   H7Y19454   2.929   6.150   3.602 -0.3831 -1.1874  2.4781
  172SAPE   C3819455   2.902   5.949   3.673 -0.2060  0.2558 -0.2392
  172SAPE   H8X19456   3.001   5.917   3.633  0.0219  1.7612 -0.9070
  172SAPE   H8Y19457   2.830   5.867   3.654  0.1645 -0.0808 -0.2158
  172SAPE   C3919458   2.894   5.985   3.825  0.0878 -0.1669  0.3165
  172SAPE   H9X19459   2.790   6.021   3.842  1.1222  3.1115  0.5074
  172SAPE   H9Y19460   2.949   6.079   3.850 -0.3403 -0.2809  1.8063
  172SAPE  C31019461   2.938   5.868   3.921  0.3848 -0.0902  0.0325
  172SAPE  H10X19462   3.049   5.861   3.922  0.7887  2.8422 -3.4063
  172SAPE  H10Y19463   2.892   5.775   3.880  1.2372 -0.9991  1.0565
  172SAPE  C31119464   2.879   5.882   4.063 -0.1050 -0.0188  0.7423
  172SAPE  H11X19465   2.770   5.899   4.051  0.0086 -0.8334 -2.1147
  172SAPE  H11Y19466   2.927   5.971   4.110 -1.7035  0.7059  1.0764
  172SAPE  C31219467   2.903   5.761   4.156  0.4341 -0.7579  0.3744
  172SAPE  H12X19468   3.007   5.724   4.171  1.3671  0.4736 -2.4199
  172SAPE  H12Y19469   2.850   5.673   4.115  2.0799 -0.6779 -2.1419
  172SAPE  C31319470   2.848   5.791   4.298  0.4100  0.1384  0.0201
  172SAPE  H13X19471   2.836   5.692   4.349  1.2658 -0.0674 -0.1595
  172SAPE  H13Y19472   2.751   5.844   4.285  0.6883  0.3313 -1.3432
  172SAPE  C31419473   2.944   5.855   4.397 -0.3859 -0.7539 -0.7203
  172SAPE  H14X19474   2.877   5.859   4.485  0.5273 -2.5800  0.1208
  172SAPE  H14Y19475   2.972   5.951   4.349  1.1670 -0.3946  0.7909
  172SAPE  C31519476   3.075   5.783   4.431  0.0406  0.0918 -1.0519
  172SAPE  H15X19477   3.141   5.774   4.341  1.0571 -1.6907 -0.2010
  172SAPE  H15Y19478   3.051   5.682   4.471  0.4243  0.2372 -0.4504
  172SAPE  C31619479   3.154   5.851   4.547  1.0226 -0.2430  0.4170
  172SAPE  H16X19480   3.083   5.883   4.626 -0.8069  3.0077 -2.2946
  172SAPE  H16Y19481   3.203   5.942   4.507  2.1915 -0.2760  1.7062
  172SAPE  C31719482   3.261   5.757   4.591 -0.1672 -0.2875 -0.4241
  172SAPE  H17X19483   3.348   5.756   4.522  1.8590  1.0304  1.9537
  172SAPE  H17Y19484   3.227   5.652   4.577 -2.4116  0.0120  2.0656
  172SAPE  C31819485   3.306   5.780   4.735  0.5339 -0.5376  0.3484
  172SAPE  H18X19486   3.416   5.770   4.740  0.5333 -0.1021  1.5224
  172SAPE  H18Y19487   3.262   5.709   4.809  1.7529 -2.5786 -0.8105
  172SAPE  H18Z19488   3.279   5.882   4.771  0.1270 -0.3881 -0.3622
  173SLPC     N19489   0.958   3.151   7.248 -0.5931  0.6501  0.5989
  173SLPC   C1319490   0.975   3.284   7.318 -0.0488 -0.2025  0.2707
  173SLPC  H13A19491   1.063   3.283   7.380 -0.6817 -1.3339  1.1939
  173SLPC  H13B19492   1.003   3.356   7.242  2.2277 -0.1322  1.0901
  173SLPC  H13C19493   0.889   3.314   7.376 -0.6122 -1.6694  0.2486
  173SLPC   C1419494   0.819   3.142   7.220 -0.6215  0.0583 -0.2374
  173SLPC  H14A19495   0.799   3.063   7.150  2.1582  0.1847 -1.2926
  173SLPC  H14B19496   0.763   3.138   7.313 -0.9881 -1.2172 -0.5029
  173SLPC  H14C19497   0.794   3.234   7.169 -0.1850 -0.1233 -0.7831
  173SLPC   C1519498   0.990   3.042   7.340 -0.1546  0.1472 -0.1992
  173SLPC  H15A19499   0.944   3.043   7.438 -1.2862  1.0284 -0.7157
  173SLPC  H15B19500   0.970   2.945   7.296  0.8974 -0.4318  0.5753
  173SLPC  H15C19501   1.097   3.048   7.351  0.1206  0.6178 -2.5497
  173SLPC   C1219502   1.044   3.141   7.123  0.2826 -0.1977  0.3725
  173SLPC  H12A19503   1.030   3.045   7.074  2.7029 -0.4985  0.1513
  173SLPC  H12B19504   1.147   3.142   7.154  0.5023 -0.2875 -0.3465
  173SLPC   C1119505   1.031   3.252   7.022 -0.2885  0.7444 -0.0838
  173SLPC  H11A19506   0.926   3.276   6.995  0.3385 -0.0855 -3.8609
  173SLPC  H11B19507   1.076   3.233   6.922 -0.3241 -0.2379  0.0814
  173SLPC     P19508   1.249   3.378   7.060  0.3715 -0.0339 -0.0844
  173SLPC   O1319509   1.292   3.503   7.119  0.2422  0.3228  0.0693
  173SLPC   O1419510   1.301   3.248   7.109  0.2833  0.5984 -0.1256
  173SLPC   O1219511   1.095   3.369   7.075  0.1933 -0.4437 -0.2063
  173SLPC   O1119512   1.266   3.381   6.902  0.6567  0.9410 -0.4682
  173SLPC    C119513   1.203   3.490   6.826  0.2149  0.8132  0.7584
  173SLPC    HA19514   1.163   3.563   6.899 -1.2461 -0.3231  1.1474
  173SLPC    HB19515   1.286   3.546   6.778  1.4971  0.4713  2.4575
  173SLPC    C219516   1.089   3.451   6.727 -0.2828 -0.9940  0.1291
  173SLPC    HS19517   1.015   3.381   6.770 -2.3993 -0.3558 -2.1923
  173SLPC   O2119518   1.150   3.398   6.606 -0.4080 -0.1603  0.1817
  173SLPC   C2119519   1.096   3.288   6.558 -0.3070 -0.0300  0.3691
  173SLPC   O2219520   1.020   3.212   6.614 -0.2165 -0.2559  0.1017
  173SLPC   C2219521   1.131   3.269   6.415 -0.3207  1.1093 -0.0845
  173SLPC   H2R19522   1.135   3.365   6.359  3.8865  1.1433 -0.0413
  173SLPC   H2S19523   1.235   3.230   6.408 -1.3692 -2.2443  1.3238
  173SLPC    C319524   1.017   3.580   6.684  0.3350  0.3119  0.5949
  173SLPC    HX19525   1.089   3.659   6.652 -3.4561  2.5008 -3.8807
  173SLPC    HY19526   0.971   3.617   6.778 -2.1014 -0.1811 -0.3260
  173SLPC   O3119527   0.909   3.569   6.585  0.8660  0.0541 -0.3235
  173SLPC   C3119528   0.913   3.655   6.484 -0.1800  0.1239 -0.2573
  173SLPC   O3219529   1.003   3.731   6.458 -0.2616  0.0751  0.6529
  173SLPC   C3219530   0.777   3.648   6.418 -0.0785  0.0511  0.5061
  173SLPC   H2X19531   0.757   3.746   6.368 -1.8770  0.4213  1.8655
  173SLPC   H2Y19532   0.697   3.631   6.493  0.2761  0.0651  0.8850
  173SLPC   C2319533   1.044   3.168   6.344 -0.3904  0.1115 -0.2424
  173SLPC   H3R19534   0.957   3.217   6.297 -0.3704  0.5183  0.1303
  173SLPC   H3S19535   1.008   3.093   6.418  0.2089 -0.9879 -1.0311
  173SLPC   C2419536   1.123   3.091   6.239  0.8690 -0.3003  0.8027
  173SLPC   H4R19537   1.204   3.036   6.292  0.5462  1.7408  3.6541
  173SLPC   H4S19538   1.174   3.171   6.182 -0.5062  0.6300  0.8207
  173SLPC   C2519539   1.032   3.004   6.152  0.5156 -0.7858  0.9642
  173SLPC   H5R19540   0.957   3.067   6.098  0.7014 -1.3259  0.0549
  173SLPC   H5S19541   0.972   2.933   6.213  0.9971 -1.4669  0.6527
  173SLPC   C2619542   1.118   2.935   6.046 -0.7801 -0.3119  0.3160
  173SLPC   H6R19543   1.202   2.886   6.100  0.0505  0.2079 -0.4766
  173SLPC   H6S19544   1.169   3.007   5.977 -0.1428 -0.9089  0.1500
  173SLPC   C2719545   1.049   2.814   5.979  0.0745  0.0318 -0.0149
  173SLPC   H7R19546   0.974   2.860   5.912 -0.7356 -0.0842  0.7907
  173SLPC   H7S19547   1.003   2.741   6.050 -1.7348 -0.2609 -1.4117
  173SLPC   C2819548   1.148   2.751   5.883  0.6690 -0.4421 -0.2040
  173SLPC   H8R19549   1.238   2.714   5.938  0.6503  1.8832  1.5166
  173SLPC   H8S19550   1.193   2.830   5.819 -0.5372 -2.2508 -3.5540
  173SLPC   C2919551   1.079   2.652   5.791  0.2789  0.1773 -1.0914
  173SLPC   H9R19552   1.045   2.556   5.833 -0.7470  0.4189 -1.3484
  173SLPC  C21019553   1.039   2.675   5.664 -0.8370  0.3835 -0.9261
  173SLPC  H10R19554   0.993   2.594   5.605 -0.5467  0.6070 -1.4567
  173SLPC  C21119555   1.068   2.798   5.575  0.2945  0.2899  0.8519
  173SLPC  H11R19556   1.041   2.893   5.627 -1.8776  0.0262  0.3275
  173SLPC  H11S19557   1.001   2.786   5.487  1.5892 -0.7860 -0.0336
  173SLPC  C21219558   1.211   2.825   5.524 -0.7537 -0.0659  0.5141
  173SLPC  H12R19559   1.296   2.774   5.571 -0.0323  1.4819  0.9485
  173SLPC  C21319560   1.241   2.902   5.419  0.0567 -1.0529 -0.2647
  173SLPC  H13R19561   1.344   2.923   5.388  0.2251  3.1542  2.3453
  173SLPC  C21419562   1.139   2.988   5.352 -0.0189 -0.3498  0.8740
  173SLPC  H14R19563   1.183   3.090   5.350  0.5806 -0.6138 -0.3317
  173SLPC  H14S19564   1.042   3.008   5.403 -1.3593 -0.8340 -1.3286
  173SLPC  C21519565   1.106   2.933   5.207  0.8503 -0.2653  0.4690
  173SLPC  H15R19566   1.029   3.008   5.176  0.1361 -0.9550  0.5526
  173SLPC  H15S19567   1.050   2.837   5.206 -0.4811  0.4859 -0.9085
  173SLPC  C21619568   1.220   2.932   5.102  0.5095 -1.4093  0.2336
  173SLPC  H16R19569   1.305   2.880   5.150 -0.1895 -1.6430  1.2506
  173SLPC  H16S19570   1.250   3.038   5.089  0.9440 -1.7410 -1.8459
  173SLPC  C21719571   1.187   2.878   4.961  0.5259  0.1442 -0.0408
  173SLPC  H17R19572   1.170   2.769   4.948 -1.1196  0.3906 -0.1968
  173SLPC  H17S19573   1.282   2.879   4.903  1.6127 -3.1868  1.4004
  173SLPC  C21819574   1.067   2.943   4.882  0.2455 -0.1901 -0.9098
  173SLPC  H18R19575   1.094   3.049   4.860  3.4083 -0.2140  2.1662
  173SLPC  H18S19576   0.978   2.952   4.948  1.2314  1.5650  0.2557
  173SLPC  H18T19577   1.031   2.888   4.792 -4.5004 -0.5245  0.8710
  173SLPC   C3319578   0.774   3.529   6.312 -0.3104 -0.5118 -0.4107
  173SLPC   H3X19579   0.678   3.544   6.260 -0.0277  0.8094 -0.5759
  173SLPC   H3Y19580   0.781   3.430   6.363  0.6948  0.7736  2.1204
  173SLPC   C3419581   0.884   3.532   6.207 -0.5838 -0.0932 -0.1519
  173SLPC   H4X19582   0.985   3.517   6.250 -0.8890 -0.3133  0.5051
  173SLPC   H4Y19583   0.892   3.627   6.150 -1.3696 -1.4333 -2.6063
  173SLPC   C3519584   0.851   3.423   6.101  0.3317 -0.1616 -0.8891
  173SLPC   H5X19585   0.758   3.459   6.052 -0.1521 -0.4499 -0.2060
  173SLPC   H5Y19586   0.838   3.326   6.154  0.0034  1.3197  1.9481
  173SLPC   C3619587   0.960   3.428   5.996 -0.4938 -0.7760 -0.5985
  173SLPC   H6X19588   1.062   3.418   6.037 -0.3634  0.3502 -0.6103
  173SLPC   H6Y19589   0.962   3.532   5.957 -0.9847 -0.5891 -0.1325
  173SLPC   C3719590   0.932   3.342   5.875 -0.0372 -0.5243 -0.1831
  173SLPC   H7X19591   0.850   3.382   5.812 -0.6702  0.0145  0.9445
  173SLPC   H7Y19592   0.907   3.240   5.911  0.6430 -0.2336  1.1601
  173SLPC   C3819593   1.054   3.323   5.778  0.4656 -0.1944 -0.0238
  173SLPC   H8X19594   1.013   3.279   5.684 -0.5546  0.1998  0.2210
  173SLPC   H8Y19595   1.124   3.242   5.807  1.2703 -1.0874 -3.8366
  173SLPC   C3919596   1.126   3.454   5.749  0.0082 -0.0392  0.4727
  173SLPC   H9X19597   1.202   3.474   5.828  0.9083 -1.5416  0.0297
  173SLPC   H9Y19598   1.056   3.540   5.751  1.9832  1.6576  2.2264
  173SLPC  C31019599   1.189   3.458   5.609 -0.5622  1.1391 -0.4011
  173SLPC  H10X19600   1.268   3.381   5.595 -0.3125  1.5279 -1.2229
  173SLPC  H10Y19601   1.239   3.555   5.587  0.2212  0.8766  0.1730
  173SLPC  C31119602   1.093   3.438   5.487 -0.0780 -0.1407 -0.0387
  173SLPC  H11X19603   1.010   3.511   5.492  0.7298  0.7825  0.2624
  173SLPC  H11Y19604   1.048   3.337   5.499  0.7483 -0.6455 -0.9680
  173SLPC  C31219605   1.154   3.453   5.352 -0.0665 -0.0017  0.7377
  173SLPC  H12X19606   1.233   3.377   5.334 -0.7822 -1.0839  2.0178
  173SLPC  H12Y19607   1.214   3.547   5.352  0.4303 -0.3131  0.7577
  173SLPC  C31319608   1.049   3.459   5.247  0.3943 -0.1770  0.3091
  173SLPC  H13X19609   1.103   3.486   5.154  0.8496  2.3419  1.2135
  173SLPC  H13Y19610   0.975   3.537   5.277  0.8177  0.2901  0.1580
  173SLPC  C31419611   0.985   3.326   5.215  0.1941  0.3487  0.3479
  173SLPC  H14X19612   0.957   3.272   5.308  2.2755  0.1668  0.9044
  173SLPC  H14Y19613   1.064   3.264   5.168  1.3510  0.2068  2.3436
  173SLPC  C31519614   0.865   3.336   5.115 -0.0750 -0.1712  0.1896
  173SLPC  H15X19615   0.905   3.370   5.017 -2.2477 -0.7298 -0.9481
  173SLPC  H15Y19616   0.796   3.418   5.143 -0.6322 -0.3215 -0.7058
  173SLPC  C31619617   0.788   3.207   5.091  0.3331  0.2205  0.1690
  173SLPC  H16X19618   0.688   3.216   5.137  0.9006  1.6500  1.2139
  173SLPC  H16Y19619   0.844   3.118   5.128  1.9693  0.2026 -2.1365
  173SLPC  C31719620   0.778   3.186   4.939 -0.2978  0.0129  1.1200
  173SLPC  H17X19621   0.749   3.081   4.916  1.1718 -0.5961  1.9222
  173SLPC  H17Y19622   0.868   3.177   4.874 -0.8509 -0.6305  0.4249
  173SLPC  C31819623   0.676   3.286   4.875 -0.0928  0.3063 -0.3879
  173SLPC  H18X19624   0.585   3.283   4.940  1.5039  1.4740  2.0461
  173SLPC  H18Y19625   0.644   3.263   4.771 -0.9463 -3.3409  0.5291
  173SLPC  H18Z19626   0.724   3.386   4.879  3.6650 -1.3220 -0.4086
  174SLPC     N19627   4.457   2.234   7.336 -0.1294 -0.2843 -0.3048
  174SLPC   C1319628   4.371   2.283   7.443 -0.2451 -1.1593 -0.3128
  174SLPC  H13A19629   4.282   2.223   7.454 -0.9912 -0.3227 -1.5823
  174SLPC  H13B19630   4.417   2.284   7.541 -1.6798  0.6171  0.3963
  174SLPC  H13C19631   4.328   2.380   7.420 -0.8563 -1.5396 -0.8058
  174SLPC   C1419632   4.570   2.334   7.338 -0.1854  0.2313 -0.2973
  174SLPC  H14A19633   4.528   2.429   7.309 -0.1465  1.3590  2.9234
  174SLPC  H14B19634   4.600   2.350   7.441 -1.2434  0.8076 -0.0719
  174SLPC  H14C19635   4.653   2.299   7.279 -0.4499  1.0228 -1.1495
  174SLPC   C1519636   4.383   2.238   7.213 -0.1640  0.0996  0.0562
  174SLPC  H15A19637   4.435   2.201   7.126 -2.5619 -1.8216 -0.6806
  174SLPC  H15B19638   4.301   2.168   7.220  0.1594 -0.1447  3.9491
  174SLPC  H15C19639   4.355   2.336   7.180 -2.0373 -0.7286 -0.9641
  174SLPC   C1219640   4.500   2.093   7.374  0.6031 -0.4320 -0.0680
  174SLPC  H12A19641   4.410   2.038   7.399 -0.5052  1.1197 -0.5029
  174SLPC  H12B19642   4.563   2.094   7.462  0.6325  2.5643 -0.0042
  174SLPC   C1119643   4.586   2.014   7.266  0.1138  0.1146 -0.2686
  174SLPC  H11A19644   4.529   2.000   7.171  1.7604  0.4583 -1.3525
  174SLPC  H11B19645   4.595   1.916   7.317 -4.4761  0.3459  1.5211
  174SLPC     P19646   4.834   2.051   7.341  0.1949 -0.3753 -0.0718
  174SLPC   O1319647   4.915   2.176   7.350 -0.1891  0.0388 -0.0881
  174SLPC   O1419648   4.787   1.995   7.469  0.0048 -0.1064  0.2106
  174SLPC   O1219649   4.708   2.076   7.238 -0.2241  0.2082  0.0199
  174SLPC   O1119650   4.906   1.934   7.262 -0.1282  0.3489 -0.4566
  174SLPC    C119651   4.994   1.963   7.154  0.1739 -0.0293 -0.1224
  174SLPC    HA19652   5.057   2.055   7.159  0.9306 -0.5034 -0.6065
  174SLPC    HB19653   5.062   1.875   7.148 -2.7163 -2.5726  1.5417
  174SLPC    C219654   4.917   1.973   7.018 -0.1732  0.2020  0.6184
  174SLPC    HS19655   4.856   2.065   7.019 -1.5526 -0.6757  0.1143
  174SLPC   O2119656   4.838   1.849   7.006  0.5316  0.0860 -0.4165
  174SLPC   C2119657   4.715   1.869   6.946  0.5620 -0.2042 -0.2790
  174SLPC   O2219658   4.681   1.974   6.899 -0.1237 -0.1856  0.4011
  174SLPC   C2219659   4.626   1.741   6.945  0.5345 -0.1272  0.1470
  174SLPC   H2R19660   4.699   1.657   6.955  0.5799 -0.1049 -0.0057
  174SLPC   H2S19661   4.556   1.739   7.032  0.3800 -4.5043  0.1696
  174SLPC    C319662   5.018   1.972   6.899  0.1563  0.1514  0.1731
  174SLPC    HX19663   5.104   1.904   6.920 -0.3259 -0.6045 -0.2597
  174SLPC    HY19664   5.062   2.074   6.890  2.0416 -0.7981 -3.0392
  174SLPC   O3119665   4.966   1.945   6.764  0.5775 -0.0086  0.4925
  174SLPC   C3119666   4.979   1.816   6.723 -0.0456 -0.0742 -0.4304
  174SLPC   O3219667   5.032   1.729   6.782 -0.4802  0.2756  0.1219
  174SLPC   C3219668   4.908   1.797   6.585 -0.3174 -0.0150 -0.5226
  174SLPC   H2X19669   4.965   1.837   6.498  0.6132 -1.4827 -0.6190
  174SLPC   H2Y19670   4.808   1.843   6.594  0.0467  0.8655 -0.8427
  174SLPC   C2319671   4.544   1.722   6.814 -0.0012 -0.8692  0.3710
  174SLPC   H3R19672   4.611   1.729   6.726  0.9401 -0.2883  1.1153
  174SLPC   H3S19673   4.472   1.806   6.809  0.5518 -0.4121  0.0911
  174SLPC   C2419674   4.462   1.595   6.811  0.2889  0.6326 -0.5830
  174SLPC   H4R19675   4.406   1.593   6.907  2.2574  1.7131  0.6574
  174SLPC   H4S19676   4.534   1.511   6.804 -0.2055  0.1624 -0.1000
  174SLPC   C2519677   4.356   1.599   6.703  0.5164  0.5416  0.1864
  174SLPC   H5R19678   4.286   1.676   6.742  0.5170  0.6903 -0.0970
  174SLPC   H5S19679   4.304   1.502   6.693  0.7313  0.5686 -1.5017
  174SLPC   C2619680   4.414   1.626   6.563  0.2512  0.2840 -0.1755
  174SLPC   H6R19681   4.467   1.724   6.561  1.2823 -0.1934  1.5663
  174SLPC   H6S19682   4.322   1.646   6.505 -0.9877 -2.5667  0.6724
  174SLPC   C2719683   4.494   1.516   6.505 -0.8324 -0.4341 -0.4343
  174SLPC   H7R19684   4.424   1.430   6.497 -2.0043  0.3947  0.6807
  174SLPC   H7S19685   4.585   1.490   6.564  0.3082  0.1979 -1.8793
  174SLPC   C2819686   4.539   1.545   6.358 -0.0521 -0.1266 -0.5498
  174SLPC   H8R19687   4.599   1.638   6.362 -1.0915  0.5174  2.4966
  174SLPC   H8S19688   4.443   1.573   6.310 -1.2982 -0.0331  1.8182
  174SLPC   C2919689   4.609   1.432   6.287  0.6436  0.4085  1.0260
  174SLPC   H9R19690   4.625   1.338   6.341  1.5667  1.1939  2.1530
  174SLPC  C21019691   4.618   1.425   6.152  0.3587 -0.4304 -0.3706
  174SLPC  H10R19692   4.655   1.335   6.101  1.3054 -0.5589  0.4965
  174SLPC  C21119693   4.565   1.540   6.074 -0.0324 -0.3508 -0.8342
  174SLPC  H11R19694   4.655   1.563   6.014  0.7743  2.3540  1.2185
  174SLPC  H11S19695   4.537   1.637   6.121  0.6843 -0.4439 -0.2078
  174SLPC  C21219696   4.458   1.503   5.979  0.8139 -0.1957 -0.2131
  174SLPC  H12R19697   4.470   1.405   5.929 -1.3369 -0.4015 -0.4220
  174SLPC  C21319698   4.347   1.564   5.944 -0.1242  0.5977 -0.2273
  174SLPC  H13R19699   4.276   1.525   5.869 -1.0478  2.0362 -0.1514
  174SLPC  C21419700   4.306   1.701   5.991  0.3384 -0.2793  0.0594
  174SLPC  H14R19701   4.306   1.761   5.897  1.0109 -0.5997 -0.1496
  174SLPC  H14S19702   4.378   1.746   6.062 -0.7007  0.0208  0.9411
  174SLPC  C21519703   4.158   1.711   6.046 -0.0780 -0.3316 -0.2933
  174SLPC  H15R19704   4.087   1.691   5.964 -1.8271  4.7450 -0.3283
  174SLPC  H15S19705   4.149   1.821   6.055  0.5614 -0.3331  0.5022
  174SLPC  C21619706   4.141   1.637   6.182  0.3234 -0.5906  0.0420
  174SLPC  H16R19707   4.222   1.671   6.249  1.8511  1.0126 -2.4583
  174SLPC  H16S19708   4.152   1.528   6.161  0.3837 -0.8166  1.1807
  174SLPC  C21719709   4.000   1.666   6.241 -0.2875 -0.6456 -0.8116
  174SLPC  H17R19710   3.918   1.615   6.185  0.3371 -1.6273 -0.8521
  174SLPC  H17S19711   3.969   1.772   6.231 -1.2184 -0.9434 -1.2613
  174SLPC  C21819712   4.004   1.619   6.391 -0.8820 -0.1444 -0.5486
  174SLPC  H18R19713   4.020   1.509   6.401 -0.8809 -0.0033  1.5434
  174SLPC  H18S19714   3.913   1.652   6.446 -1.2136 -0.1435 -1.0928
  174SLPC  H18T19715   4.087   1.661   6.453  0.8268 -1.6144 -1.7372
  174SLPC   C3319716   4.883   1.649   6.549  0.0475 -1.0713 -0.0012
  174SLPC   H3X19717   4.810   1.648   6.464 -0.5589  1.0219  0.4519
  174SLPC   H3Y19718   4.834   1.592   6.630 -1.5211 -1.9716 -1.4998
  174SLPC   C3419719   5.003   1.566   6.501 -0.1469 -0.8419  0.4155
  174SLPC   H4X19720   4.969   1.460   6.510 -0.9168 -0.5883  0.5939
  174SLPC   H4Y19721   5.081   1.592   6.575  1.4205 -1.2224 -1.0309
  174SLPC   C3519722   5.053   1.602   6.355 -0.3093  0.3780 -1.1214
  174SLPC   H5X19723   5.157   1.565   6.347  0.1585  0.8381  1.7702
  174SLPC   H5Y19724   5.078   1.710   6.341  2.4771 -0.2767 -1.7287
  174SLPC   C3619725   4.961   1.557   6.238 -0.2627  0.4722  0.7651
  174SLPC   H6X19726   4.855   1.592   6.243 -0.5759 -0.0602 -1.2894
  174SLPC   H6Y19727   4.960   1.447   6.250 -3.0236  0.3622  0.2749
  174SLPC   C3719728   5.022   1.597   6.095  0.6105 -0.4635 -0.3752
  174SLPC   H7X19729   5.131   1.618   6.109  0.4476  1.4524 -1.5645
  174SLPC   H7Y19730   4.973   1.689   6.055  1.3585 -0.8742 -2.3878
  174SLPC   C3819731   4.998   1.477   5.994  0.1967  0.4150  0.1324
  174SLPC   H8X19732   4.887   1.475   5.988  0.1828 -1.0338  0.3316
  174SLPC   H8Y19733   5.028   1.382   6.044  0.6783  0.2282 -0.4998
  174SLPC   C3919734   5.072   1.493   5.857 -0.4718  0.0685 -0.2479
  174SLPC   H9X19735   5.176   1.464   5.882 -0.0584  1.0934 -0.6828
  174SLPC   H9Y19736   5.063   1.598   5.821  0.5634  0.2305 -0.0504
  174SLPC  C31019737   5.040   1.396   5.748  0.8506 -1.0831  0.2965
  174SLPC  H10X19738   4.931   1.377   5.751  0.2387  1.8605 -0.1765
  174SLPC  H10Y19739   5.104   1.308   5.770  1.0547 -0.7538  1.0537
  174SLPC  C31119740   5.060   1.456   5.603  0.0224  0.3567 -0.9925
  174SLPC  H11X19741   5.171   1.457   5.597  0.1445 -1.0917  0.3696
  174SLPC  H11Y19742   5.029   1.561   5.619  1.6540  0.6444  0.7008
  174SLPC  C31219743   4.994   1.378   5.492  0.1520  0.0423 -0.2948
  174SLPC  H12X19744   4.885   1.400   5.488 -0.1429 -1.4377 -0.8500
  174SLPC  H12Y19745   5.008   1.268   5.497 -0.2358 -0.0298 -0.7467
  174SLPC  C31319746   5.055   1.420   5.353  0.9442  0.4750  0.4462
  174SLPC  H13X19747   5.053   1.531   5.355  0.3118  0.4717  0.3564
  174SLPC  H13Y19748   4.981   1.381   5.280 -0.0331  1.4234  0.8953
  174SLPC  C31419749   5.188   1.353   5.313 -0.0391 -0.4577 -0.1073
  174SLPC  H14X19750   5.225   1.286   5.393  1.3609 -1.0027 -1.1733
  174SLPC  H14Y19751   5.272   1.425   5.300 -0.7201  0.3461 -0.2195
  174SLPC  C31519752   5.194   1.267   5.187  0.8539 -0.2567 -0.2066
  174SLPC  H15X19753   5.120   1.298   5.111 -1.1182 -1.7724  0.9836
  174SLPC  H15Y19754   5.160   1.165   5.217  1.0510  0.1812  1.6742
  174SLPC  C31619755   5.335   1.255   5.129  0.5016  0.4986 -0.2041
  174SLPC  H16X19756   5.410   1.216   5.203  2.2455 -1.0345 -2.6246
  174SLPC  H16Y19757   5.375   1.353   5.095 -0.3921  1.2515  0.8528
  174SLPC  C31719758   5.352   1.163   5.006 -0.9778  0.1842 -0.1329
  174SLPC  H17X19759   5.278   1.201   4.933  0.7351  0.5864 -1.7491
  174SLPC  H17Y19760   5.312   1.065   5.039 -0.6920 -0.3270 -1.2728
  174SLPC  C31819761   5.498   1.159   4.954  0.3795  0.2240  0.2704
  174SLPC  H18X19762   5.558   1.101   5.027 -0.9726 -0.3370  0.9813
  174SLPC  H18Y19763   5.549   1.257   4.940 -0.4396  0.5975 -0.1825
  174SLPC  H18Z19764   5.521   1.108   4.858  0.1829 -0.4304  0.5663
  175SLPC     N19765   5.373   4.164   7.089 -0.6011  0.1581  0.3594
  175SLPC   C1319766   5.375   4.017   7.103  0.3205 -0.5232  0.4684
  175SLPC  H13A19767   5.385   3.995   7.208  3.1880  1.7427  0.8223
  175SLPC  H13B19768   5.284   3.976   7.061  2.4960 -1.7855 -3.5276
  175SLPC  H13C19769   5.453   3.975   7.041  0.3566  1.3738 -0.8741
  175SLPC   C1419770   5.263   4.227   7.176 -0.6906  0.6430 -0.3321
  175SLPC  H14A19771   5.260   4.334   7.165 -1.5339  0.6275 -0.2810
  175SLPC  H14B19772   5.169   4.179   7.150 -0.9191  0.0059  1.5111
  175SLPC  H14C19773   5.274   4.214   7.283 -0.1182  0.2753 -0.4315
  175SLPC   C1519774   5.337   4.197   6.952 -0.7903  0.2531 -0.6199
  175SLPC  H15A19775   5.256   4.137   6.912 -0.3689  0.3499 -1.6435
  175SLPC  H15B19776   5.311   4.301   6.943  0.1086  0.5744  0.3872
  175SLPC  H15C19777   5.421   4.174   6.889 -0.7737 -2.7709  0.3201
  175SLPC   C1219778   5.505   4.231   7.125 -0.0129 -0.5638 -0.1202
  175SLPC  H12A19779   5.548   4.193   7.217  0.6228  0.8915  0.2150
  175SLPC  H12B19780   5.487   4.337   7.141  0.4822 -0.8090  2.4918
  175SLPC   C1119781   5.618   4.223   7.018 -1.0026  0.5128  0.4146
  175SLPC  H11A19782   5.694   4.291   7.062  0.5136 -1.1419  0.4454
  175SLPC  H11B19783   5.594   4.281   6.927 -3.4510 -2.6750 -1.1756
  175SLPC     P19784   5.748   4.022   7.109 -0.5542  0.0099 -0.1278
  175SLPC   O1319785   5.840   4.120   7.167  0.5824  0.5420  0.0150
  175SLPC   O1419786   5.652   3.957   7.204  0.1345 -0.6001 -0.8257
  175SLPC   O1219787   5.662   4.091   6.994  0.2918 -0.1326 -0.3071
  175SLPC   O1119788   5.825   3.914   7.022  0.3358 -0.3643 -0.3442
  175SLPC    C119789   5.839   3.915   6.879  0.1244 -0.0981 -0.1520
  175SLPC    HA19790   5.882   3.816   6.852  1.7827  0.2133  1.2390
  175SLPC    HB19791   5.737   3.910   6.835 -0.3607 -0.0681  0.9540
  175SLPC    C219792   5.936   4.031   6.833  0.5517 -0.2048  0.0489
  175SLPC    HS19793   5.881   4.128   6.836 -0.2956 -0.5254 -2.6829
  175SLPC   O2119794   5.992   4.004   6.700  0.1244 -0.2475  0.0421
  175SLPC   C2119795   5.901   4.005   6.593  0.0314  0.8241 -0.1248
  175SLPC   O2219796   5.787   4.048   6.597 -0.9222 -0.1160  0.5002
  175SLPC   C2219797   5.973   3.964   6.464 -0.0291 -0.8249 -0.0119
  175SLPC   H2R19798   6.054   4.040   6.460 -0.7059 -0.0897 -0.0547
  175SLPC   H2S19799   6.025   3.867   6.477 -1.8546 -1.6140  2.0793
  175SLPC    C319800   6.058   4.035   6.918 -0.2887 -0.2928  0.3518
  175SLPC    HX19801   6.116   3.940   6.919  2.8544  1.4933 -0.4117
  175SLPC    HY19802   6.030   4.055   7.023 -3.0383  1.1321 -0.5582
  175SLPC   O3119803   6.158   4.125   6.872  0.2971  0.1211 -0.1651
  175SLPC   C3119804   6.122   4.250   6.885  0.3928 -0.3767  0.5419
  175SLPC   O3219805   6.029   4.296   6.944 -0.1728 -0.5015 -0.2389
  175SLPC   C3219806   6.235   4.333   6.813  0.6100  1.2573  0.2130
  175SLPC   H2X19807   6.308   4.262   6.768 -1.9659 -0.4838 -1.4786
  175SLPC   H2Y19808   6.290   4.395   6.887 -1.3546  1.6274  1.4327
  175SLPC   C2319809   5.888   3.985   6.340  0.0572 -0.1757  0.0200
  175SLPC   H3R19810   5.845   4.088   6.336 -2.5627 -1.2078 -0.3720
  175SLPC   H3S19811   5.795   3.925   6.333 -0.7474  0.7702  1.9725
  175SLPC   C2419812   5.952   3.975   6.208 -0.5676 -0.7535  0.2301
  175SLPC   H4R19813   6.059   4.005   6.207 -0.7565 -0.0232  0.9105
  175SLPC   H4S19814   5.905   4.045   6.135 -0.7185  0.0040  1.0334
  175SLPC   C2519815   5.939   3.841   6.139  0.3885 -0.5127 -0.5004
  175SLPC   H5R19816   5.838   3.825   6.096  1.3443  0.7765 -3.4557
  175SLPC   H5S19817   5.944   3.773   6.227  0.8629  0.9228  0.6304
  175SLPC   C2619818   6.052   3.819   6.036 -0.0481 -0.2192 -0.0632
  175SLPC   H6R19819   6.041   3.717   5.995 -2.7443  0.3983 -1.1270
  175SLPC   H6S19820   6.148   3.840   6.087 -0.5883  1.2863  0.3903
  175SLPC   C2719821   6.031   3.917   5.911  0.2602  1.1282 -0.4330
  175SLPC   H7R19822   6.011   4.016   5.958 -2.9045 -0.9886  3.2800
  175SLPC   H7S19823   5.942   3.882   5.854 -0.9515  1.1286  1.3954
  175SLPC   C2819824   6.147   3.921   5.815  0.2047  0.1737 -0.0352
  175SLPC   H8R19825   6.156   3.826   5.758  0.1007  0.1009  0.0694
  175SLPC   H8S19826   6.238   3.924   5.879 -0.4242  0.1762  0.8737
  175SLPC   C2919827   6.145   4.036   5.715  0.0833 -0.4347  0.1219
  175SLPC   H9R19828   6.169   4.136   5.752 -0.4857  0.1989 -1.1651
  175SLPC  C21019829   6.129   4.038   5.578  0.1324 -0.0368 -0.1107
  175SLPC  H10R19830   6.122   4.133   5.524  0.3128  0.2819  0.4227
  175SLPC  C21119831   6.124   3.918   5.482 -0.0245  0.6501 -0.5167
  175SLPC  H11R19832   6.101   3.819   5.529  0.3670  2.1902  3.2601
  175SLPC  H11S19833   6.228   3.900   5.448  0.7139 -1.3192  2.3893
  175SLPC  C21219834   6.029   3.936   5.369  0.1880  0.6327 -0.1780
  175SLPC  H12R19835   5.934   3.883   5.384 -1.8049  4.0246  0.3147
  175SLPC  C21319836   6.047   4.009   5.261 -0.2498 -0.0986 -0.8370
  175SLPC  H13R19837   5.973   4.014   5.180 -0.4324  1.6272 -0.6091
  175SLPC  C21419838   6.171   4.086   5.240 -0.8778  0.0883  0.2633
  175SLPC  H14R19839   6.256   4.037   5.293 -0.8664 -2.1452 -1.6946
  175SLPC  H14S19840   6.168   4.181   5.298 -1.1140 -0.3835  1.0426
  175SLPC  C21519841   6.209   4.107   5.092  0.1799 -1.0114  0.2909
  175SLPC  H15R19842   6.188   4.015   5.033 -0.2143 -0.4096 -0.5352
  175SLPC  H15S19843   6.315   4.138   5.078  0.3563 -1.1266  1.3282
  175SLPC  C21619844   6.121   4.220   5.034 -0.3195  0.4496 -0.0665
  175SLPC  H16R19845   6.114   4.295   5.115  0.6704  0.5842 -0.0950
  175SLPC  H16S19846   6.023   4.179   5.001 -0.6167  0.3803  0.8674
  175SLPC  C21719847   6.167   4.307   4.912  0.2712  0.1541 -0.0131
  175SLPC  H17R19848   6.270   4.347   4.923  0.0545  0.4590  0.9919
  175SLPC  H17S19849   6.099   4.395   4.911  0.3287  0.2783  2.2816
  175SLPC  C21819850   6.154   4.240   4.774 -0.0819  0.2389  0.0653
  175SLPC  H18R19851   6.177   4.321   4.701  1.2645  0.6281  0.8908
  175SLPC  H18S19852   6.052   4.201   4.757  0.0177  0.7506 -2.0398
  175SLPC  H18T19853   6.225   4.154   4.776  0.0739  0.3720  0.4430
  175SLPC   C3319854   6.174   4.417   6.690 -0.7422  0.2708 -1.1908
  175SLPC   H3X19855   6.132   4.504   6.745 -0.4337 -0.9897  1.1748
  175SLPC   H3Y19856   6.101   4.352   6.637 -2.4849  0.7573  0.4778
  175SLPC   C3419857   6.281   4.477   6.593 -0.4731  1.1558 -0.0277
  175SLPC   H4X19858   6.350   4.395   6.563  0.0951  1.6430 -0.0641
  175SLPC   H4Y19859   6.336   4.554   6.651 -1.1137  1.3391  0.3395
  175SLPC   C3519860   6.204   4.520   6.471 -0.1686  0.0803 -0.2767
  175SLPC   H5X19861   6.128   4.597   6.498  0.8335  1.0760 -0.1981
  175SLPC   H5Y19862   6.146   4.428   6.451 -1.6695  0.6159  1.2864
  175SLPC   C3619863   6.294   4.563   6.362 -0.0451 -0.0054  0.3478
  175SLPC   H6X19864   6.350   4.474   6.323 -0.2047 -0.6708  1.5900
  175SLPC   H6Y19865   6.376   4.627   6.399  0.3631  0.0010 -0.5341
  175SLPC   C3719866   6.224   4.601   6.228 -0.5582 -0.4242  1.2040
  175SLPC   H7X19867   6.163   4.692   6.244 -0.2334  0.3403 -1.5248
  175SLPC   H7Y19868   6.157   4.519   6.194  0.3162 -0.5603 -0.2437
  175SLPC   C3819869   6.317   4.640   6.113 -0.3998  0.0909  0.4401
  175SLPC   H8X19870   6.386   4.555   6.096 -1.3883 -0.5689 -0.4310
  175SLPC   H8Y19871   6.383   4.725   6.137 -1.9967  1.4459  0.2124
  175SLPC   C3919872   6.246   4.664   5.978 -0.0588  0.1792  0.4770
  175SLPC   H9X19873   6.158   4.726   6.003 -1.2561 -0.8850 -0.9478
  175SLPC   H9Y19874   6.211   4.565   5.942 -1.4588  0.6527  0.4937
  175SLPC  C31019875   6.344   4.714   5.875 -0.0560 -0.3289 -0.7209
  175SLPC  H10X19876   6.427   4.641   5.870 -1.8011 -2.3486 -1.5664
  175SLPC  H10Y19877   6.364   4.815   5.919 -3.1927  0.3844 -0.6795
  175SLPC  C31119878   6.296   4.744   5.731 -0.7661 -0.1090  0.3315
  175SLPC  H11X19879   6.361   4.828   5.700 -0.1862  0.4674  2.8961
  175SLPC  H11Y19880   6.193   4.786   5.730 -0.5714  0.4422 -2.0836
  175SLPC  C31219881   6.288   4.621   5.631 -0.6981 -0.9187 -0.6157
  175SLPC  H12X19882   6.187   4.576   5.646 -1.9247  1.3078 -1.6402
  175SLPC  H12Y19883   6.377   4.564   5.664  1.4573  2.4316 -0.1481
  175SLPC  C31319884   6.300   4.664   5.479 -0.6419  0.2940 -0.5918
  175SLPC  H13X19885   6.214   4.731   5.458 -1.1076 -0.1564 -0.1518
  175SLPC  H13Y19886   6.298   4.568   5.423  1.4828  0.3825 -0.8819
  175SLPC  C31419887   6.441   4.729   5.457  0.8695 -0.2361  0.5150
  175SLPC  H14X19888   6.515   4.651   5.484 -0.5241 -1.5696  0.6139
  175SLPC  H14Y19889   6.447   4.819   5.521 -1.5043  1.5078 -1.5017
  175SLPC  C31519890   6.443   4.758   5.303  0.7450  0.1924  0.4492
  175SLPC  H15X19891   6.394   4.673   5.249  0.4346  1.8456 -2.0564
  175SLPC  H15Y19892   6.544   4.768   5.258  0.6122 -0.8487 -0.1266
  175SLPC  C31619893   6.353   4.877   5.261  0.1718  0.2040 -0.1430
  175SLPC  H16X19894   6.368   4.959   5.336 -1.1085  0.6371 -0.3310
  175SLPC  H16Y19895   6.250   4.840   5.279  0.4638 -0.5901 -0.0769
  175SLPC  C31719896   6.375   4.921   5.117  0.2475 -0.3814 -0.4024
  175SLPC  H17X19897   6.452   5.001   5.110 -1.6173  1.3918 -2.0885
  175SLPC  H17Y19898   6.282   4.976   5.092  0.2741  0.7458  1.6909
  175SLPC  C31819899   6.379   4.811   5.012  0.3690  0.2946  0.3093
  175SLPC  H18X19900   6.393   4.856   4.911 -3.1481 -2.8377 -1.8461
  175SLPC  H18Y19901   6.283   4.757   5.024 -1.3315  2.9344 -0.6929
  175SLPC  H18Z19902   6.457   4.732   5.016 -1.6675 -1.8993 -0.6933
  176SLPC     N19903   1.595   2.010   7.167  0.4138  0.0196  0.6656
  176SLPC   C1319904   1.738   2.024   7.163  0.1101  0.0749  0.5279
  176SLPC  H13A19905   1.777   2.087   7.243  0.8825  0.5118 -0.1756
  176SLPC  H13B19906   1.782   1.925   7.164 -2.2595 -1.1008 -1.6221
  176SLPC  H13C19907   1.773   2.074   7.074  2.8073  0.1105  1.5002
  176SLPC   C1419908   1.539   2.149   7.168  0.5902  1.0539  0.1012
  176SLPC  H14A19909   1.587   2.205   7.247  0.6594  0.7455  0.2797
  176SLPC  H14B19910   1.552   2.205   7.076  0.5131 -0.2371 -0.7300
  176SLPC  H14C19911   1.433   2.146   7.188  0.4545 -0.0652 -0.6780
  176SLPC   C1519912   1.562   1.957   7.304  1.0145 -0.2709  0.4961
  176SLPC  H15A19913   1.576   2.031   7.382 -1.8645  0.0582  0.7874
  176SLPC  H15B19914   1.461   1.919   7.308 -0.7207  3.3205 -2.6455
  176SLPC  H15C19915   1.626   1.874   7.330 -0.0901 -1.2592  0.1055
  176SLPC   C1219916   1.554   1.918   7.052 -0.6938  0.8672 -0.0707
  176SLPC  H12A19917   1.624   1.835   7.050  0.6704  1.8739  2.4359
  176SLPC  H12B19918   1.591   1.970   6.965 -0.5689 -1.5051 -1.5270
  176SLPC   C1119919   1.406   1.879   7.031  0.2743 -0.4863  0.3232
  176SLPC  H11A19920   1.375   1.810   7.112 -0.2444  0.0828  0.6195
  176SLPC  H11B19921   1.397   1.821   6.937 -2.3146  0.4504 -0.1021
  176SLPC     P19922   1.312   2.076   6.881 -0.3133 -0.0753 -0.1538
  176SLPC   O1319923   1.320   2.223   6.909 -0.4081  0.6619 -0.8382
  176SLPC   O1419924   1.408   2.021   6.784 -0.4768  0.9364  0.4124
  176SLPC   O1219925   1.323   2.002   7.027 -0.3537 -0.2672 -0.0668
  176SLPC   O1119926   1.164   2.031   6.845  0.0573  0.8835 -0.2681
  176SLPC    C119927   1.130   1.922   6.759 -0.4810  0.5351  0.0542
  176SLPC    HA19928   1.214   1.851   6.743 -1.1511  0.2644 -2.9715
  176SLPC    HB19929   1.056   1.853   6.805 -2.0427  0.4541 -2.3724
  176SLPC    C219930   1.072   1.963   6.625  0.1240  0.2747 -0.0892
  176SLPC    HS19931   1.138   2.046   6.590 -0.9462  1.5945  0.9050
  176SLPC   O2119932   0.945   2.024   6.638 -0.2372 -0.7739  0.6478
  176SLPC   C2119933   0.918   2.141   6.578 -0.1009  0.4347  0.0249
  176SLPC   O2219934   0.997   2.205   6.510 -0.3661  0.5739  0.6230
  176SLPC   C2219935   0.771   2.185   6.608 -0.1330  1.1508  0.3269
  176SLPC   H2R19936   0.721   2.101   6.659  0.5290  0.4154 -0.1942
  176SLPC   H2S19937   0.766   2.271   6.678 -0.5547 -1.2516  3.4437
  176SLPC    C319938   1.072   1.863   6.510  0.1996 -0.1790 -0.0723
  176SLPC    HX19939   1.024   1.764   6.521  3.7220 -2.2089 -1.2604
  176SLPC    HY19940   1.179   1.837   6.496  0.3017  0.2152 -0.0263
  176SLPC   O3119941   1.022   1.926   6.394  0.1447 -0.0843 -0.5193
  176SLPC   C3119942   1.104   1.985   6.309 -0.3338  0.3150 -0.0459
  176SLPC   O3219943   1.226   1.975   6.314 -0.4570  0.7368  0.7763
  176SLPC   C3219944   1.020   2.058   6.197 -0.1959  0.2948  0.3381
  176SLPC   H2X19945   0.926   2.080   6.253 -0.6765  0.3841 -0.4895
  176SLPC   H2Y19946   0.995   1.984   6.118  0.4582 -0.2922  0.6639
  176SLPC   C2319947   0.711   2.230   6.475  0.6528 -0.1716 -0.0417
  176SLPC   H3R19948   0.728   2.152   6.398  0.8449 -0.5773  0.4103
  176SLPC   H3S19949   0.754   2.328   6.445  2.2553 -0.4628  1.2349
  176SLPC   C2419950   0.563   2.247   6.498  0.0813 -0.1810 -0.1677
  176SLPC   H4R19951   0.535   2.293   6.595 -0.4402  0.1935 -0.4937
  176SLPC   H4S19952   0.512   2.148   6.497  1.0016 -0.7788  2.4215
  176SLPC   C2519953   0.493   2.336   6.393 -0.1855 -0.7556 -0.2547
  176SLPC   H5R19954   0.535   2.298   6.297  0.3734 -0.6080 -0.0733
  176SLPC   H5S19955   0.534   2.440   6.395  2.1025 -1.5690 -0.9610
  176SLPC   C2619956   0.340   2.337   6.399 -0.3048  0.1594  0.1872
  176SLPC   H6R19957   0.323   2.379   6.501 -2.7490  2.5891 -1.0856
  176SLPC   H6S19958   0.304   2.235   6.374 -0.6777  0.2014  0.5414
  176SLPC   C2719959   0.269   2.430   6.295 -0.0499 -0.6510 -0.1540
  176SLPC   H7R19960   0.279   2.538   6.322 -3.9518  0.3099 -1.8967
  176SLPC   H7S19961   0.160   2.414   6.310 -0.1796 -0.7615 -1.1348
  176SLPC   C2819962   0.308   2.419   6.149 -0.3021 -0.0035 -0.3578
  176SLPC   H8R19963   0.415   2.429   6.122 -0.3514  0.4637 -0.3980
  176SLPC   H8S19964   0.273   2.509   6.093  1.2703  0.2863 -0.9423
  176SLPC   C2919965   0.253   2.294   6.085 -0.4826  0.1149  0.5066
  176SLPC   H9R19966   0.253   2.214   6.161  0.1434  0.7006  1.1382
  176SLPC  C21019967   0.179   2.284   5.971 -0.0681 -0.2761 -0.3137
  176SLPC  H10R19968   0.149   2.182   5.944  2.2225 -0.6412 -1.7067
  176SLPC  C21119969   0.137   2.399   5.877 -0.1361  0.7708 -0.0228
  176SLPC  H11R19970   0.232   2.453   5.855 -0.4531  1.2249 -0.2815
  176SLPC  H11S19971   0.074   2.478   5.923 -1.8408  0.1239 -1.1589
  176SLPC  C21219972   0.069   2.342   5.749  0.7262 -0.5657 -0.6819
  176SLPC  H12R19973  -0.033   2.310   5.774 -0.0594  2.8277  0.9939
  176SLPC  C21319974   0.120   2.331   5.624 -0.5163 -0.5299 -0.0609
  176SLPC  H13R19975   0.048   2.297   5.548 -2.1476  1.9727  0.2293
  176SLPC  C21419976   0.255   2.385   5.586  0.4505  0.0353 -0.0345
  176SLPC  H14R19977   0.342   2.330   5.628 -0.0768  0.5544  1.8069
  176SLPC  H14S19978   0.256   2.486   5.631  3.1483 -0.0322  0.1991
  176SLPC  C21519979   0.264   2.402   5.432  0.2222 -0.0776 -0.3248
  176SLPC  H15R19980   0.354   2.464   5.411 -0.1708  0.4368 -0.5279
  176SLPC  H15S19981   0.176   2.457   5.392  0.6209 -0.7324 -2.1946
  176SLPC  C21619982   0.279   2.273   5.347 -0.1242 -0.0245  0.4633
  176SLPC  H16R19983   0.177   2.233   5.331 -0.5469  1.8359 -2.0730
  176SLPC  H16S19984   0.350   2.198   5.388  0.1514 -0.2285 -0.3556
  176SLPC  C21719985   0.319   2.308   5.208 -0.3540  0.1177  0.3777
  176SLPC  H17R19986   0.423   2.347   5.206 -0.0169 -0.7508 -0.8555
  176SLPC  H17S19987   0.250   2.383   5.163  1.0870  1.1196 -0.2063
  176SLPC  C21819988   0.309   2.175   5.131  0.2020 -0.8223 -0.2356
  176SLPC  H18R19989   0.372   2.102   5.186 -0.7327 -0.3054  1.6259
  176SLPC  H18S19990   0.345   2.188   5.027 -0.0055 -0.8042 -0.3051
  176SLPC  H18T19991   0.201   2.149   5.134 -0.0462 -0.2350 -2.4076
  176SLPC   C3319992   1.064   2.199   6.151  0.0739  0.1371 -0.2452
  176SLPC   H3X19993   1.082   2.268   6.237 -0.5515  0.8071 -0.6384
  176SLPC   H3Y19994   0.981   2.247   6.094  1.3074  0.3548 -1.9238
  176SLPC   C3419995   1.203   2.204   6.075 -0.0138  0.3274 -0.4023
  176SLPC   H4X19996   1.276   2.141   6.130  1.0156  2.1111  0.3558
  176SLPC   H4Y19997   1.227   2.311   6.066 -1.4095  0.6895 -0.1264
  176SLPC   C3519998   1.190   2.151   5.925  0.5017 -0.4508 -0.3484
  176SLPC   H5X19999   1.140   2.051   5.923  0.3205 -0.4531  1.5746
  176SLPC   H5Y20000   1.294   2.141   5.888 -0.3556 -4.0802 -2.2630
  176SLPC   C3620001   1.107   2.252   5.840 -0.1506  0.5544 -0.5196
  176SLPC   H6X20002   1.146   2.356   5.848  3.2150 -0.6955  1.8350
  176SLPC   H6Y20003   0.999   2.253   5.868 -0.6985  2.4734 -2.4664
  176SLPC   C3720004   1.122   2.213   5.694 -0.4722  0.7482  0.0490
  176SLPC   H7X20005   1.040   2.145   5.663  0.1100  0.2719 -0.4765
  176SLPC   H7Y20006   1.216   2.157   5.675 -0.5518  0.6882 -0.1765
  176SLPC   C3820007   1.104   2.330   5.597  0.2039 -0.5615  0.4650
  176SLPC   H8X20008   1.171   2.415   5.619 -0.8683  0.4223  0.0132
  176SLPC   H8Y20009   1.000   2.370   5.596 -0.7506 -2.7968 -1.2207
  176SLPC   C3920010   1.125   2.284   5.450  0.3276  0.7425 -0.6211
  176SLPC   H9X20011   1.056   2.199   5.433 -0.0983  0.8327  0.5439
  176SLPC   H9Y20012   1.228   2.245   5.433  0.6511  1.3935 -0.2314
  176SLPC  C31020013   1.104   2.391   5.352  0.2934 -0.5414 -0.4782
  176SLPC  H10X20014   1.179   2.471   5.365 -0.7989  1.0740 -3.2090
  176SLPC  H10Y20015   1.004   2.436   5.373  1.2151  0.1563  3.0706
  176SLPC  C31120016   1.103   2.342   5.207 -0.0956 -0.2170  1.0854
  176SLPC  H11X20017   1.032   2.257   5.207 -2.8156  1.9084  1.0355
  176SLPC  H11Y20018   1.205   2.301   5.190  0.7289  0.8423  3.0634
  176SLPC  C31220019   1.070   2.449   5.097  0.1039  0.8267  0.1463
  176SLPC  H12X20020   1.099   2.402   5.001 -1.5353  0.9408 -0.4318
  176SLPC  H12Y20021   1.132   2.541   5.108 -2.2528  2.5121 -0.0189
  176SLPC  C31320022   0.924   2.491   5.095  0.2652 -0.9417 -0.0893
  176SLPC  H13X20023   0.904   2.543   5.191  0.1474 -2.3897  0.6921
  176SLPC  H13Y20024   0.853   2.406   5.102  2.3007 -2.8963 -1.8566
  176SLPC  C31420025   0.896   2.578   4.968 -0.1890  0.5569 -0.1609
  176SLPC  H14X20026   0.920   2.500   4.892 -1.8710 -1.7163  1.5116
  176SLPC  H14Y20027   0.962   2.667   4.958 -0.5448  1.0866  1.8584
  176SLPC  C31520028   0.744   2.622   4.956 -0.1865  0.1901 -0.3296
  176SLPC  H15X20029   0.717   2.650   5.060  1.5901  0.0576  0.1887
  176SLPC  H15Y20030   0.688   2.530   4.928  0.0298 -0.6485  1.8117
  176SLPC  C31620031   0.714   2.743   4.854 -0.6917 -0.0014  0.3159
  176SLPC  H16X20032   0.770   2.726   4.759 -0.7348 -0.4908  0.3748
  176SLPC  H16Y20033   0.761   2.826   4.911 -1.2610 -1.5188  3.1972
  176SLPC  C31720034   0.565   2.761   4.819  0.1103  0.5767 -1.1578
  176SLPC  H17X20035   0.496   2.756   4.906 -2.3637 -0.7597 -3.1011
  176SLPC  H17Y20036   0.536   2.674   4.757  2.0292 -0.3402 -0.8428
  176SLPC  C31820037   0.544   2.887   4.746  0.3633 -0.6555 -0.2690
  176SLPC  H18X20038   0.559   2.982   4.803 -1.8568  0.6717 -1.7065
  176SLPC  H18Y20039   0.437   2.892   4.714  0.7225 -3.5987 -2.2401
  176SLPC  H18Z20040   0.605   2.896   4.654  0.5239 -0.8467 -0.1797
  177SLPC     N20041   6.644   3.422   7.652  0.6285  0.4301  0.3633
  177SLPC   C1320042   6.525   3.330   7.640  0.3199 -0.3253 -0.1664
  177SLPC  H13A20043   6.432   3.384   7.632  0.3758 -0.2708 -0.4651
  177SLPC  H13B20044   6.539   3.275   7.548 -2.4558  1.0622 -1.5326
  177SLPC  H13C20045   6.522   3.268   7.728  1.2398  1.6867  1.3763
  177SLPC   C1420046   6.762   3.331   7.679 -0.5202 -0.5213 -0.4650
  177SLPC  H14A20047   6.851   3.392   7.674 -1.4007  0.9052  0.6668
  177SLPC  H14B20048   6.758   3.274   7.771  1.9651 -2.1876 -1.2830
  177SLPC  H14C20049   6.777   3.257   7.601  2.2861 -2.8648  2.0390
  177SLPC   C1520050   6.632   3.514   7.768 -0.0839  0.4851 -0.1977
  177SLPC  H15A20051   6.641   3.456   7.859 -0.7125 -2.7726 -2.0534
  177SLPC  H15B20052   6.717   3.581   7.768  0.9618 -0.7596 -1.8731
  177SLPC  H15C20053   6.542   3.572   7.753  0.1320  0.1348 -3.7418
  177SLPC   C1220054   6.665   3.506   7.527 -0.4920 -0.0901 -0.4693
  177SLPC  H12A20055   6.749   3.572   7.543  0.1097 -1.3347  1.8322
  177SLPC  H12B20056   6.572   3.559   7.511 -0.5395  0.1011  0.4085
  177SLPC   C1120057   6.679   3.427   7.398  0.0372 -0.6011  0.0787
  177SLPC  H11A20058   6.657   3.495   7.313 -1.4342 -0.4090  0.5731
  177SLPC  H11B20059   6.598   3.350   7.391 -0.2082 -0.2962 -0.5304
  177SLPC     P20060   6.925   3.435   7.355 -0.3491 -0.2923 -0.0858
  177SLPC   O1320061   6.912   3.572   7.410  0.1611  0.5441  0.1660
  177SLPC   O1420062   7.051   3.366   7.390  0.1747 -0.8159 -0.2952
  177SLPC   O1220063   6.795   3.352   7.381 -0.5047  0.0947 -0.0992
  177SLPC   O1120064   6.911   3.446   7.197 -0.5916 -0.2519 -0.1807
  177SLPC    C120065   6.910   3.331   7.115 -0.4179  0.4536  0.3670
  177SLPC    HA20066   6.896   3.239   7.175 -0.5464  0.3866  0.2347
  177SLPC    HB20067   6.822   3.339   7.047 -2.2976 -1.4115  2.4281
  177SLPC    C220068   7.024   3.321   7.021 -0.5459 -0.2588  0.0302
  177SLPC    HS20069   7.115   3.312   7.085  0.4306 -1.2999 -1.4267
  177SLPC   O2120070   7.029   3.442   6.941  0.2321 -0.3204 -0.2080
  177SLPC   C2120071   7.150   3.452   6.881 -0.7838  0.3513  0.5445
  177SLPC   O2220072   7.253   3.395   6.905 -0.2236  0.0195 -0.0329
  177SLPC   C2220073   7.138   3.550   6.763  0.1410  0.9734  0.0790
  177SLPC   H2R20074   7.096   3.513   6.667  0.2073 -2.9849  1.3886
  177SLPC   H2S20075   7.085   3.642   6.795  0.6580  1.4838 -0.5161
  177SLPC    C320076   7.027   3.189   6.936 -0.1485 -0.2424 -0.0466
  177SLPC    HX20077   7.028   3.119   7.022 -0.5253  1.2030  1.1867
  177SLPC    HY20078   7.123   3.181   6.881  0.9189  2.6689  1.1936
  177SLPC   O3120079   6.906   3.164   6.859 -0.5490 -0.1932  0.3920
  177SLPC   C3120080   6.900   3.225   6.733  0.6237  0.2127 -0.2052
  177SLPC   O3220081   6.982   3.297   6.683 -0.1145 -0.0192  0.1511
  177SLPC   C3220082   6.773   3.185   6.663  0.2619 -0.0034  0.0710
  177SLPC   H2X20083   6.703   3.239   6.731  1.4639 -0.4258  1.7152
  177SLPC   H2Y20084   6.754   3.077   6.681  1.0809 -0.6420 -2.5480
  177SLPC   C2320085   7.281   3.597   6.730 -0.0092  0.2574 -0.1944
  177SLPC   H3R20086   7.281   3.676   6.652 -1.6911  0.0462 -0.4388
  177SLPC   H3S20087   7.348   3.511   6.709 -0.3383  0.0505 -0.3943
  177SLPC   C2420088   7.360   3.672   6.848 -0.2766  0.2333 -0.8211
  177SLPC   H4R20089   7.376   3.614   6.941 -0.6854  2.9571  1.0932
  177SLPC   H4S20090   7.297   3.756   6.887 -0.5245 -0.2761 -0.1040
  177SLPC   C2520091   7.493   3.731   6.816  0.6200  0.4936  0.0533
  177SLPC   H5R20092   7.559   3.652   6.774  2.3818  2.0834 -0.3036
  177SLPC   H5S20093   7.534   3.763   6.914  0.5383 -0.5594  0.4383
  177SLPC   C2620094   7.483   3.848   6.720  0.7213 -0.2831  0.2226
  177SLPC   H6R20095   7.418   3.929   6.759 -1.8425 -2.5489  1.0112
  177SLPC   H6S20096   7.442   3.817   6.622  0.0562  1.3092 -0.0296
  177SLPC   C2720097   7.618   3.917   6.691 -0.3582  0.6836  0.1734
  177SLPC   H7R20098   7.691   3.855   6.636 -1.1803  1.8210 -2.3405
  177SLPC   H7S20099   7.660   3.930   6.793 -1.3017 -1.5801  0.9069
  177SLPC   C2820100   7.605   4.055   6.632 -0.1272  1.3582 -0.9551
  177SLPC   H8R20101   7.560   4.129   6.701 -0.2862  1.6772 -1.3985
  177SLPC   H8S20102   7.525   4.053   6.555 -0.3265 -1.3234 -0.7889
  177SLPC   C2920103   7.732   4.095   6.575  0.0448  0.9367  0.7550
  177SLPC   H9R20104   7.820   4.092   6.640  0.6984 -0.5157 -0.1481
  177SLPC  C21020105   7.758   4.106   6.440  0.4000 -0.0629 -0.0619
  177SLPC  H10R20106   7.861   4.137   6.416  1.7150 -2.1998  2.3729
  177SLPC  C21120107   7.664   4.099   6.329  0.1629 -0.6214 -0.6472
  177SLPC  H11R20108   7.592   4.182   6.347  0.2829 -0.6866  0.1528
  177SLPC  H11S20109   7.616   3.999   6.334 -1.5553  0.2134  0.3998
  177SLPC  C21220110   7.715   4.128   6.188  0.1899 -0.3965  0.2605
  177SLPC  H12R20111   7.811   4.181   6.172 -0.4441  0.8048  0.3043
  177SLPC  C21320112   7.647   4.101   6.077 -0.6532 -0.0479  0.0342
  177SLPC  H13R20113   7.686   4.143   5.984 -1.3264 -3.0984 -1.7670
  177SLPC  C21420114   7.502   4.054   6.066 -0.9313 -0.0777  0.1058
  177SLPC  H14R20115   7.445   4.096   5.981  1.6359  2.6313 -0.4355
  177SLPC  H14S20116   7.449   4.084   6.159 -1.9679 -0.9364 -0.1862
  177SLPC  C21520117   7.505   3.896   6.066 -1.0584  0.6740 -0.8020
  177SLPC  H15R20118   7.531   3.862   6.169  1.4775  2.0541 -0.9074
  177SLPC  H15S20119   7.584   3.858   5.999 -2.2244  1.1782 -2.5235
  177SLPC  C21620120   7.378   3.832   6.018 -0.1258  0.2795 -0.3489
  177SLPC  H16R20121   7.409   3.727   6.001 -0.0625  0.1097  0.7517
  177SLPC  H16S20122   7.344   3.876   5.921 -0.2626  2.5936  0.6844
  177SLPC  C21720123   7.263   3.830   6.122 -0.1712  0.2073 -0.6794
  177SLPC  H17R20124   7.308   3.790   6.215  1.1927  0.3745 -1.2515
  177SLPC  H17S20125   7.191   3.748   6.100 -0.6717  0.2154  0.8089
  177SLPC  C21820126   7.172   3.957   6.133  0.6644  0.1654  0.2996
  177SLPC  H18R20127   7.112   3.968   6.040 -0.9563 -4.0266  0.6286
  177SLPC  H18S20128   7.234   4.047   6.154  2.0957 -0.4381 -1.1270
  177SLPC  H18T20129   7.101   3.938   6.216  0.9122  0.7005  0.6368
  177SLPC   C3320130   6.777   3.213   6.506 -0.4167  1.0547 -0.2459
  177SLPC   H3X20131   6.877   3.204   6.460 -1.1906  1.4525 -2.1007
  177SLPC   H3Y20132   6.753   3.321   6.494  0.2687  1.0577 -1.7558
  177SLPC   C3420133   6.682   3.130   6.421  0.0815  0.6902 -0.1729
  177SLPC   H4X20134   6.583   3.136   6.471  0.6499 -2.3711  1.5132
  177SLPC   H4Y20135   6.712   3.024   6.407  0.0261  0.7481 -0.7962
  177SLPC   C3520136   6.668   3.173   6.282  0.4875  0.4826  0.2210
  177SLPC   H5X20137   6.765   3.160   6.229 -0.4249 -0.5148 -1.3140
  177SLPC   H5Y20138   6.654   3.283   6.282  1.3226  0.6592 -2.4304
  177SLPC   C3620139   6.553   3.101   6.208  0.0688  0.3065 -0.3162
  177SLPC   H6X20140   6.453   3.103   6.257 -0.6631  0.0672 -1.7640
  177SLPC   H6Y20141   6.595   2.998   6.199 -1.5685 -0.3824 -0.4221
  177SLPC   C3720142   6.543   3.163   6.069 -0.4430  0.3688 -0.4289
  177SLPC   H7X20143   6.526   3.272   6.082  2.2577  0.8489 -0.2172
  177SLPC   H7Y20144   6.461   3.105   6.022 -2.6823  1.9327  1.2965
  177SLPC   C3820145   6.661   3.140   5.972  0.2297 -0.1880  0.6639
  177SLPC   H8X20146   6.704   3.038   5.987  0.9631 -0.5187 -2.8157
  177SLPC   H8Y20147   6.748   3.206   5.991  0.9478  0.1812 -3.1613
  177SLPC   C3920148   6.639   3.153   5.819 -0.2012 -0.0160  0.5291
  177SLPC   H9X20149   6.568   3.237   5.804  1.3748  1.0896 -0.9193
  177SLPC   H9Y20150   6.589   3.063   5.776  0.2282  0.6532 -1.4509
  177SLPC  C31020151   6.768   3.188   5.744 -0.1345  0.1714 -0.3399
  177SLPC  H10X20152   6.841   3.105   5.755  0.1513  0.2958 -1.2589
  177SLPC  H10Y20153   6.804   3.277   5.800 -2.6647  0.3062  1.2253
  177SLPC  C31120154   6.742   3.210   5.595 -0.3618  0.2171 -0.2044
  177SLPC  H11X20155   6.670   3.293   5.579  0.6797  1.3054  0.5878
  177SLPC  H11Y20156   6.686   3.120   5.563 -1.6078  0.7383  0.4372
  177SLPC  C31220157   6.863   3.230   5.505 -0.0750  0.6540 -0.2956
  177SLPC  H12X20158   6.926   3.140   5.518 -0.8816 -0.0009 -0.7559
  177SLPC  H12Y20159   6.908   3.327   5.536  0.2290  0.8041 -1.1648
  177SLPC  C31320160   6.836   3.233   5.350 -0.2344  0.3562 -0.0004
  177SLPC  H13X20161   6.762   3.314   5.333 -1.7799 -0.7556  1.2043
  177SLPC  H13Y20162   6.777   3.141   5.331  0.3475  0.1198 -0.7117
  177SLPC  C31420163   6.963   3.245   5.273  0.1894 -0.1142  0.3235
  177SLPC  H14X20164   7.025   3.156   5.297  0.4354 -0.0255  0.0153
  177SLPC  H14Y20165   7.011   3.336   5.314 -1.4495  0.7108  0.5006
  177SLPC  C31520166   6.948   3.237   5.118  0.1112  0.2875 -0.5925
  177SLPC  H15X20167   6.876   3.316   5.087 -1.0774  0.1844  1.6847
  177SLPC  H15Y20168   6.907   3.136   5.094  0.7376  0.0074 -0.4833
  177SLPC  C31620169   7.077   3.240   5.045 -0.1733  0.1721 -0.8725
  177SLPC  H16X20170   7.124   3.140   5.053 -2.6584 -0.9583  1.0294
  177SLPC  H16Y20171   7.150   3.308   5.094  0.6070  0.3690 -2.2745
  177SLPC  C31720172   7.074   3.278   4.897  0.2104  0.4475 -0.0760
  177SLPC  H17X20173   7.177   3.295   4.859  0.7647 -1.7962  0.3216
  177SLPC  H17Y20174   7.005   3.365   4.887  0.1270  0.9735  3.6784
  177SLPC  C31820175   7.021   3.161   4.815  0.8373 -0.7267  0.4018
  177SLPC  H18X20176   6.912   3.144   4.826  0.6781 -0.3378 -0.4757
  177SLPC  H18Y20177   7.065   3.063   4.845 -0.0565 -1.5045 -0.7638
  177SLPC  H18Z20178   7.034   3.171   4.705  0.1046  0.8014  0.4358
  178SLPC     N20179   5.310   0.726   7.236  0.4133 -0.5518 -0.2367
  178SLPC   C1320180   5.397   0.681   7.132 -0.4145 -0.0838  0.5883
  178SLPC  H13A20181   5.427   0.754   7.059  3.0994 -2.5556 -0.7371
  178SLPC  H13B20182   5.500   0.662   7.159  0.7040  1.1332 -2.3884
  178SLPC  H13C20183   5.353   0.600   7.076 -2.6111 -1.0692  3.4573
  178SLPC   C1420184   5.371   0.846   7.309 -0.4721 -0.9636  0.0703
  178SLPC  H14A20185   5.432   0.910   7.247 -2.9236  1.7148  0.2013
  178SLPC  H14B20186   5.303   0.904   7.370 -1.2104  0.9129 -2.3766
  178SLPC  H14C20187   5.445   0.813   7.380  2.9572  0.8810 -2.3529
  178SLPC   C1520188   5.298   0.611   7.334  0.0468 -0.1251  0.0027
  178SLPC  H15A20189   5.291   0.519   7.278 -1.6525  0.6168 -1.0753
  178SLPC  H15B20190   5.381   0.607   7.403  0.5891 -0.9705 -0.6775
  178SLPC  H15C20191   5.207   0.626   7.390 -1.0974  2.6417 -2.3785
  178SLPC   C1220192   5.172   0.753   7.179  0.1278 -0.2512  0.4100
  178SLPC  H12A20193   5.134   0.664   7.132 -0.5812  0.6034 -0.6816
  178SLPC  H12B20194   5.167   0.820   7.094 -0.0230 -0.3815  0.3141
  178SLPC   C1120195   5.054   0.806   7.267 -0.7113 -0.8156  0.1128
  178SLPC  H11A20196   5.036   0.727   7.343  2.0276 -2.3705 -0.7282
  178SLPC  H11B20197   4.961   0.821   7.209 -1.6593 -0.7908  1.5774
  178SLPC     P20198   5.080   1.073   7.262 -0.2906 -0.4713 -0.1888
  178SLPC   O1320199   4.939   1.117   7.279  0.1357 -0.9064  0.0398
  178SLPC   O1420200   5.184   1.162   7.316  0.2559 -0.4946  0.3817
  178SLPC   O1220201   5.093   0.928   7.330 -0.1665  0.2855  0.0610
  178SLPC   O1120202   5.118   1.043   7.115  0.5387 -0.5128  0.0015
  178SLPC    C120203   5.250   1.072   7.065 -0.8095  0.6229  0.2159
  178SLPC    HA20204   5.251   1.178   7.032  0.4627  1.0820  1.6074
  178SLPC    HB20205   5.340   1.051   7.127  2.0756  0.0563 -3.8126
  178SLPC    C220206   5.280   0.986   6.942 -0.2978  0.3611 -0.0878
  178SLPC    HS20207   5.283   0.882   6.982  0.0084  0.7745  1.0148
  178SLPC   O2120208   5.400   1.028   6.879  0.4165  0.3362 -0.1763
  178SLPC   C2120209   5.484   0.938   6.844 -0.7123  0.5375  0.5427
  178SLPC   O2220210   5.471   0.817   6.859  0.4969  0.0481  0.7303
  178SLPC   C2220211   5.610   1.002   6.776  0.7289  0.9535 -0.8727
  178SLPC   H2R20212   5.621   1.106   6.814 -0.9502  0.0672  2.4194
  178SLPC   H2S20213   5.695   0.942   6.816 -0.4534 -1.3363 -1.6551
  178SLPC    C320214   5.168   0.985   6.835  1.0692  0.1732  0.1498
  178SLPC    HX20215   5.165   1.089   6.797  0.4714 -0.4799 -1.6884
  178SLPC    HY20216   5.071   0.953   6.878  0.3123 -0.3593 -1.8172
  178SLPC   O3120217   5.196   0.888   6.727 -0.4298 -0.2632  0.2589
  178SLPC   C3120218   5.158   0.765   6.745  0.5142  0.0549  0.5120
  178SLPC   O3220219   5.085   0.722   6.837 -0.2659 -0.3142  0.5478
  178SLPC   C3220220   5.215   0.673   6.632  0.3476  0.0883  0.0199
  178SLPC   H2X20221   5.165   0.576   6.655 -1.5414  1.6234  2.9849
  178SLPC   H2Y20222   5.323   0.664   6.656  0.3277  0.6330  0.3257
  178SLPC   C2320223   5.609   0.986   6.623  0.6513  0.4944  0.5089
  178SLPC   H3R20224   5.685   1.055   6.580 -0.5713  1.8893  0.5019
  178SLPC   H3S20225   5.510   1.009   6.577  0.2728 -2.7360 -0.5416
  178SLPC   C2420226   5.645   0.846   6.575  0.5460  0.7483 -0.4070
  178SLPC   H4R20227   5.563   0.771   6.568  1.4845 -0.2224 -1.2978
  178SLPC   H4S20228   5.722   0.821   6.651 -0.7042 -0.0385  0.6658
  178SLPC   C2520229   5.713   0.841   6.436  0.2760  0.2779 -0.3771
  178SLPC   H5R20230   5.768   0.745   6.436  0.7001  0.5190 -0.2407
  178SLPC   H5S20231   5.791   0.920   6.429 -2.8234  3.4622 -2.1385
  178SLPC   C2620232   5.621   0.851   6.313  0.2663  0.0646  0.1678
  178SLPC   H6R20233   5.577   0.953   6.317 -0.7200 -0.2854 -0.9494
  178SLPC   H6S20234   5.546   0.771   6.331  2.4031 -1.8221  1.0247
  178SLPC   C2720235   5.696   0.827   6.183 -0.2055  0.0582  0.6981
  178SLPC   H7R20236   5.718   0.720   6.163  0.6614  0.3291  0.1321
  178SLPC   H7S20237   5.790   0.886   6.192 -0.1826 -0.0173  0.9595
  178SLPC   C2820238   5.635   0.899   6.064  0.1041  0.7635 -0.4153
  178SLPC   H8R20239   5.697   0.887   5.973 -0.8763 -0.6658 -0.9424
  178SLPC   H8S20240   5.613   1.006   6.081 -0.7177  0.5937 -0.3349
  178SLPC   C2920241   5.499   0.837   6.043 -0.2405  0.9328 -0.6384
  178SLPC   H9R20242   5.427   0.887   6.110  0.3810 -1.2341  1.8277
  178SLPC  C21020243   5.469   0.724   5.970 -0.8068  0.9134 -0.3185
  178SLPC  H10R20244   5.365   0.692   5.955  0.1468 -1.6766 -2.1464
  178SLPC  C21120245   5.576   0.645   5.897  0.3872  0.0034 -0.1097
  178SLPC  H11R20246   5.666   0.624   5.959 -1.1788  1.1455  2.7021
  178SLPC  H11S20247   5.606   0.704   5.808  1.1625 -0.4518 -0.1590
  178SLPC  C21220248   5.510   0.517   5.845  0.1791  0.7795  0.1251
  178SLPC  H12R20249   5.543   0.427   5.899 -3.3562 -0.7438  0.0242
  178SLPC  C21320250   5.427   0.503   5.733  0.1163 -0.2540 -0.1476
  178SLPC  H13R20251   5.377   0.406   5.717  1.0702 -0.7565 -0.2155
  178SLPC  C21420252   5.383   0.611   5.639  0.4704  0.1172  0.1947
  178SLPC  H14R20253   5.383   0.710   5.689  1.7485 -0.3031  1.0570
  178SLPC  H14S20254   5.280   0.591   5.601  0.9469  0.5853 -1.4223
  178SLPC  C21520255   5.464   0.627   5.514  0.0838  0.4040  0.1742
  178SLPC  H15R20256   5.485   0.532   5.461  0.7310 -0.1681  1.4072
  178SLPC  H15S20257   5.566   0.657   5.546  0.1326  0.6266 -0.1811
  178SLPC  C21620258   5.408   0.735   5.425  0.6463  0.8973  1.1486
  178SLPC  H16R20259   5.370   0.823   5.481 -0.1804  0.6930  0.9213
  178SLPC  H16S20260   5.323   0.699   5.364  0.5563  1.9533  0.6197
  178SLPC  C21720261   5.512   0.777   5.324 -0.5375  0.9711 -0.4119
  178SLPC  H17R20262   5.544   0.685   5.270 -4.1133 -0.5390 -0.2622
  178SLPC  H17S20263   5.600   0.831   5.364 -1.1691  2.4500 -0.9471
  178SLPC  C21820264   5.454   0.859   5.206 -0.3764 -0.9810  0.2465
  178SLPC  H18R20265   5.443   0.965   5.234 -0.8151 -0.8278 -0.4820
  178SLPC  H18S20266   5.356   0.828   5.163 -0.7842  2.2192 -1.4585
  178SLPC  H18T20267   5.528   0.872   5.124 -0.0160  2.9775  1.0094
  178SLPC   C3320268   5.193   0.732   6.489 -0.0403 -0.1973  0.2742
  178SLPC   H3X20269   5.268   0.814   6.483 -1.0292  0.7024 -0.3624
  178SLPC   H3Y20270   5.096   0.787   6.487  0.7046  1.3472 -3.7720
  178SLPC   C3420271   5.177   0.643   6.360 -0.4177 -0.3016  0.5650
  178SLPC   H4X20272   5.088   0.580   6.385 -0.8507 -0.1954 -0.6549
  178SLPC   H4Y20273   5.265   0.578   6.341  1.1475  1.2449  2.1229
  178SLPC   C3520274   5.158   0.727   6.235 -0.5014 -0.6405 -0.1177
  178SLPC   H5X20275   5.252   0.781   6.211 -0.9045 -1.3355 -3.8778
  178SLPC   H5Y20276   5.075   0.801   6.241 -0.3318 -0.4993  0.4573
  178SLPC   C3620277   5.125   0.642   6.119  0.6115 -0.0505 -0.0366
  178SLPC   H6X20278   5.049   0.576   6.165 -0.4668  1.0312 -0.1886
  178SLPC   H6Y20279   5.214   0.580   6.097 -1.3572 -3.1852  0.1944
  178SLPC   C3720280   5.077   0.724   5.991 -0.0567  1.4047  0.5172
  178SLPC   H7X20281   5.136   0.817   5.982  1.5808  0.2815 -0.9922
  178SLPC   H7Y20282   4.971   0.751   6.012 -0.2721  1.6123 -0.7800
  178SLPC   C3820283   5.074   0.634   5.863  0.2704 -0.4777  0.4651
  178SLPC   H8X20284   5.026   0.543   5.906  0.2374 -0.3199  0.7624
  178SLPC   H8Y20285   5.178   0.609   5.832 -0.3078 -2.3435 -0.1000
  178SLPC   C3920286   4.979   0.687   5.746  0.6941  0.1668  0.6061
  178SLPC   H9X20287   4.884   0.710   5.798  0.8431  2.3007  0.0153
  178SLPC   H9Y20288   4.962   0.593   5.689 -1.5164  0.1945  1.1269
  178SLPC  C31020289   5.034   0.800   5.660  0.6967 -0.1179 -0.0670
  178SLPC  H10X20290   5.138   0.777   5.626  0.6819  1.6761 -1.4390
  178SLPC  H10Y20291   5.036   0.886   5.731 -1.0044 -0.5690  0.5616
  178SLPC  C31120292   4.945   0.812   5.541 -0.2849 -0.2769  0.1089
  178SLPC  H11X20293   4.840   0.817   5.576  0.4374  2.7027  2.2722
  178SLPC  H11Y20294   4.950   0.726   5.471 -0.2993  0.1350 -0.4106
  178SLPC  C31220295   4.990   0.934   5.460 -0.3241  0.0159 -0.2545
  178SLPC  H12X20296   5.087   0.910   5.411  0.6512  0.0600  1.6008
  178SLPC  H12Y20297   5.003   1.022   5.526 -2.2118  0.7094 -0.7432
  178SLPC  C31320298   4.905   0.989   5.336 -0.2902  0.4105  0.3848
  178SLPC  H13X20299   4.950   1.086   5.310  2.5316 -0.3915  1.8934
  178SLPC  H13Y20300   4.807   1.029   5.371 -0.6878  1.2249 -1.5485
  178SLPC  C31420301   4.887   0.890   5.218  0.1571 -0.5974  0.3741
  178SLPC  H14X20302   4.805   0.914   5.147  0.9343 -2.2345 -1.1447
  178SLPC  H14Y20303   4.861   0.792   5.263 -1.1253  0.3690  1.8480
  178SLPC  C31520304   5.015   0.885   5.129 -0.0665 -0.5903 -0.0062
  178SLPC  H15X20305   5.106   0.855   5.185 -0.3986  0.2986  1.0640
  178SLPC  H15Y20306   5.029   0.993   5.106  2.2027 -0.3630  2.0280
  178SLPC  C31620307   5.003   0.804   4.998 -0.1372  0.3390 -0.9297
  178SLPC  H16X20308   5.104   0.790   4.953 -0.8846 -0.7916 -2.3630
  178SLPC  H16Y20309   4.939   0.874   4.941 -0.2503  1.2346  0.2767
  178SLPC  C31720310   4.936   0.663   5.006  0.7256  0.2588 -0.3577
  178SLPC  H17X20311   4.934   0.618   4.904  1.8564 -0.9246  0.1250
  178SLPC  H17Y20312   4.829   0.676   5.033 -0.0293 -3.0678 -1.2849
  178SLPC  C31820313   4.992   0.561   5.108 -0.9109 -0.2491  0.0127
  178SLPC  H18X20314   5.096   0.529   5.086 -0.6194  0.7083 -0.0686
  178SLPC  H18Y20315   4.936   0.467   5.089  3.2233 -2.6742 -1.5206
  178SLPC  H18Z20316   4.974   0.590   5.214 -0.7833 -0.2227  0.0279
  179SLPC     N20317   5.049   1.994   2.478 -0.5438 -0.1813 -0.0494
  179SLPC   C1320318   5.081   1.992   2.622 -0.2117  0.1166 -0.7277
  179SLPC  H13A20319   5.179   2.037   2.631 -0.2644  0.2038 -0.5840
  179SLPC  H13B20320   5.022   2.059   2.683 -0.1223 -1.7151  1.5028
  179SLPC  H13C20321   5.068   1.893   2.662  1.6350  0.0496 -0.2084
  179SLPC   C1420322   5.166   1.930   2.402  0.1757 -0.7799  0.3316
  179SLPC  H14A20323   5.261   1.970   2.433 -0.4619  0.0994  1.2074
  179SLPC  H14B20324   5.177   1.825   2.424 -1.1461 -0.8923  0.5201
  179SLPC  H14C20325   5.160   1.929   2.294  0.6588  1.2767  0.2387
  179SLPC   C1520326   5.024   2.134   2.440 -0.4478 -0.1635  0.5946
  179SLPC  H15A20327   4.949   2.184   2.499 -0.9986 -1.4039  0.9806
  179SLPC  H15B20328   5.115   2.193   2.445 -1.0651  0.9205 -0.4442
  179SLPC  H15C20329   4.993   2.136   2.337  1.9269  1.4576 -0.1569
  179SLPC   C1220330   4.922   1.911   2.452  0.4055 -0.2049  1.0469
  179SLPC  H12A20331   4.897   1.931   2.349  0.2408 -1.1472  0.9005
  179SLPC  H12B20332   4.836   1.957   2.499  2.0792  2.6896  1.5223
  179SLPC   C1120333   4.922   1.762   2.471 -0.1902 -0.6976  0.3297
  179SLPC  H11A20334   5.007   1.723   2.410 -2.4454 -1.6893 -2.3971
  179SLPC  H11B20335   4.826   1.737   2.421  0.5061 -0.3540 -1.2614
  179SLPC     P20336   4.801   1.723   2.692 -0.4899  0.4890 -0.0666
  179SLPC   O1320337   4.704   1.815   2.627  0.4326 -0.2034  0.1517
  179SLPC   O1420338   4.756   1.588   2.735  0.2646 -0.2463  0.0520
  179SLPC   O1220339   4.927   1.714   2.603 -0.6539 -0.0664 -0.5821
  179SLPC   O1120340   4.872   1.796   2.809  0.4298  0.3686  0.0409
  179SLPC    C120341   4.976   1.740   2.890  0.7534  0.5538 -0.1564
  179SLPC    HA20342   5.021   1.653   2.838 -1.0750  0.5601 -1.8836
  179SLPC    HB20343   5.055   1.815   2.912  0.8565  0.3738  0.0789
  179SLPC    C220344   4.929   1.688   3.033  0.3593 -0.7946 -0.2118
  179SLPC    HS20345   4.856   1.606   3.014  0.8716 -1.5022  0.7900
  179SLPC   O2120346   4.868   1.800   3.103 -0.1767 -0.8566  0.1528
  179SLPC   C2120347   4.744   1.773   3.146 -0.5019 -0.7993  0.3195
  179SLPC   O2220348   4.688   1.668   3.136  0.0757  0.3831 -0.0560
  179SLPC   C2220349   4.680   1.897   3.219  0.5686  1.1481  0.2761
  179SLPC   H2R20350   4.754   1.980   3.215  0.4532  1.2932  1.0778
  179SLPC   H2S20351   4.589   1.929   3.164  1.1531  1.0660 -0.7803
  179SLPC    C320352   5.056   1.631   3.114  0.2068  0.3832 -0.2984
  179SLPC    HX20353   5.126   1.716   3.124  0.2964  0.1648  1.1214
  179SLPC    HY20354   5.098   1.557   3.042  0.3843  1.7094 -1.6030
  179SLPC   O3120355   5.021   1.570   3.235  0.1189  0.4011 -0.5485
  179SLPC   C3120356   4.971   1.446   3.237 -0.5145 -0.7555  1.2839
  179SLPC   O3220357   4.954   1.373   3.137 -0.7537  0.7427  0.1669
  179SLPC   C3220358   4.928   1.409   3.380  0.0932  0.1132  0.4182
  179SLPC   H2X20359   4.961   1.487   3.452  1.2454  0.6451 -0.6462
  179SLPC   H2Y20360   4.980   1.314   3.403  0.0419 -0.2109 -0.7360
  179SLPC   C2320361   4.642   1.850   3.364  0.9143  0.4014 -0.6955
  179SLPC   H3R20362   4.728   1.839   3.432 -0.2828 -0.3175  0.7604
  179SLPC   H3S20363   4.583   1.756   3.360 -0.8704  1.3352  1.5013
  179SLPC   C2420364   4.544   1.958   3.431 -0.4903 -0.4817  0.1876
  179SLPC   H4R20365   4.463   1.990   3.362 -0.6409  0.4463  0.7707
  179SLPC   H4S20366   4.601   2.052   3.439 -0.8844 -0.0826 -1.3412
  179SLPC   C2520367   4.482   1.930   3.567  0.1292 -0.0430 -0.0248
  179SLPC   H5R20368   4.414   1.842   3.566 -1.7741  1.3157  1.5564
  179SLPC   H5S20369   4.412   2.008   3.604 -0.7353 -0.7104 -0.2105
  179SLPC   C2620370   4.596   1.917   3.671 -0.2715 -0.5245  0.3555
  179SLPC   H6R20371   4.654   2.011   3.663 -2.4416  0.8486  0.0177
  179SLPC   H6S20372   4.664   1.837   3.635  1.9557  1.0297  0.8964
  179SLPC   C2720373   4.548   1.889   3.814  0.2572 -0.3802  0.2182
  179SLPC   H7R20374   4.502   1.788   3.805 -0.3510 -0.2401  1.5249
  179SLPC   H7S20375   4.468   1.965   3.826  0.2459 -0.0924 -1.4747
  179SLPC   C2820376   4.662   1.906   3.922 -0.2985 -0.1339 -0.1160
  179SLPC   H8R20377   4.738   1.828   3.903  1.7181  1.4276  1.0929
  179SLPC   H8S20378   4.614   1.882   4.020  0.2111 -3.3189 -0.5409
  179SLPC   C2920379   4.720   2.046   3.943  0.1367 -0.8282  0.3971
  179SLPC   H9R20380   4.649   2.121   3.980  0.4114 -0.7645  0.7965
  179SLPC  C21020381   4.845   2.081   3.915  0.7088 -0.2248 -0.0957
  179SLPC  H10R20382   4.896   2.175   3.942  1.0956  0.1088 -1.8659
  179SLPC  C21120383   4.948   1.984   3.848  0.0254  0.0724  1.1909
  179SLPC  H11R20384   4.888   1.927   3.775 -0.2308  0.1680  1.3245
  179SLPC  H11S20385   4.981   1.909   3.923 -0.1312 -0.9874  0.2061
  179SLPC  C21220386   5.070   2.049   3.786 -0.1631 -0.0301 -0.2853
  179SLPC  H12R20387   5.168   2.030   3.832 -0.5867  1.1051  1.1743
  179SLPC  C21320388   5.052   2.124   3.676 -0.2734 -0.3787 -0.2890
  179SLPC  H13R20389   5.135   2.172   3.623 -1.2615 -0.0682 -1.6142
  179SLPC  C21420390   4.929   2.148   3.594  0.3398  0.6872 -0.1279
  179SLPC  H14R20391   4.923   2.257   3.572  1.8875  0.3525 -2.7127
  179SLPC  H14S20392   4.831   2.126   3.642 -0.7196 -0.5835 -2.6968
  179SLPC  C21520393   4.942   2.066   3.467 -0.2455  0.2330 -0.0582
  179SLPC  H15R20394   4.857   2.104   3.406  1.8696  0.5260 -3.0523
  179SLPC  H15S20395   4.923   1.958   3.484 -0.6223  0.1006 -1.1978
  179SLPC  C21620396   5.065   2.090   3.383  0.3480  0.4051  0.5383
  179SLPC  H16R20397   5.147   2.038   3.435  2.0435  0.3306 -2.0164
  179SLPC  H16S20398   5.082   2.198   3.367  1.4986  0.2666  0.7970
  179SLPC  C21720399   5.042   2.020   3.244 -0.3221 -0.5865 -1.1672
  179SLPC  H17R20400   4.939   2.034   3.206 -0.4262 -0.4020 -0.8250
  179SLPC  H17S20401   5.058   1.911   3.258  0.4345 -0.4992 -1.3101
  179SLPC  C21820402   5.141   2.081   3.143  0.2333 -0.3593 -0.0067
  179SLPC  H18R20403   5.242   2.103   3.182  0.4757  2.2155 -1.8664
  179SLPC  H18S20404   5.100   2.178   3.107  0.3414 -0.1841  0.3342
  179SLPC  H18T20405   5.142   2.008   3.059  1.7813 -0.7243  0.3017
  179SLPC   C3320406   4.773   1.389   3.391 -0.4674 -0.0567 -0.7768
  179SLPC   H3X20407   4.732   1.312   3.322  1.0092 -2.2938  0.6988
  179SLPC   H3Y20408   4.732   1.489   3.365 -0.6981 -0.3239 -1.4470
  179SLPC   C3420409   4.715   1.341   3.527 -0.4897  0.1935 -0.1382
  179SLPC   H4X20410   4.772   1.247   3.545  3.8362  2.6893  0.5434
  179SLPC   H4Y20411   4.606   1.335   3.508 -0.9557 -0.0345  2.3711
  179SLPC   C3520412   4.750   1.447   3.628  0.0300 -0.6175 -0.0255
  179SLPC   H5X20413   4.852   1.425   3.668 -0.8782 -1.0006  2.2060
  179SLPC   H5Y20414   4.739   1.550   3.588 -0.4761 -0.5023  0.4120
  179SLPC   C3620415   4.651   1.436   3.753 -0.4944 -1.1015 -0.1982
  179SLPC   H6X20416   4.631   1.328   3.774  0.7461 -1.5310 -1.1158
  179SLPC   H6Y20417   4.565   1.503   3.734  1.2514  1.3204  0.0092
  179SLPC   C3720418   4.720   1.482   3.883 -0.0944 -0.3704 -0.0885
  179SLPC   H7X20419   4.735   1.591   3.890 -1.0391 -0.2451  0.2193
  179SLPC   H7Y20420   4.815   1.426   3.898 -0.7759 -1.0657  1.9702
  179SLPC   C3820421   4.625   1.436   4.006  0.0322  0.7831  0.2304
  179SLPC   H8X20422   4.652   1.329   4.025  1.5945  0.4972 -2.9620
  179SLPC   H8Y20423   4.522   1.425   3.966  0.1225 -1.5360  0.4909
  179SLPC   C3920424   4.642   1.519   4.130  0.2842 -0.0172  0.1145
  179SLPC   H9X20425   4.614   1.625   4.110 -0.3263 -0.0585  0.7096
  179SLPC   H9Y20426   4.751   1.506   4.148 -0.0282 -1.0328  1.4415
  179SLPC  C31020427   4.557   1.451   4.245 -0.6461  0.1743 -0.2932
  179SLPC  H10X20428   4.568   1.342   4.228  0.2004  0.3950 -1.2992
  179SLPC  H10Y20429   4.450   1.473   4.225 -0.6690  0.8959  0.5591
  179SLPC  C31120430   4.602   1.495   4.383  0.2691 -0.1641 -0.6722
  179SLPC  H11X20431   4.576   1.600   4.409 -1.9653 -0.9208  0.4210
  179SLPC  H11Y20432   4.711   1.477   4.387 -0.0277 -2.1466 -0.4472
  179SLPC  C31220433   4.545   1.400   4.483 -0.1354  0.4501 -0.3000
  179SLPC  H12X20434   4.578   1.298   4.453 -0.9633  0.1912 -0.3476
  179SLPC  H12Y20435   4.434   1.401   4.482 -0.1303  0.4185 -0.9996
  179SLPC  C31320436   4.589   1.442   4.627  0.1801  0.1947 -0.8757
  179SLPC  H13X20437   4.700   1.453   4.635  0.2855 -1.6791  1.5056
  179SLPC  H13Y20438   4.560   1.352   4.686  2.1513 -0.8150 -1.3626
  179SLPC  C31420439   4.505   1.557   4.695  0.0522 -0.5087  0.1477
  179SLPC  H14X20440   4.404   1.516   4.674 -0.4259  0.7709 -0.1409
  179SLPC  H14Y20441   4.520   1.651   4.639 -0.5623 -0.8454 -0.6073
  179SLPC  C31520442   4.519   1.549   4.843 -0.5015 -0.3225 -0.6943
  179SLPC  H15X20443   4.482   1.445   4.860 -2.1267  0.2702 -0.3749
  179SLPC  H15Y20444   4.448   1.621   4.888  0.2637  0.1375 -0.2169
  179SLPC  C31620445   4.661   1.564   4.910 -0.5964  0.0791 -0.0695
  179SLPC  H16X20446   4.718   1.659   4.903  1.8521 -1.2355  0.5951
  179SLPC  H16Y20447   4.727   1.490   4.861 -0.9086  0.3088 -0.8517
  179SLPC  C31720448   4.658   1.534   5.063 -0.1551 -0.0046  0.5460
  179SLPC  H17X20449   4.578   1.458   5.083 -0.5416 -0.0868 -1.1788
  179SLPC  H17Y20450   4.623   1.632   5.102  0.5062 -0.8562  3.5339
  179SLPC  C31820451   4.796   1.513   5.128 -0.0240 -0.1962  0.5595
  179SLPC  H18X20452   4.838   1.614   5.148  0.0864  0.1227 -1.1702
  179SLPC  H18Y20453   4.860   1.455   5.059  1.1660  2.3397 -0.5950
  179SLPC  H18Z20454   4.776   1.468   5.228  0.6004 -0.4841  0.5558
  180SLPC     N20455   2.713   1.790   2.230 -0.8336  0.3279  0.0062
  180SLPC   C1320456   2.598   1.689   2.228  0.1727  0.1728  0.1112
  180SLPC  H13A20457   2.513   1.722   2.171 -0.3791  0.7624  1.2394
  180SLPC  H13B20458   2.638   1.601   2.178  0.0704  1.6359 -2.7390
  180SLPC  H13C20459   2.562   1.675   2.329  2.9847  1.1155  1.3280
  180SLPC   C1420460   2.659   1.914   2.291  0.8373 -0.8387  0.4189
  180SLPC  H14A20461   2.645   1.899   2.397 -2.7827 -0.3068  0.1497
  180SLPC  H14B20462   2.714   2.005   2.272 -0.0155 -0.3414  0.2928
  180SLPC  H14C20463   2.557   1.919   2.257  1.2383 -3.5356 -1.5474
  180SLPC   C1520464   2.747   1.815   2.090 -0.6547  0.7557  0.0144
  180SLPC  H15A20465   2.666   1.857   2.033 -0.4108  0.0800 -0.8606
  180SLPC  H15B20466   2.829   1.884   2.085  1.1636 -1.0193  2.5202
  180SLPC  H15C20467   2.780   1.732   2.029 -2.6650  0.0238 -0.1755
  180SLPC   C1220468   2.830   1.727   2.308  0.1887  0.3006 -0.7268
  180SLPC  H12A20469   2.921   1.781   2.287  1.2692 -1.5112 -0.8553
  180SLPC  H12B20470   2.854   1.631   2.266  0.7587 -0.4941  1.2889
  180SLPC   C1120471   2.831   1.723   2.468 -0.0275  0.3961 -0.0352
  180SLPC  H11A20472   2.920   1.666   2.503 -1.0051 -1.7735 -0.9151
  180SLPC  H11B20473   2.741   1.664   2.497  0.2448  0.0397  0.0920
  180SLPC     P20474   2.958   1.931   2.578  0.0035  0.3150 -0.4985
  180SLPC   O1320475   3.048   1.942   2.463 -0.5946  0.2370  0.0986
  180SLPC   O1420476   2.924   2.062   2.640 -0.0051 -0.3050  0.4308
  180SLPC   O1220477   2.827   1.853   2.532  0.5842  0.2367  0.3146
  180SLPC   O1120478   3.009   1.834   2.695  0.1559  0.3883  0.2311
  180SLPC    C120479   2.914   1.795   2.800 -0.9278 -0.4786 -0.1906
  180SLPC    HA20480   2.817   1.847   2.790 -0.9333 -0.8339 -2.7253
  180SLPC    HB20481   2.878   1.691   2.780 -3.4698  0.6882 -2.2017
  180SLPC    C220482   2.975   1.823   2.937  0.5585 -0.4717  0.1245
  180SLPC    HS20483   3.036   1.733   2.960  2.0890  0.8149  1.2980
  180SLPC   O2120484   2.870   1.847   3.036  0.0891 -0.4648 -0.0224
  180SLPC   C2120485   2.826   1.733   3.097  0.0615  0.7897  0.7788
  180SLPC   O2220486   2.877   1.622   3.078  0.1646  0.2265 -0.0086
  180SLPC   C2220487   2.709   1.761   3.196  0.1437  0.2613  0.1349
  180SLPC   H2R20488   2.634   1.817   3.135  2.0092  1.0982 -1.4967
  180SLPC   H2S20489   2.659   1.664   3.215 -0.4483  0.6845  0.8037
  180SLPC    C320490   3.065   1.945   2.951 -0.3741 -0.2441  0.4862
  180SLPC    HX20491   3.000   2.029   2.918  1.5564  1.0188 -0.2859
  180SLPC    HY20492   3.151   1.948   2.881 -1.4377  1.2602 -0.8402
  180SLPC   O3120493   3.108   1.980   3.086  0.3256  0.5304 -0.2422
  180SLPC   C3120494   3.177   1.892   3.148  0.3206 -0.2022  0.0027
  180SLPC   O3220495   3.214   1.787   3.102  0.1856 -0.4729  0.3857
  180SLPC   C3220496   3.180   1.926   3.299  0.1115 -0.8032  0.2931
  180SLPC   H2X20497   3.101   1.999   3.327  0.0466 -0.4852 -0.6678
  180SLPC   H2Y20498   3.281   1.967   3.317 -0.0459 -0.3170  0.1033
  180SLPC   C2320499   2.748   1.850   3.308  0.4443 -0.3193 -0.4749
  180SLPC   H3R20500   2.666   1.922   3.329  1.3440  0.3447  0.9300
  180SLPC   H3S20501   2.843   1.908   3.301  1.2669 -1.3304  1.5357
  180SLPC   C2420502   2.766   1.770   3.441  0.3463 -0.0770 -0.3564
  180SLPC   H4R20503   2.862   1.714   3.440  1.7511  2.2101 -0.4605
  180SLPC   H4S20504   2.676   1.705   3.444 -0.5296  1.1225 -0.0903
  180SLPC   C2520505   2.764   1.865   3.559  0.2440 -0.0832  0.7043
  180SLPC   H5R20506   2.670   1.924   3.562  0.4764  0.2675  1.2018
  180SLPC   H5S20507   2.849   1.934   3.544 -3.2081  4.1218 -1.9868
  180SLPC   C2620508   2.771   1.780   3.692  0.3484 -0.2198 -0.1428
  180SLPC   H6R20509   2.856   1.708   3.682  0.2440 -0.0636 -3.0006
  180SLPC   H6S20510   2.676   1.724   3.697  0.4801 -0.4104  0.2408
  180SLPC   C2720511   2.805   1.864   3.818 -0.3679  0.0193  0.4913
  180SLPC   H7R20512   2.720   1.934   3.829  0.8604  2.3103 -2.8653
  180SLPC   H7S20513   2.891   1.930   3.792  0.2955 -0.6511  0.9424
  180SLPC   C2820514   2.836   1.795   3.950 -0.3618  0.1836  0.1449
  180SLPC   H8R20515   2.851   1.880   4.020 -3.3174  1.5451 -0.6842
  180SLPC   H8S20516   2.935   1.745   3.940 -0.5088 -0.3182  1.1095
  180SLPC   C2920517   2.735   1.694   3.996 -1.1716 -0.4880  0.1422
  180SLPC   H9R20518   2.639   1.710   3.945 -0.6250  3.1824  0.0249
  180SLPC  C21020519   2.747   1.597   4.093 -0.3449  0.1227 -0.4260
  180SLPC  H10R20520   2.665   1.527   4.114  1.8992 -2.4644  0.2580
  180SLPC  C21120521   2.873   1.561   4.175  0.8239 -0.3123 -0.6899
  180SLPC  H11R20522   2.956   1.636   4.170  1.5902 -0.9432  1.6105
  180SLPC  H11S20523   2.916   1.465   4.140 -0.8961 -0.6242 -2.0765
  180SLPC  C21220524   2.838   1.534   4.318 -0.1716 -0.5200 -0.2308
  180SLPC  H12R20525   2.790   1.441   4.349  0.1663 -0.7540 -0.4033
  180SLPC  C21320526   2.873   1.612   4.426 -0.2718  0.1290  0.0403
  180SLPC  H13R20527   2.843   1.581   4.527 -1.5989  0.8937 -0.0866
  180SLPC  C21420528   2.945   1.746   4.413 -0.1830  0.7553 -0.5498
  180SLPC  H14R20529   3.033   1.736   4.346  1.2942 -1.0430  1.5271
  180SLPC  H14S20530   2.993   1.771   4.509  1.5523 -0.4708 -1.0452
  180SLPC  C21520531   2.855   1.856   4.361 -0.2382 -0.3735  0.0523
  180SLPC  H15R20532   2.844   1.835   4.252 -0.5057 -0.0668  0.0182
  180SLPC  H15S20533   2.915   1.950   4.366  1.5645 -1.3565 -1.6361
  180SLPC  C21620534   2.727   1.889   4.443 -0.4286 -0.1971 -0.2009
  180SLPC  H16R20535   2.641   1.819   4.432 -0.7923 -0.1702  2.0207
  180SLPC  H16S20536   2.701   1.991   4.410  3.5268  0.7956 -0.7690
  180SLPC  C21720537   2.743   1.884   4.593 -0.4667  0.3422 -1.0380
  180SLPC  H17R20538   2.819   1.961   4.618 -2.0803  0.9378  2.6348
  180SLPC  H17S20539   2.765   1.779   4.621 -1.6968  0.9551  2.8485
  180SLPC  C21820540   2.621   1.927   4.676  0.8343  0.0664 -0.2008
  180SLPC  H18R20541   2.594   2.025   4.629  0.1442 -0.3832 -0.7647
  180SLPC  H18S20542   2.634   1.952   4.784 -0.7756  2.1592 -0.4115
  180SLPC  H18T20543   2.532   1.868   4.645  1.2299 -1.0074  0.6708
  180SLPC   C3320544   3.175   1.794   3.381  0.0387  0.0844 -0.0771
  180SLPC   H3X20545   3.263   1.731   3.356 -0.1635 -0.4673  0.5390
  180SLPC   H3Y20546   3.096   1.731   3.335  1.2314 -1.5527  0.0357
  180SLPC   C3420547   3.149   1.796   3.535 -0.5710 -0.6451 -0.4152
  180SLPC   H4X20548   3.041   1.817   3.549  0.0256  1.6704  1.2161
  180SLPC   H4Y20549   3.214   1.871   3.584  0.3526 -0.3573 -2.0082
  180SLPC   C3520550   3.184   1.667   3.610  0.1917 -0.1486  0.6747
  180SLPC   H5X20551   3.294   1.650   3.611  0.6379  2.4243  0.6951
  180SLPC   H5Y20552   3.119   1.595   3.556 -0.7842  1.4128 -0.2771
  180SLPC   C3620553   3.148   1.687   3.756  0.7321  0.3310  0.1361
  180SLPC   H6X20554   3.041   1.671   3.779  1.1086  1.3459  3.0055
  180SLPC   H6Y20555   3.180   1.785   3.797  2.6430  0.4874 -1.5507
  180SLPC   C3720556   3.223   1.580   3.841  0.6667  0.1052 -0.2027
  180SLPC   H7X20557   3.333   1.591   3.826  0.4548  2.1287 -0.5178
  180SLPC   H7Y20558   3.181   1.481   3.815  1.6693 -0.0125 -1.5238
  180SLPC   C3820559   3.197   1.609   3.988 -0.0007  0.5437 -0.2457
  180SLPC   H8X20560   3.088   1.615   4.011  0.0450 -1.6446  0.7774
  180SLPC   H8Y20561   3.239   1.708   4.018 -0.3272  0.7601 -0.4888
  180SLPC   C3920562   3.261   1.494   4.071 -0.4474 -0.5472  0.2775
  180SLPC   H9X20563   3.361   1.487   4.022 -0.7270 -0.3893 -0.3338
  180SLPC   H9Y20564   3.207   1.400   4.045 -0.4545 -0.6064  0.5065
  180SLPC  C31020565   3.272   1.520   4.221 -0.4159  0.1153  0.5334
  180SLPC  H10X20566   3.170   1.523   4.266 -1.0481  2.5167 -0.8842
  180SLPC  H10Y20567   3.318   1.620   4.232  0.7616 -0.0989 -1.8372
  180SLPC  C31120568   3.373   1.427   4.289 -0.2251  0.1698  0.1551
  180SLPC  H11X20569   3.476   1.454   4.255  0.2741  1.2789  2.3210
  180SLPC  H11Y20570   3.352   1.322   4.262  1.8525  0.1284 -1.5983
  180SLPC  C31220571   3.383   1.454   4.436 -0.7822  0.0549  0.3762
  180SLPC  H12X20572   3.295   1.399   4.478  0.7453 -2.0886  0.9535
  180SLPC  H12Y20573   3.375   1.562   4.460 -1.0027  0.7600 -2.5501
  180SLPC  C31320574   3.514   1.409   4.508  0.4718  0.0437 -0.2606
  180SLPC  H13X20575   3.605   1.460   4.469 -0.2256  0.2625 -1.6723
  180SLPC  H13Y20576   3.524   1.298   4.500  0.6766 -0.1440  1.9192
  180SLPC  C31420577   3.517   1.425   4.659 -0.6508  0.0725 -0.3726
  180SLPC  H14X20578   3.418   1.401   4.702  0.0945 -0.9089  0.8914
  180SLPC  H14Y20579   3.530   1.532   4.684 -0.2117  0.2403 -1.2903
  180SLPC  C31520580   3.634   1.344   4.720 -0.0745 -0.2417 -0.1128
  180SLPC  H15X20581   3.726   1.395   4.682 -0.6195  2.0085  1.4018
  180SLPC  H15Y20582   3.618   1.238   4.691 -1.1319 -0.0445 -0.2806
  180SLPC  C31620583   3.635   1.335   4.872 -0.2179  0.2054 -1.0798
  180SLPC  H16X20584   3.639   1.437   4.916 -0.2329 -0.0945 -0.3668
  180SLPC  H16Y20585   3.726   1.286   4.912 -0.7488  0.1032  0.0465
  180SLPC  C31720586   3.522   1.258   4.941 -0.3292  0.1399 -0.2103
  180SLPC  H17X20587   3.527   1.155   4.898  1.5993 -0.8655  2.1546
  180SLPC  H17Y20588   3.424   1.295   4.905 -1.8095 -3.2678 -0.1084
  180SLPC  C31820589   3.525   1.241   5.088 -0.0175 -0.2792  0.1480
  180SLPC  H18X20590   3.613   1.181   5.120  0.3038  0.1472  0.0744
  180SLPC  H18Y20591   3.440   1.176   5.119  0.1562 -0.4548  0.2622
  180SLPC  H18Z20592   3.522   1.337   5.143 -0.0762 -0.0382 -0.2728
  181SLPC     N20593   2.559   0.972   2.457 -0.0945 -0.2960  0.7780
  181SLPC   C1320594   2.626   1.092   2.399  0.4208  0.1839  0.1018
  181SLPC  H13A20595   2.601   1.183   2.451 -0.7764  1.3105 -2.2986
  181SLPC  H13B20596   2.734   1.094   2.409  0.7259  0.1087 -2.4854
  181SLPC  H13C20597   2.596   1.105   2.296 -0.6771  0.1064  0.4020
  181SLPC   C1420598   2.605   0.844   2.389  0.0296  0.4142  0.6275
  181SLPC  H14A20599   2.712   0.833   2.383 -0.0940 -0.0739 -1.7744
  181SLPC  H14B20600   2.559   0.761   2.440 -1.0149  0.9918  0.6648
  181SLPC  H14C20601   2.573   0.835   2.286  1.7796 -1.2558  0.1615
  181SLPC   C1520602   2.408   0.999   2.442 -0.4799  0.4897  0.3369
  181SLPC  H15A20603   2.375   0.986   2.339  0.1230 -0.6259  0.2698
  181SLPC  H15B20604   2.355   0.922   2.496  0.8230 -0.4237  0.3775
  181SLPC  H15C20605   2.378   1.092   2.486 -1.3474 -0.2263  1.2957
  181SLPC   C1220606   2.592   0.969   2.600  0.1466 -0.1538  0.2834
  181SLPC  H12A20607   2.571   1.069   2.635 -0.2820  0.4171 -1.5107
  181SLPC  H12B20608   2.696   0.944   2.615  0.2241 -1.7734 -2.3554
  181SLPC   C1120609   2.520   0.862   2.684 -0.3453  0.3164 -0.2216
  181SLPC  H11A20610   2.410   0.855   2.678 -0.4368 -0.7212  1.6944
  181SLPC  H11B20611   2.550   0.873   2.791  0.7796 -1.5361 -0.2945
  181SLPC     P20612   2.720   0.684   2.700  0.7155  0.3396 -0.5386
  181SLPC   O1320613   2.743   0.551   2.638 -0.3655  0.3651 -0.0350
  181SLPC   O1420614   2.820   0.795   2.690  0.3339  0.1285 -0.4822
  181SLPC   O1220615   2.578   0.732   2.647 -0.5616  0.2007 -0.4480
  181SLPC   O1120616   2.697   0.657   2.854  0.1864 -0.0405 -0.2662
  181SLPC    C120617   2.572   0.599   2.910  0.1361  0.4542  0.0668
  181SLPC    HA20618   2.522   0.676   2.973  0.9044  1.1939 -0.2014
  181SLPC    HB20619   2.511   0.552   2.831  1.6638  0.3673 -1.1079
  181SLPC    C220620   2.616   0.471   2.990 -0.3033  0.0036 -0.5626
  181SLPC    HS20621   2.521   0.423   3.021 -0.0419  0.9939  2.1281
  181SLPC   O2120622   2.701   0.511   3.096 -0.2500  0.7793 -0.3434
  181SLPC   C2120623   2.649   0.552   3.215 -0.6075 -1.0112 -0.9982
  181SLPC   O2220624   2.536   0.581   3.236  0.0055  0.5740 -0.0668
  181SLPC   C2220625   2.769   0.577   3.304  0.6801  0.2076 -0.1002
  181SLPC   H2R20626   2.831   0.485   3.309  0.7668  0.2662 -0.0926
  181SLPC   H2S20627   2.836   0.657   3.266  1.3496 -1.7029 -3.2472
  181SLPC    C320628   2.698   0.376   2.899  0.3990 -0.2325 -0.2458
  181SLPC    HX20629   2.786   0.436   2.867 -1.7287  2.9044 -0.7280
  181SLPC    HY20630   2.632   0.350   2.813  0.8895  0.2763 -0.7872
  181SLPC   O3120631   2.722   0.256   2.980 -0.1964 -0.0286  0.6227
  181SLPC   C3120632   2.814   0.180   2.933 -0.0907 -0.4235  0.1769
  181SLPC   O3220633   2.881   0.202   2.833  0.2030 -0.2740  0.2057
  181SLPC   C3220634   2.840   0.070   3.039 -0.1840 -0.0052 -0.4562
  181SLPC   H2X20635   2.746   0.070   3.098 -1.7894 -0.6146 -2.8688
  181SLPC   H2Y20636   2.933   0.097   3.093 -0.3906  0.2552 -0.2293
  181SLPC   C2320637   2.724   0.608   3.445  0.3110  0.8843 -0.4547
  181SLPC   H3R20638   2.646   0.535   3.477  1.3737 -0.4344 -0.7473
  181SLPC   H3S20639   2.671   0.704   3.427  0.1253  0.6526 -1.2143
  181SLPC   C2420640   2.833   0.617   3.551  0.1669 -0.5106  0.5142
  181SLPC   H4R20641   2.907   0.692   3.514 -1.1339  0.0167 -1.1770
  181SLPC   H4S20642   2.891   0.522   3.547  1.7004  0.4034  0.2233
  181SLPC   C2520643   2.798   0.667   3.689  0.1371 -0.5089 -0.6651
  181SLPC   H5R20644   2.721   0.603   3.736  0.2674  0.1262  0.4498
  181SLPC   H5S20645   2.754   0.769   3.678  1.0644 -0.2225 -2.0210
  181SLPC   C2620646   2.910   0.683   3.793 -0.0216 -0.2734 -0.8572
  181SLPC   H6R20647   2.994   0.743   3.752 -0.1141 -1.2426 -2.5854
  181SLPC   H6S20648   2.943   0.580   3.821  1.1062 -0.0478 -1.3145
  181SLPC   C2720649   2.856   0.759   3.922 -0.1607  0.1590  0.9643
  181SLPC   H7R20650   2.771   0.715   3.978  1.5151 -2.0933  1.9090
  181SLPC   H7S20651   2.826   0.860   3.887 -0.3035 -0.3550 -0.4622
  181SLPC   C2820652   2.967   0.784   4.030  0.0158  0.1662  0.2279
  181SLPC   H8R20653   3.049   0.831   3.971  1.3979 -1.3082  0.8826
  181SLPC   H8S20654   3.010   0.684   4.055  1.5864  0.1948 -2.1161
  181SLPC   C2920655   2.916   0.855   4.150  0.1397  0.6344 -0.0196
  181SLPC   H9R20656   2.861   0.795   4.224 -0.0003  1.5385  0.6208
  181SLPC  C21020657   2.960   0.969   4.195  0.0166 -0.4777 -0.3667
  181SLPC  H10R20658   2.924   1.006   4.292  0.1733 -1.0235 -0.0984
  181SLPC  C21120659   3.052   1.060   4.127  0.4234 -0.1797 -0.8166
  181SLPC  H11R20660   3.114   0.998   4.060 -0.4041 -0.7281 -1.0887
  181SLPC  H11S20661   3.120   1.096   4.208 -3.3848  0.9760  2.1856
  181SLPC  C21220662   2.986   1.177   4.063  0.6478 -0.1830 -0.4372
  181SLPC  H12R20663   2.907   1.221   4.125  1.7140 -0.5520  1.2525
  181SLPC  C21320664   3.016   1.231   3.944  0.2124 -0.0236  0.5141
  181SLPC  H13R20665   2.961   1.320   3.912 -0.7261 -0.7357  0.0788
  181SLPC  C21420666   3.131   1.185   3.860  0.7184 -0.6423 -0.5199
  181SLPC  H14R20667   3.216   1.168   3.930  1.7655  0.1180 -1.5724
  181SLPC  H14S20668   3.174   1.263   3.795 -2.5632  0.0695 -2.0405
  181SLPC  C21520669   3.096   1.069   3.768  0.4214  0.0165  0.1495
  181SLPC  H15R20670   3.027   0.996   3.816 -0.5308 -0.4008 -1.7196
  181SLPC  H15S20671   3.191   1.022   3.736 -0.2847 -0.1646 -1.8549
  181SLPC  C21620672   3.030   1.094   3.635  0.1319 -0.7988  0.0018
  181SLPC  H16R20673   3.080   1.177   3.581  0.2971 -1.7033 -1.2567
  181SLPC  H16S20674   2.921   1.114   3.645  0.0647  0.1638 -2.0980
  181SLPC  C21720675   3.015   0.980   3.527 -0.3809  0.6175 -0.1867
  181SLPC  H17R20676   2.991   0.899   3.599 -3.0521  1.1063 -0.4262
  181SLPC  H17S20677   3.112   0.954   3.478 -0.6845  1.1279 -1.0854
  181SLPC  C21820678   2.908   0.982   3.415  0.0690 -0.1288 -0.9439
  181SLPC  H18R20679   2.933   0.894   3.353  0.2175 -1.3947  0.8542
  181SLPC  H18S20680   2.926   1.077   3.359  0.8386  0.4646  0.2501
  181SLPC  H18T20681   2.806   0.973   3.456  1.5487 -2.4020  2.7333
  181SLPC   C3320682   2.857  -0.077   2.985  0.0118  0.0802  0.1074
  181SLPC   H3X20683   2.966  -0.092   2.965 -0.3099  0.3794 -2.1398
  181SLPC   H3Y20684   2.803  -0.110   2.894  0.9318 -1.4586  0.0906
  181SLPC   C3420685   2.827  -0.186   3.090 -0.6850  0.1617  1.0808
  181SLPC   H4X20686   2.874  -0.279   3.051  1.0271  0.7587  1.6546
  181SLPC   H4Y20687   2.719  -0.204   3.111 -0.6363  0.1451  1.3130
  181SLPC   C3520688   2.894  -0.160   3.231  0.4759  0.0453 -0.5500
  181SLPC   H5X20689   2.855  -0.073   3.288  3.4540  1.6570 -0.7813
  181SLPC   H5Y20690   2.999  -0.129   3.216  0.1312  0.7949 -1.4739
  181SLPC   C3620691   2.872  -0.276   3.338 -0.3834 -0.2916  0.5346
  181SLPC   H6X20692   2.935  -0.361   3.306 -1.0148 -1.0276  1.2082
  181SLPC   H6Y20693   2.764  -0.301   3.324 -0.6152  1.1851 -0.6130
  181SLPC   C3720694   2.927  -0.244   3.479 -0.2450 -0.2383  0.3287
  181SLPC   H7X20695   2.863  -0.166   3.525 -1.2625 -0.4149 -0.7541
  181SLPC   H7Y20696   3.025  -0.193   3.465 -0.8949  0.4825 -1.9490
  181SLPC   C3820697   2.938  -0.355   3.579 -0.4696 -0.0381 -0.0325
  181SLPC   H8X20698   2.980  -0.445   3.529 -2.9814 -0.9679 -0.6342
  181SLPC   H8Y20699   2.833  -0.375   3.607 -0.0819  0.3748  1.8369
  181SLPC   C3920700   3.011  -0.309   3.699 -0.4343  0.2506  0.3509
  181SLPC   H9X20701   2.978  -0.206   3.725 -1.1376  0.5074 -1.4788
  181SLPC   H9Y20702   3.117  -0.319   3.667 -0.2872 -2.1704  1.4065
  181SLPC  C31020703   3.004  -0.404   3.818  0.1208  0.6392 -0.1820
  181SLPC  H10X20704   3.077  -0.360   3.890  1.2281  0.2350 -1.0308
  181SLPC  H10Y20705   3.040  -0.506   3.792  2.2803  1.4120 -0.4004
  181SLPC  C31120706   2.863  -0.405   3.889  0.2495 -0.2175 -0.2447
  181SLPC  H11X20707   2.814  -0.494   3.845  1.3561 -0.5142 -0.9026
  181SLPC  H11Y20708   2.810  -0.313   3.855  2.0121  0.9245 -0.0125
  181SLPC  C31220709   2.878  -0.411   4.046  0.1400  0.3929 -0.2092
  181SLPC  H12X20710   2.772  -0.397   4.077 -0.3426 -0.3163 -1.4251
  181SLPC  H12Y20711   2.918  -0.313   4.077 -1.0589  0.0012  2.9137
  181SLPC  C31320712   2.959  -0.531   4.099 -0.1871 -0.2407 -0.5561
  181SLPC  H13X20713   3.057  -0.534   4.047  0.1799 -0.5341  0.1483
  181SLPC  H13Y20714   2.899  -0.621   4.074 -0.5419 -0.3644  0.6843
  181SLPC  C31420715   2.987  -0.528   4.253  0.3094 -0.3000  0.4443
  181SLPC  H14X20716   3.015  -0.633   4.274  0.0661 -0.8479 -1.7927
  181SLPC  H14Y20717   2.898  -0.507   4.317 -0.3927 -0.2435 -0.5294
  181SLPC  C31520718   3.097  -0.428   4.293  0.5343 -0.1390  0.1064
  181SLPC  H15X20719   3.056  -0.327   4.271  0.2968 -0.3699 -0.5315
  181SLPC  H15Y20720   3.189  -0.428   4.231 -0.8464  0.6287 -2.0615
  181SLPC  C31620721   3.133  -0.438   4.443  0.0323  0.2643 -0.5402
  181SLPC  H16X20722   3.045  -0.416   4.507 -0.8258 -0.7566 -1.3339
  181SLPC  H16Y20723   3.205  -0.355   4.459  0.9887 -0.5378 -0.6241
  181SLPC  C31720724   3.203  -0.573   4.482 -0.0058 -0.3243 -0.2437
  181SLPC  H17X20725   3.288  -0.582   4.412 -0.3210  0.0710 -0.6820
  181SLPC  H17Y20726   3.128  -0.655   4.473  1.4192 -1.9278  1.6776
  181SLPC  C31820727   3.244  -0.581   4.627  0.5691 -0.6976 -0.1588
  181SLPC  H18X20728   3.299  -0.488   4.651 -0.7711  0.4652 -1.3865
  181SLPC  H18Y20729   3.300  -0.674   4.651 -1.0707 -1.2254  2.0431
  181SLPC  H18Z20730   3.152  -0.581   4.690  0.1041 -0.0232 -0.8265
  182SLPC     N20731   6.479   1.496   2.492  0.0506 -0.6509  0.5504
  182SLPC   C1320732   6.549   1.371   2.497  0.3315 -0.2254 -0.0750
  182SLPC  H13A20733   6.535   1.315   2.588  0.7632 -0.1124  0.0607
  182SLPC  H13B20734   6.505   1.311   2.418 -3.5200 -0.5272  2.0609
  182SLPC  H13C20735   6.650   1.387   2.462 -0.0405  0.9095 -0.6850
  182SLPC   C1420736   6.511   1.578   2.372 -0.3556  0.6062  0.6716
  182SLPC  H14A20737   6.436   1.654   2.358 -0.4946  0.7879  2.2646
  182SLPC  H14B20738   6.614   1.610   2.370  0.3957 -1.5983  0.7057
  182SLPC  H14C20739   6.508   1.520   2.281  1.1948 -1.9881  2.1507
  182SLPC   C1520740   6.516   1.573   2.617 -0.0263  0.0791 -0.4046
  182SLPC  H15A20741   6.473   1.534   2.709 -2.1539 -1.2246 -1.8562
  182SLPC  H15B20742   6.624   1.572   2.626  0.1385  0.5143 -2.0361
  182SLPC  H15C20743   6.482   1.675   2.608  1.3729  0.6304  0.2731
  182SLPC   C1220744   6.335   1.464   2.497  0.9294 -0.2638  0.1780
  182SLPC  H12A20745   6.286   1.558   2.516 -1.6343 -1.0436 -1.9456
  182SLPC  H12B20746   6.304   1.412   2.586  0.2842  1.1483  0.8131
  182SLPC   C1120747   6.266   1.386   2.382  0.1010 -0.1955  0.4217
  182SLPC  H11A20748   6.300   1.435   2.289 -0.1541 -1.2315 -0.2293
  182SLPC  H11B20749   6.156   1.396   2.391  0.1347 -0.7629  1.8203
  182SLPC     P20750   6.216   1.127   2.401  0.4229 -0.2080  0.4025
  182SLPC   O1320751   6.090   1.146   2.328  0.0337 -0.1263  0.2024
  182SLPC   O1420752   6.295   1.000   2.380  0.5418  0.0052 -0.0623
  182SLPC   O1220753   6.309   1.248   2.365  0.1815 -0.1960 -0.2461
  182SLPC   O1120754   6.178   1.142   2.553  0.2459  0.1342 -0.2809
  182SLPC    C120755   6.274   1.122   2.652 -0.4011 -0.1274 -0.0735
  182SLPC    HA20756   6.373   1.163   2.623 -1.3755  0.7766 -2.3736
  182SLPC    HB20757   6.249   1.183   2.741 -1.3374  0.1116 -0.4905
  182SLPC    C220758   6.297   0.976   2.699  0.0458  0.1725 -0.8346
  182SLPC    HS20759   6.350   0.928   2.614  0.6793 -3.4604  1.3658
  182SLPC   O2120760   6.167   0.902   2.711 -0.1283 -0.0405  0.3015
  182SLPC   C2120761   6.181   0.778   2.744  0.9688 -0.5794 -0.3587
  182SLPC   O2220762   6.276   0.712   2.746  0.2333  0.3160  0.1218
  182SLPC   C2220763   6.049   0.720   2.799 -0.7774  0.2755 -0.0399
  182SLPC   H2R20764   5.988   0.804   2.837 -0.1663 -0.5279  2.9723
  182SLPC   H2S20765   6.000   0.677   2.709  1.6008 -0.2492 -1.1469
  182SLPC    C320766   6.392   0.960   2.823  0.5064  0.9463 -0.4488
  182SLPC    HX20767   6.481   1.026   2.811  1.3217 -0.3966 -2.2562
  182SLPC    HY20768   6.437   0.859   2.813 -3.8248 -1.5996  2.3553
  182SLPC   O3120769   6.328   0.959   2.954  0.2675  0.3508 -0.1306
  182SLPC   C3120770   6.309   1.076   3.007  0.5183 -0.4196  0.2535
  182SLPC   O3220771   6.364   1.175   2.966 -0.3767 -0.4321  0.0284
  182SLPC   C3220772   6.247   1.073   3.141 -0.0888 -0.4646 -0.2518
  182SLPC   H2X20773   6.268   0.976   3.191  1.1687 -1.0154 -1.7446
  182SLPC   H2Y20774   6.138   1.066   3.120 -0.1277 -1.6901  0.3077
  182SLPC   C2320775   6.062   0.614   2.915 -0.1111 -0.6831 -0.3578
  182SLPC   H3R20776   6.115   0.527   2.871 -1.2137 -1.5147 -0.0875
  182SLPC   H3S20777   5.960   0.583   2.945  0.1380 -1.1818 -0.0014
  182SLPC   C2420778   6.133   0.672   3.041  0.0700 -0.5569  0.5861
  182SLPC   H4R20779   6.075   0.763   3.065  0.2779  0.0929 -1.2099
  182SLPC   H4S20780   6.233   0.713   3.018 -0.1394  0.4326  1.3852
  182SLPC   C2520781   6.136   0.576   3.159  0.0840  0.0552  0.1105
  182SLPC   H5R20782   6.232   0.521   3.160  0.6874  0.9965 -1.4505
  182SLPC   H5S20783   6.043   0.515   3.155 -0.1982  0.4938 -0.2167
  182SLPC   C2620784   6.119   0.652   3.293  0.5165  0.4808  0.2295
  182SLPC   H6R20785   6.019   0.700   3.289 -0.8472 -2.2408 -1.9362
  182SLPC   H6S20786   6.189   0.738   3.291 -0.3912  1.2816  1.3717
  182SLPC   C2720787   6.129   0.571   3.423 -0.2031  0.4580  0.8823
  182SLPC   H7R20788   6.225   0.516   3.426 -1.7991 -2.5160  1.8237
  182SLPC   H7S20789   6.052   0.491   3.424  0.3898 -0.1279  0.1666
  182SLPC   C2820790   6.120   0.642   3.555  0.1042  0.1294  0.4223
  182SLPC   H8R20791   6.021   0.690   3.572  0.4822  1.1973 -0.3027
  182SLPC   H8S20792   6.196   0.723   3.544  0.1015  0.0840  0.0650
  182SLPC   C2920793   6.144   0.542   3.659 -0.1332  0.5589 -0.2558
  182SLPC   H9R20794   6.076   0.456   3.657 -0.0964  0.3418  3.0094
  182SLPC  C21020795   6.230   0.538   3.762  0.2701  0.0865 -0.3932
  182SLPC  H10R20796   6.222   0.453   3.831 -0.9842  1.2480  0.9683
  182SLPC  C21120797   6.332   0.636   3.817  0.2059 -0.3443 -0.2696
  182SLPC  H11R20798   6.397   0.662   3.730 -0.5987 -2.5101 -1.5739
  182SLPC  H11S20799   6.393   0.592   3.899  1.2978  0.8302 -0.4017
  182SLPC  C21220800   6.263   0.760   3.870  0.3844  0.8657 -0.4403
  182SLPC  H12R20801   6.191   0.800   3.797  1.0635 -1.1718 -2.3509
  182SLPC  C21320802   6.301   0.819   3.990  0.0787  0.0098 -0.5823
  182SLPC  H13R20803   6.241   0.905   4.024 -0.2262 -0.3427 -0.2104
  182SLPC  C21420804   6.412   0.778   4.087 -0.3272  0.0039  1.5128
  182SLPC  H14R20805   6.439   0.874   4.135  0.9343  1.0959 -1.1889
  182SLPC  H14S20806   6.497   0.744   4.025 -0.9302 -1.0053  1.1979
  182SLPC  C21520807   6.382   0.667   4.190  0.2666  0.1240  0.0882
  182SLPC  H15R20808   6.364   0.566   4.148  0.0978 -0.1572  0.8130
  182SLPC  H15S20809   6.290   0.687   4.249 -0.0814  3.0419 -1.2829
  182SLPC  C21620810   6.498   0.657   4.300  0.7447  0.3208 -0.1328
  182SLPC  H16R20811   6.595   0.683   4.254  0.4439 -1.2211 -1.7120
  182SLPC  H16S20812   6.502   0.554   4.340  2.3888 -0.2816 -1.6972
  182SLPC  C21720813   6.469   0.737   4.423 -0.2593 -0.3565 -0.1149
  182SLPC  H17R20814   6.373   0.697   4.463  0.7613 -2.8490 -0.0118
  182SLPC  H17S20815   6.459   0.843   4.391 -0.1704 -0.6005 -0.9802
  182SLPC  C21820816   6.578   0.715   4.523 -0.3059  0.9743  0.6747
  182SLPC  H18R20817   6.573   0.763   4.623 -0.0479  0.5482  0.8977
  182SLPC  H18S20818   6.674   0.760   4.490 -0.0172  1.4088  2.0288
  182SLPC  H18T20819   6.593   0.606   4.539  0.6444  0.7305 -1.4790
  182SLPC   C3320820   6.287   1.188   3.231  0.5022  0.1702  0.0632
  182SLPC   H3X20821   6.267   1.287   3.185 -1.5815 -0.3764 -0.2791
  182SLPC   H3Y20822   6.397   1.180   3.244  0.5760 -1.8498 -1.3854
  182SLPC   C3420823   6.241   1.182   3.378  0.4031  0.3707 -0.1365
  182SLPC   H4X20824   6.131   1.177   3.370 -0.0451  3.7583  1.7788
  182SLPC   H4Y20825   6.254   1.284   3.421 -1.5575  0.6183 -0.0600
  182SLPC   C3520826   6.299   1.071   3.464 -0.1898  0.0185  0.3779
  182SLPC   H5X20827   6.407   1.054   3.445 -0.1685  1.3355 -0.8201
  182SLPC   H5Y20828   6.258   0.970   3.441  1.0417 -0.2696 -0.6764
  182SLPC   C3620829   6.288   1.091   3.618  0.1537 -0.5934 -0.2969
  182SLPC   H6X20830   6.356   1.175   3.643  0.2739 -0.4336 -1.1277
  182SLPC   H6Y20831   6.333   1.001   3.665  3.1800  0.6391 -0.6319
  182SLPC   C3720832   6.145   1.110   3.666  1.0196 -0.6467  0.0150
  182SLPC   H7X20833   6.081   1.039   3.609 -1.1053  2.5690 -1.9217
  182SLPC   H7Y20834   6.122   1.215   3.637  0.5141 -0.6242  0.4718
  182SLPC   C3820835   6.110   1.098   3.809  0.2842 -0.6338 -0.2268
  182SLPC   H8X20836   6.167   1.168   3.873 -2.1259  0.1385  1.2161
  182SLPC   H8Y20837   6.112   0.991   3.839  0.8159 -1.1272 -1.9216
  182SLPC   C3920838   5.962   1.142   3.815 -0.0438  0.4637  1.1561
  182SLPC   H9X20839   5.896   1.071   3.760  1.9824 -1.6707  1.3097
  182SLPC   H9Y20840   5.951   1.239   3.761  0.5548 -0.2614 -0.3316
  182SLPC  C31020841   5.894   1.140   3.952  0.3125 -0.1710 -0.0620
  182SLPC  H10X20842   5.943   1.214   4.018  1.0116 -0.8893  0.2417
  182SLPC  H10Y20843   5.908   1.041   4.000  0.8458 -0.3207 -0.5173
  182SLPC  C31120844   5.743   1.167   3.954  0.2726  0.0021 -0.0136
  182SLPC  H11X20845   5.690   1.094   3.891  1.2904 -1.3645  0.6678
  182SLPC  H11Y20846   5.714   1.265   3.910  1.5294 -0.1343 -1.2099
  182SLPC  C31220847   5.682   1.170   4.096  0.1482  0.2002 -0.0675
  182SLPC  H12X20848   5.763   1.199   4.167  0.2634  0.7511 -0.4150
  182SLPC  H12Y20849   5.657   1.068   4.131  0.6702  0.0549 -0.1099
  182SLPC  C31320850   5.574   1.267   4.136 -0.0973 -0.3390  0.4072
  182SLPC  H13X20851   5.486   1.255   4.069 -0.2502  0.2366  0.4948
  182SLPC  H13Y20852   5.621   1.368   4.134  1.4282 -1.0342 -1.6179
  182SLPC  C31420853   5.515   1.238   4.275  0.2425 -0.3424 -0.4264
  182SLPC  H14X20854   5.601   1.222   4.343 -0.1134 -0.8242 -0.0826
  182SLPC  H14Y20855   5.461   1.143   4.255  0.5733 -0.3094 -1.5598
  182SLPC  C31520856   5.423   1.355   4.322 -0.5847  0.4149 -0.4762
  182SLPC  H15X20857   5.370   1.327   4.416  0.0094  2.1109  0.3923
  182SLPC  H15Y20858   5.359   1.372   4.233 -1.3957 -2.7439 -0.6377
  182SLPC  C31620859   5.504   1.481   4.375  0.0175  0.1735 -0.5210
  182SLPC  H16X20860   5.436   1.559   4.414 -0.0858  0.2815 -0.9111
  182SLPC  H16Y20861   5.556   1.519   4.284  0.1419  1.6018  0.1131
  182SLPC  C31720862   5.605   1.467   4.485  0.7058  0.8411 -0.3946
  182SLPC  H17X20863   5.673   1.383   4.458  0.1112  0.9320 -2.3066
  182SLPC  H17Y20864   5.552   1.451   4.581 -0.8159 -0.7024 -1.4373
  182SLPC  C31820865   5.698   1.584   4.502  0.6341 -0.3767  0.5721
  182SLPC  H18X20866   5.766   1.561   4.587  1.1600 -0.3583  0.1581
  182SLPC  H18Y20867   5.652   1.684   4.515  2.1476  0.8695 -2.6900
  182SLPC  H18Z20868   5.768   1.604   4.418 -0.9162 -0.2618 -0.7464
  183SLPC     N20869   1.357   1.397   2.776 -0.0164 -0.1208 -0.6567
  183SLPC   C1320870   1.503   1.444   2.758  1.3105  0.0783  0.1931
  183SLPC  H13A20871   1.561   1.356   2.731 -0.6699 -0.7420 -1.6825
  183SLPC  H13B20872   1.520   1.515   2.679 -0.5264  1.0518  0.6246
  183SLPC  H13C20873   1.545   1.472   2.853  0.9776 -1.3037  0.7774
  183SLPC   C1420874   1.310   1.334   2.646  0.3068 -0.2336 -0.2311
  183SLPC  H14A20875   1.204   1.316   2.649 -0.0269  1.5357 -0.3366
  183SLPC  H14B20876   1.324   1.402   2.563  1.9159  0.6417  0.6861
  183SLPC  H14C20877   1.361   1.241   2.627  0.1684 -0.3141 -0.2071
  183SLPC   C1520878   1.271   1.508   2.816 -0.0801  0.2415  0.1114
  183SLPC  H15A20879   1.255   1.570   2.729 -1.2056 -1.5599 -1.0242
  183SLPC  H15B20880   1.174   1.476   2.849 -0.6762  2.3727  0.6136
  183SLPC  H15C20881   1.313   1.569   2.896  2.2399 -0.9982 -0.0637
  183SLPC   C1220882   1.356   1.293   2.888  0.2502 -0.4758  0.3187
  183SLPC  H12A20883   1.423   1.216   2.853 -1.3215 -1.9976  0.5151
  183SLPC  H12B20884   1.264   1.237   2.892  1.1607 -1.9407  2.0122
  183SLPC   C1120885   1.394   1.333   3.032  0.4229  0.6941  0.4027
  183SLPC  H11A20886   1.363   1.254   3.103  0.1615 -0.0382 -0.5072
  183SLPC  H11B20887   1.351   1.434   3.052 -1.3019  0.1489 -0.3264
  183SLPC     P20888   1.650   1.252   3.055  0.6807  0.3001  0.1850
  183SLPC   O1320889   1.665   1.187   2.919  0.0870 -0.0177  0.1481
  183SLPC   O1420890   1.768   1.327   3.101 -0.3058  0.3671  0.2966
  183SLPC   O1220891   1.534   1.360   3.033 -0.3786 -0.7457 -0.6011
  183SLPC   O1120892   1.603   1.137   3.157 -0.1892 -0.8678  0.0184
  183SLPC    C120893   1.596   1.169   3.301 -0.3296  0.5895 -0.5467
  183SLPC    HA20894   1.633   1.073   3.343 -0.0637  0.3679 -1.2802
  183SLPC    HB20895   1.662   1.252   3.336 -1.1774  1.2111 -0.4005
  183SLPC    C220896   1.452   1.190   3.357  0.4069  0.4269 -0.7724
  183SLPC    HS20897   1.413   1.288   3.322  2.3619  1.9867  1.1166
  183SLPC   O2120898   1.451   1.185   3.500 -0.5982 -0.6597 -0.2838
  183SLPC   C2120899   1.507   1.301   3.543 -0.5693  0.6307  0.5012
  183SLPC   O2220900   1.530   1.398   3.479  0.1078  0.4088  0.2029
  183SLPC   C2220901   1.537   1.282   3.692  0.0016  0.1167 -0.8065
  183SLPC   H2R20902   1.636   1.236   3.708 -0.0596  0.4326  0.5789
  183SLPC   H2S20903   1.552   1.385   3.731  2.1408 -1.0033  1.5999
  183SLPC    C320904   1.353   1.077   3.310  0.3132 -0.5565  0.3141
  183SLPC    HX20905   1.411   0.986   3.337 -0.8869 -1.8779 -1.3729
  183SLPC    HY20906   1.351   1.085   3.199  5.1771  2.2414  0.0980
  183SLPC   O3120907   1.230   1.069   3.376 -0.4278 -0.4694 -0.2809
  183SLPC   C3120908   1.129   1.154   3.329 -0.1032  0.1508 -0.0065
  183SLPC   O3220909   1.144   1.234   3.243 -0.1582 -0.3695 -0.1256
  183SLPC   C3220910   0.998   1.114   3.406  0.6788 -0.2851  0.1206
  183SLPC   H2X20911   1.001   1.004   3.399  1.6682 -0.2882  0.3665
  183SLPC   H2Y20912   0.903   1.149   3.360  1.4213 -0.5772 -1.7114
  183SLPC   C2320913   1.422   1.206   3.758 -0.4789  0.7583  0.0059
  183SLPC   H3R20914   1.427   1.098   3.732 -0.3922  0.7207  0.1792
  183SLPC   H3S20915   1.322   1.230   3.715 -2.3845  0.8317  4.0076
  183SLPC   C2420916   1.407   1.222   3.905  0.9335  0.0565 -0.9024
  183SLPC   H4R20917   1.427   1.327   3.935 -3.6382  0.7691  0.5529
  183SLPC   H4S20918   1.486   1.166   3.959  0.4040  0.1667  0.0209
  183SLPC   C2520919   1.267   1.176   3.959  0.2225  0.4977 -0.9532
  183SLPC   H5R20920   1.255   1.066   3.947  1.2741 -0.2012  3.0190
  183SLPC   H5S20921   1.179   1.227   3.914 -0.7157 -1.4451 -1.4183
  183SLPC   C2620922   1.250   1.194   4.111  0.4905 -0.0090  0.1323
  183SLPC   H6R20923   1.155   1.152   4.148 -0.5602  2.7573  0.7645
  183SLPC   H6S20924   1.247   1.303   4.133 -0.9369 -0.1883  0.8812
  183SLPC   C2720925   1.350   1.129   4.207  0.4761  0.4613  0.6027
  183SLPC   H7R20926   1.452   1.144   4.166 -0.2706 -0.6054 -1.7991
  183SLPC   H7S20927   1.344   1.018   4.206 -3.1761  0.5108 -1.8748
  183SLPC   C2820928   1.341   1.173   4.354  1.4520  0.2237 -0.0926
  183SLPC   H8R20929   1.366   1.281   4.358 -0.9878  0.9145 -1.3132
  183SLPC   H8S20930   1.410   1.108   4.411  0.9016 -0.6555 -0.3970
  183SLPC   C2920931   1.203   1.156   4.412  0.3211 -0.5999 -0.2660
  183SLPC   H9R20932   1.126   1.229   4.381  1.6936  1.5161  1.0145
  183SLPC  C21020933   1.166   1.066   4.509 -0.5124  0.3089 -0.1624
  183SLPC  H10R20934   1.071   1.078   4.565 -0.2804  1.6679 -0.0222
  183SLPC  C21120935   1.262   0.954   4.561  0.1878  0.5208  0.1099
  183SLPC  H11R20936   1.347   1.003   4.614 -0.4685  1.8814 -0.0577
  183SLPC  H11S20937   1.312   0.905   4.475  0.5986  0.2685  0.4865
  183SLPC  C21220938   1.181   0.855   4.639  0.2495 -0.0556  1.1335
  183SLPC  H12R20939   1.081   0.834   4.596  2.1451  0.6143 -4.5013
  183SLPC  C21320940   1.221   0.796   4.754  0.7137 -0.4251  0.2726
  183SLPC  H13R20941   1.153   0.722   4.799  0.1467  0.2668  0.5761
  183SLPC  C21420942   1.353   0.818   4.817  0.6216 -0.1359 -0.3779
  183SLPC  H14R20943   1.424   0.881   4.759  0.9014 -0.4036 -0.3267
  183SLPC  H14S20944   1.397   0.717   4.831  0.0356 -0.5485 -1.4465
  183SLPC  C21520945   1.353   0.879   4.962  0.2955  0.1187 -0.5462
  183SLPC  H15R20946   1.290   0.816   5.028 -0.5526 -1.8293 -3.0442
  183SLPC  H15S20947   1.305   0.979   4.962  0.8133  0.3774  0.4276
  183SLPC  C21620948   1.496   0.910   5.019 -0.1172 -0.2014  0.0846
  183SLPC  H16R20949   1.559   0.962   4.943 -0.3729 -0.6406 -0.4316
  183SLPC  H16S20950   1.537   0.809   5.038 -2.0036 -1.0447 -0.1281
  183SLPC  C21720951   1.490   0.983   5.151  0.4286 -0.0981  0.1810
  183SLPC  H17R20952   1.424   0.926   5.220 -1.1912 -0.0076 -1.2278
  183SLPC  H17S20953   1.438   1.081   5.139 -0.3055 -0.1987  2.2636
  183SLPC  C21820954   1.620   1.003   5.222  0.7204 -0.0204 -0.0267
  183SLPC  H18R20955   1.679   1.063   5.149 -0.2230 -0.0809 -0.8538
  183SLPC  H18S20956   1.684   0.916   5.251  2.2360  1.5931  1.7914
  183SLPC  H18T20957   1.596   1.070   5.307  1.5529  2.0958 -1.3776
  183SLPC   C3320958   1.000   1.155   3.552 -0.2657  0.1358 -0.9426
  183SLPC   H3X20959   0.992   1.265   3.566  0.0157 -0.0640  1.1126
  183SLPC   H3Y20960   1.088   1.111   3.604 -0.8480  1.7304  1.5721
  183SLPC   C3420961   0.865   1.105   3.610  0.0173 -0.2097 -0.0421
  183SLPC   H4X20962   0.870   0.995   3.601  3.4347 -0.2786  0.9886
  183SLPC   H4Y20963   0.777   1.142   3.554 -1.7665 -1.0699  2.0472
  183SLPC   C3520964   0.842   1.141   3.756  0.7657 -0.2431 -0.1385
  183SLPC   H5X20965   0.923   1.109   3.825  0.4283  0.7223  0.7337
  183SLPC   H5Y20966   0.756   1.078   3.786  0.7816 -0.0723  0.2629
  183SLPC   C3620967   0.804   1.285   3.782  0.3321 -0.1554  0.3542
  183SLPC   H6X20968   0.725   1.311   3.709 -0.0658 -1.6949  0.2132
  183SLPC   H6Y20969   0.883   1.363   3.774 -0.3696  0.6865  1.3035
  183SLPC   C3720970   0.746   1.323   3.919  1.0081  0.2055 -0.2884
  183SLPC   H7X20971   0.663   1.256   3.948  1.6865 -0.4251  0.2414
  183SLPC   H7Y20972   0.706   1.426   3.905 -2.3626 -0.5904  2.2503
  183SLPC   C3820973   0.852   1.310   4.030  0.1558 -1.1267  0.5456
  183SLPC   H8X20974   0.934   1.384   4.019 -1.5180  0.8648  0.9062
  183SLPC   H8Y20975   0.891   1.206   4.029  0.6598 -0.9432 -0.5830
  183SLPC   C3920976   0.798   1.353   4.173  0.4474  0.0905  0.3450
  183SLPC   H9X20977   0.720   1.276   4.192 -0.8896  1.5439  1.0587
  183SLPC   H9Y20978   0.752   1.453   4.188  1.0972  0.0267  3.4704
  183SLPC  C31020979   0.907   1.333   4.275  0.2328  0.1111  0.4493
  183SLPC  H10X20980   0.993   1.399   4.251 -0.5977  0.4929 -1.7837
  183SLPC  H10Y20981   0.950   1.233   4.256  1.8957  1.2757 -2.6513
  183SLPC  C31120982   0.859   1.345   4.420 -0.7295 -0.4390  0.2909
  183SLPC  H11X20983   0.816   1.254   4.467  0.0819 -1.1125 -0.2630
  183SLPC  H11Y20984   0.768   1.409   4.417 -1.9859 -2.1284  0.7970
  183SLPC  C31220985   0.960   1.400   4.528  0.3109 -0.3939  0.0141
  183SLPC  H12X20986   1.053   1.343   4.547 -0.6587 -1.8265  0.6578
  183SLPC  H12Y20987   0.901   1.395   4.622  0.3597  0.1601  0.0726
  183SLPC  C31320988   1.010   1.541   4.493 -0.7045 -0.0589  0.9604
  183SLPC  H13X20989   0.925   1.600   4.452 -2.1975 -2.0460  1.0283
  183SLPC  H13Y20990   1.090   1.528   4.417 -0.9283  0.1566  0.6864
  183SLPC  C31420991   1.061   1.618   4.615 -0.2524 -0.4177 -0.1882
  183SLPC  H14X20992   1.155   1.569   4.648 -0.1432  1.6191  2.9329
  183SLPC  H14Y20993   0.977   1.609   4.686  1.4016 -0.3901  1.8724
  183SLPC  C31520994   1.099   1.762   4.591 -0.5245  0.0525  0.8471
  183SLPC  H15X20995   1.194   1.764   4.534 -1.3781 -0.4844 -0.6544
  183SLPC  H15Y20996   1.121   1.794   4.695 -1.2059  0.2385  0.9413
  183SLPC  C31620997   0.999   1.861   4.518  0.5241 -0.1097 -1.5286
  183SLPC  H16X20998   0.897   1.827   4.545  0.5166  0.8056 -0.3283
  183SLPC  H16Y20999   1.009   1.853   4.407  1.8740 -2.2087 -1.3120
  183SLPC  C31721000   1.011   2.010   4.579 -0.0543  0.4628  0.0468
  183SLPC  H17X21001   1.120   2.032   4.580 -0.1545  1.4505 -2.3441
  183SLPC  H17Y21002   0.977   2.020   4.684  0.9961 -1.1625  0.5800
  183SLPC  C31821003   0.964   2.131   4.492  0.0020 -0.6852  0.5954
  183SLPC  H18X21004   0.853   2.132   4.488 -0.0609 -1.3670  1.6737
  183SLPC  H18Y21005   1.005   2.122   4.389 -0.6001 -1.7134  0.4362
  183SLPC  H18Z21006   1.003   2.231   4.520  1.2100 -0.8213 -0.5081
  184SLPC     N21007   0.911   2.202   3.027  0.5580  0.9339 -0.2172
  184SLPC   C1321008   0.923   2.058   3.073 -0.0073  0.0300  0.2985
  184SLPC  H13A21009   1.027   2.027   3.069  0.3843  1.3162 -2.2791
  184SLPC  H13B21010   0.880   2.053   3.171 -0.5703 -0.4999  0.0249
  184SLPC  H13C21011   0.876   1.986   3.008  1.3459  0.5383 -1.3350
  184SLPC   C1421012   0.777   2.243   3.085 -0.3854 -0.2815  0.4564
  184SLPC  H14A21013   0.693   2.184   3.053  0.4370 -1.3038  0.1294
  184SLPC  H14B21014   0.770   2.241   3.192 -1.4231  0.2391  0.4103
  184SLPC  H14C21015   0.755   2.344   3.051 -1.5078 -0.5355  0.3901
  184SLPC   C1521016   0.907   2.206   2.883 -0.4547  0.4369  0.7333
  184SLPC  H15A21017   0.882   2.307   2.851  0.5322 -0.0043 -1.6617
  184SLPC  H15B21018   1.007   2.181   2.851 -0.5400  0.2976  0.5768
  184SLPC  H15C21019   0.832   2.147   2.832  1.3250  1.2101 -3.1162
  184SLPC   C1221020   1.011   2.291   3.092 -0.2192 -0.6805 -0.0594
  184SLPC  H12A21021   1.027   2.272   3.197 -1.9597  0.3546  0.4398
  184SLPC  H12B21022   0.981   2.394   3.081 -1.4226 -0.9965  0.1490
  184SLPC   C1121023   1.156   2.292   3.022  0.2037 -0.4135  0.3788
  184SLPC  H11A21024   1.193   2.188   3.009  2.7256  0.4353  0.2105
  184SLPC  H11B21025   1.228   2.343   3.089 -1.6753  1.7519  0.8811
  184SLPC     P21026   1.143   2.514   2.890 -0.3012  0.7210 -0.3421
  184SLPC   O1321027   1.276   2.586   2.886  0.3043 -0.2012 -0.3396
  184SLPC   O1421028   1.051   2.545   2.778  0.1147  0.5591 -0.4579
  184SLPC   O1221029   1.167   2.360   2.894 -0.2644  0.1720 -0.2885
  184SLPC   O1121030   1.062   2.552   3.024 -0.2331  0.0389  0.3033
  184SLPC    C121031   1.006   2.685   3.031 -0.6208  0.6277 -0.2163
  184SLPC    HA21032   1.094   2.752   3.018  1.9768 -2.4298  0.3388
  184SLPC    HB21033   0.935   2.706   2.948  2.2354  1.3421 -2.6430
  184SLPC    C221034   0.950   2.721   3.170  0.3166 -0.4427  0.4208
  184SLPC    HS21035   0.918   2.827   3.180 -0.1345 -0.6357  1.0689
  184SLPC   O2121036   1.046   2.700   3.281 -0.0268 -0.1644  0.1070
  184SLPC   C2121037   1.154   2.773   3.289  0.0988 -0.6783 -0.5338
  184SLPC   O2221038   1.179   2.873   3.225 -0.0758 -0.4295 -0.6402
  184SLPC   C2221039   1.236   2.723   3.403 -0.1185  0.4054  0.1639
  184SLPC   H2R21040   1.274   2.626   3.363  0.2402  0.7241 -0.2719
  184SLPC   H2S21041   1.325   2.784   3.429 -0.7080  1.1582  0.4455
  184SLPC    C321042   0.819   2.635   3.209 -0.4338 -1.0546 -0.5280
  184SLPC    HX21043   0.845   2.529   3.191 -0.9026 -1.0481 -1.2938
  184SLPC    HY21044   0.735   2.668   3.145 -1.6418  0.3335  1.6383
  184SLPC   O3121045   0.772   2.653   3.343 -0.0025  0.0226 -0.7301
  184SLPC   C3121046   0.801   2.560   3.434 -0.3303 -0.3321  0.4378
  184SLPC   O3221047   0.866   2.460   3.409  0.1114 -0.3642 -0.0750
  184SLPC   C3221048   0.738   2.589   3.564  0.5751  0.0113  0.0411
  184SLPC   H2X21049   0.629   2.600   3.543 -0.0769 -1.2532  2.4342
  184SLPC   H2Y21050   0.782   2.686   3.596  0.7045  0.3187 -1.0184
  184SLPC   C2321051   1.156   2.690   3.530 -0.1332  0.3430 -0.3570
  184SLPC   H3R21052   1.066   2.627   3.510 -0.9922  1.3003  0.3890
  184SLPC   H3S21053   1.116   2.785   3.571 -2.2494 -1.0752  1.1641
  184SLPC   C2421054   1.227   2.617   3.644 -0.1449 -0.4732  0.4612
  184SLPC   H4R21055   1.156   2.593   3.726  0.7738  0.6986  1.6401
  184SLPC   H4S21056   1.295   2.685   3.699 -1.5665  0.7320  0.7803
  184SLPC   C2521057   1.295   2.486   3.604  0.1453  0.2105 -0.3822
  184SLPC   H5R21058   1.356   2.501   3.512  0.6620 -0.3768 -0.1380
  184SLPC   H5S21059   1.225   2.403   3.584 -0.5327  0.0259  2.3210
  184SLPC   C2621060   1.384   2.440   3.717 -0.5065 -0.1140 -0.5566
  184SLPC   H6R21061   1.334   2.445   3.816  0.0139  1.8360 -0.3601
  184SLPC   H6S21062   1.465   2.516   3.716 -2.1671  1.7760 -1.6876
  184SLPC   C2721063   1.439   2.297   3.710 -1.0767 -0.2837  0.2655
  184SLPC   H7R21064   1.462   2.279   3.603 -1.3906  1.0686 -0.0474
  184SLPC   H7S21065   1.368   2.217   3.741  0.9926 -1.5359  2.0553
  184SLPC   C2821066   1.570   2.289   3.789 -0.0004  0.7153  0.3211
  184SLPC   H8R21067   1.611   2.186   3.793 -1.1787  0.1782 -0.7245
  184SLPC   H8S21068   1.542   2.320   3.892 -1.8600  1.0365 -0.2299
  184SLPC   C2921069   1.668   2.384   3.729  0.1166  0.1941 -0.4416
  184SLPC   H9R21070   1.670   2.386   3.619  0.3069 -0.2589 -0.4484
  184SLPC  C21021071   1.735   2.473   3.798 -0.5851  0.3316  0.5479
  184SLPC  H10R21072   1.806   2.538   3.746 -0.1317 -1.2650 -0.9563
  184SLPC  C21121073   1.727   2.496   3.953 -0.2854  0.0581  0.1940
  184SLPC  H11R21074   1.829   2.484   3.995  0.1417 -2.8406 -1.3600
  184SLPC  H11S21075   1.663   2.418   4.000 -0.2385  0.1346  0.3834
  184SLPC  C21221076   1.665   2.630   3.972  0.1395 -0.5919  1.2356
  184SLPC  H12R21077   1.572   2.655   3.918  0.2464 -3.1816 -0.2830
  184SLPC  C21321078   1.710   2.732   4.047  0.2587 -0.0388  0.5140
  184SLPC  H13R21079   1.660   2.829   4.032 -1.2966 -0.9105 -0.1488
  184SLPC  C21421080   1.841   2.743   4.117 -0.4654  0.1023 -0.4578
  184SLPC  H14R21081   1.867   2.850   4.137  1.4771 -0.4906  0.4092
  184SLPC  H14S21082   1.915   2.694   4.052 -1.3770 -2.7450  0.4831
  184SLPC  C21521083   1.826   2.658   4.246  0.5534  0.1788 -0.2539
  184SLPC  H15R21084   1.925   2.677   4.294  1.8234 -4.0058 -0.7790
  184SLPC  H15S21085   1.832   2.549   4.224  2.7913  0.3955 -0.9225
  184SLPC  C21621086   1.723   2.708   4.345 -0.1573  0.9297 -0.0195
  184SLPC  H16R21087   1.630   2.648   4.331 -0.8790  1.5482  1.8431
  184SLPC  H16S21088   1.698   2.816   4.338  1.6734  1.3266 -1.0145
  184SLPC  C21721089   1.754   2.692   4.501  0.1474 -0.4246  0.0045
  184SLPC  H17R21090   1.670   2.738   4.558  2.2320  3.0125  0.5287
  184SLPC  H17S21091   1.843   2.751   4.531  0.4540 -1.2538  0.7713
  184SLPC  C21821092   1.783   2.552   4.543 -0.3652 -0.4858 -0.3862
  184SLPC  H18R21093   1.705   2.482   4.507 -1.4832  1.5695 -2.1988
  184SLPC  H18S21094   1.792   2.545   4.654 -0.2654 -0.1694 -0.3745
  184SLPC  H18T21095   1.883   2.524   4.503  0.7105 -0.0117  1.8109
  184SLPC   C3321096   0.752   2.475   3.665 -0.3232 -0.1146  0.0817
  184SLPC   H3X21097   0.855   2.438   3.681 -0.8177 -0.8092  1.8883
  184SLPC   H3Y21098   0.700   2.387   3.621 -0.0134 -1.5272  2.3794
  184SLPC   C3421099   0.703   2.500   3.812  0.0814  0.5374  1.0169
  184SLPC   H4X21100   0.594   2.524   3.815 -0.7349 -2.6673  1.9819
  184SLPC   H4Y21101   0.764   2.583   3.853  1.2015  0.2959 -0.1174
  184SLPC   C3521102   0.720   2.381   3.898 -0.0415 -0.5228  0.1347
  184SLPC   H5X21103   0.828   2.358   3.902 -0.2278 -1.5770 -0.4688
  184SLPC   H5Y21104   0.675   2.286   3.861  0.3599 -0.6273 -0.0857
  184SLPC   C3621105   0.669   2.411   4.043  0.0262 -0.0235  0.0543
  184SLPC   H6X21106   0.670   2.308   4.085 -1.5262  0.9894  2.8404
  184SLPC   H6Y21107   0.566   2.451   4.039  0.3364  0.8863  0.7905
  184SLPC   C3721108   0.762   2.504   4.124  0.2730  0.2437  0.4147
  184SLPC   H7X21109   0.771   2.606   4.080  0.5781  0.3764  0.7809
  184SLPC   H7Y21110   0.861   2.455   4.132  0.4795  0.5854 -0.0273
  184SLPC   C3821111   0.707   2.529   4.265 -0.3295 -0.0185  0.5900
  184SLPC   H8X21112   0.598   2.546   4.247 -0.9970 -3.7747  0.0920
  184SLPC   H8Y21113   0.760   2.617   4.304  2.5046 -0.8988 -0.9873
  184SLPC   C3921114   0.735   2.415   4.362 -0.0014  0.1437 -0.0542
  184SLPC   H9X21115   0.839   2.409   4.400  0.1509  2.4213  0.0127
  184SLPC   H9Y21116   0.715   2.327   4.297  1.1355  0.8423 -1.4082
  184SLPC  C31021117   0.637   2.419   4.478 -0.8487 -0.0840  1.2305
  184SLPC  H10X21118   0.537   2.436   4.433  0.0313 -0.4101 -1.0143
  184SLPC  H10Y21119   0.673   2.502   4.542  1.5738 -0.0328 -0.0795
  184SLPC  C31121120   0.634   2.306   4.578 -0.1060  0.2970 -0.0256
  184SLPC  H11X21121   0.739   2.305   4.614  0.0936  2.9702 -0.3341
  184SLPC  H11Y21122   0.600   2.213   4.528 -0.4378 -0.4562  1.5697
  184SLPC  C31221123   0.553   2.329   4.710  0.5798  0.1188  0.1250
  184SLPC  H12X21124   0.456   2.276   4.697  0.8523 -0.1542 -0.8701
  184SLPC  H12Y21125   0.528   2.438   4.712  1.3393  0.3341 -0.9319
  184SLPC  C31321126   0.612   2.272   4.841  0.1753 -0.6184 -0.0828
  184SLPC  H13X21127   0.556   2.311   4.929 -0.0818 -1.9927  0.3912
  184SLPC  H13Y21128   0.722   2.290   4.843  0.3839 -1.7714 -0.3551
  184SLPC  C31421129   0.589   2.118   4.842 -0.8724 -0.0053  0.0343
  184SLPC  H14X21130   0.628   2.081   4.745  0.9970  0.1694  0.6740
  184SLPC  H14Y21131   0.480   2.097   4.844 -0.9760  0.5724  1.7077
  184SLPC  C31521132   0.658   2.044   4.954 -1.0303  0.5633 -0.0161
  184SLPC  H15X21133   0.641   1.934   4.958  1.3638  0.1743  1.3976
  184SLPC  H15Y21134   0.637   2.083   5.055 -1.5620  1.0226 -0.3024
  184SLPC  C31621135   0.816   2.069   4.950  0.1594 -0.7699 -0.0376
  184SLPC  H16X21136   0.846   2.170   4.983 -1.8471  0.8038 -2.6622
  184SLPC  H16Y21137   0.834   2.066   4.841 -1.7529 -1.5252 -0.3801
  184SLPC  C31721138   0.907   1.957   4.996 -0.0652 -0.3526  0.2308
  184SLPC  H17X21139   0.879   1.915   5.095  1.9361 -0.8122  0.6356
  184SLPC  H17Y21140   1.011   1.991   5.013 -0.2652  0.3330  0.1250
  184SLPC  C31821141   0.897   1.840   4.899  0.2780  0.1177 -0.1014
  184SLPC  H18X21142   0.807   1.780   4.926 -0.2525  1.1795  0.5899
  184SLPC  H18Y21143   0.988   1.778   4.911 -0.3734 -1.2977 -1.9595
  184SLPC  H18Z21144   0.875   1.880   4.798 -1.3693  1.9353  0.9002
  185POPC     N21145   1.329   6.505   7.478 -0.2018 -0.6429  0.4813
  185POPC   C1221146   1.293   6.612   7.377 -0.0767  0.0338 -0.3457
  185POPC  H12A21147   1.222   6.674   7.429  1.2053 -0.4591  2.1504
  185POPC  H12B21148   1.235   6.564   7.299  1.0126  1.0436 -1.8388
  185POPC   C1321149   1.205   6.442   7.537 -0.6483 -0.8600  0.5416
  185POPC  H13A21150   1.147   6.519   7.585  3.4488  3.0378 -0.0557
  185POPC  H13B21151   1.141   6.391   7.466 -0.9406 -2.0042  1.5977
  185POPC  H13C21152   1.222   6.367   7.612  0.0975 -0.4620  0.7814
  185POPC   C1421153   1.407   6.393   7.408 -0.5526 -0.6736  0.4774
  185POPC  H14A21154   1.344   6.344   7.335 -1.2344  1.1321 -0.2342
  185POPC  H14B21155   1.490   6.432   7.351  0.6528 -1.0940  1.9054
  185POPC  H14C21156   1.438   6.311   7.470 -1.2606 -1.3300 -0.0107
  185POPC   C1521157   1.413   6.552   7.594 -0.0944 -0.3054  0.7350
  185POPC  H15A21158   1.423   6.473   7.667  0.3855 -1.7967 -0.8943
  185POPC  H15B21159   1.373   6.644   7.635  1.0053  0.5039  0.0541
  185POPC  H15C21160   1.510   6.572   7.550  0.2183 -0.8289  1.1760
  185POPC   C1121161   1.406   6.696   7.317  0.0865  0.8936  0.6773
  185POPC  H11A21162   1.383   6.745   7.220  1.0742 -1.9414 -1.1410
  185POPC  H11B21163   1.485   6.623   7.287 -1.3624 -1.1687  1.6092
  185POPC     P21164   1.426   6.930   7.426 -0.1206  0.3695 -0.4666
  185POPC   O1321165   1.432   6.980   7.567  0.4737  0.3024 -0.2718
  185POPC   O1421166   1.293   6.938   7.364  0.8163 -0.0642 -0.2313
  185POPC   O1221167   1.464   6.783   7.410 -0.1841  0.3851 -0.1501
  185POPC   O1121168   1.545   7.006   7.351 -0.3888  0.1110 -0.2136
  185POPC    C121169   1.681   6.962   7.347  0.0969  0.6871  0.2980
  185POPC    HA21170   1.697   6.859   7.384  1.1390  0.4671 -0.6740
  185POPC    HB21171   1.748   7.023   7.412  1.3795 -2.8701  2.6160
  185POPC    C221172   1.742   6.965   7.204 -0.1410  0.3307  0.0121
  185POPC    HS21173   1.846   6.939   7.232  0.8094  0.1468 -3.2850
  185POPC   O2121174   1.740   7.095   7.144 -0.0413 -0.7187 -0.1597
  185POPC   C2121175   1.856   7.132   7.087  0.4036  0.0344  0.2470
  185POPC   O2221176   1.949   7.053   7.067  0.3275 -0.5230  0.8149
  185POPC   C2221177   1.864   7.281   7.058  0.0897 -0.3277  0.5446
  185POPC   H2R21178   1.914   7.333   7.143  1.0139 -0.3461  0.0135
  185POPC   H2S21179   1.757   7.311   7.054  0.2896  0.4002  0.5197
  185POPC    C321180   1.675   6.870   7.113  0.6278 -0.2110 -0.6732
  185POPC    HX21181   1.582   6.921   7.078 -1.0177 -1.0722  2.0833
  185POPC    HY21182   1.629   6.786   7.169  3.1725 -0.3730  1.3491
  185POPC   O3121183   1.759   6.814   7.005  0.1334 -0.4312 -0.9341
  185POPC   C3121184   1.847   6.723   7.045 -0.2278  0.1533  0.2520
  185POPC   O3221185   1.854   6.666   7.154  0.0396 -0.2295 -0.6461
  185POPC   C3221186   1.961   6.717   6.939  0.1091 -0.3052 -0.2331
  185POPC   H2X21187   2.052   6.759   6.986 -0.9812  1.6879  0.2082
  185POPC   H2Y21188   1.926   6.767   6.846  0.1480 -0.5380 -0.3729
  185POPC   C2321189   1.945   7.297   6.932 -0.2447  0.2464  0.8042
  185POPC   H3R21190   2.041   7.242   6.932 -0.6294 -0.4404  0.8928
  185POPC   H3S21191   1.968   7.404   6.915  0.6710 -0.4251 -3.0407
  185POPC   C2421192   1.862   7.259   6.815 -0.2514 -0.4244  0.6332
  185POPC   H4R21193   1.779   7.332   6.801  0.2466 -0.1970 -1.5024
  185POPC   H4S21194   1.824   7.156   6.827 -4.3505  1.0815  2.5605
  185POPC   C2521195   1.939   7.263   6.682 -1.2431  0.4265  0.3839
  185POPC   H5R21196   2.015   7.188   6.711 -2.4796 -0.3465  1.7693
  185POPC   H5S21197   1.979   7.364   6.663  1.2328 -0.7177 -0.9608
  185POPC   C2621198   1.868   7.191   6.562 -0.4232  0.1392 -1.0755
  185POPC   H6R21199   1.775   7.247   6.539 -0.9554  0.7134  2.1217
  185POPC   H6S21200   1.843   7.086   6.588  1.9031 -0.2893 -0.3887
  185POPC   C2721201   1.964   7.202   6.439  0.4678  0.1687  0.0738
  185POPC   H7R21202   2.046   7.132   6.469  0.4442 -1.1710 -2.7416
  185POPC   H7S21203   2.001   7.307   6.446 -3.0127  1.3879  3.3151
  185POPC   C2821204   1.906   7.177   6.297 -0.1195  0.2511 -0.6885
  185POPC   H8R21205   1.828   7.255   6.289  1.8694  2.3552 -0.8060
  185POPC   H8S21206   1.861   7.076   6.305  1.0808 -0.2410  0.3526
  185POPC   C2921207   2.005   7.203   6.189  0.2172  0.3411  0.4967
  185POPC   H9121208   2.106   7.223   6.227 -0.4168 -0.0537  2.5073
  185POPC  C21021209   1.982   7.184   6.060 -0.0512 -0.1219 -0.3632
  185POPC  H10121210   2.067   7.193   5.990  0.7078  0.4949  0.6086
  185POPC  C21121211   1.854   7.131   5.997 -0.1238  0.3065  0.2998
  185POPC  H11R21212   1.765   7.190   6.028 -0.7505 -1.0145  1.1163
  185POPC  H11S21213   1.837   7.028   6.035  1.4416 -0.5077 -1.0747
  185POPC  C21221214   1.863   7.118   5.843 -0.5775 -0.6631  0.7770
  185POPC  H12R21215   1.761   7.098   5.805 -0.2081 -0.6784 -0.2457
  185POPC  H12S21216   1.930   7.032   5.823 -0.6040 -0.8889  1.6361
  185POPC  C21321217   1.896   7.246   5.770 -0.2402 -0.4174 -1.0135
  185POPC  H13R21218   1.998   7.278   5.799  0.5770 -1.7041 -2.3739
  185POPC  H13S21219   1.831   7.330   5.804  1.0276  0.1185  0.2002
  185POPC  C21421220   1.876   7.223   5.621 -0.2567 -0.6725  0.1936
  185POPC  H14R21221   1.783   7.167   5.600 -0.5903 -0.4465  1.0202
  185POPC  H14S21222   1.965   7.168   5.584 -0.0509  0.0592 -0.4111
  185POPC  C21521223   1.878   7.357   5.539  0.0831  0.0858 -0.1548
  185POPC  H15R21224   1.806   7.426   5.588 -0.1337  1.0972 -1.8302
  185POPC  H15S21225   1.863   7.336   5.431  0.4326 -2.3020  0.2053
  185POPC  C21621226   2.013   7.425   5.536 -0.4057 -0.0252 -0.4977
  185POPC  H16R21227   2.082   7.349   5.494 -0.6501 -0.4497 -0.1337
  185POPC  H16S21228   2.055   7.461   5.632 -1.1012  4.0757 -1.5051
  185POPC  C21721229   2.018   7.550   5.441  0.1530 -0.1133 -0.3591
  185POPC  H17R21230   1.983   7.510   5.343 -0.8289 -1.8084  0.6391
  185POPC  H17S21231   2.123   7.580   5.418  0.1152 -1.2039 -2.2140
  185POPC  C21821232   1.934   7.667   5.491 -0.4003 -0.2910  0.8081
  185POPC  H18R21233   1.833   7.641   5.528  0.1182 -0.7077  1.9914
  185POPC  H18S21234   1.928   7.743   5.410 -2.4793  0.6546  1.7884
  185POPC  H18T21235   1.999   7.696   5.577  0.9132  0.2050 -0.3237
  185POPC   C3321236   1.997   6.577   6.890 -1.3322  0.0030 -0.0455
  185POPC   H3X21237   1.911   6.536   6.833 -1.3809 -0.4566  0.3498
  185POPC   H3Y21238   2.018   6.507   6.974  0.9813 -1.3195 -1.5878
  185POPC   C3421239   2.117   6.579   6.787  0.0687 -0.8815 -0.4386
  185POPC   H4X21240   2.205   6.619   6.841 -0.8535 -1.3865  1.5383
  185POPC   H4Y21241   2.095   6.646   6.702 -0.7195 -0.7475 -0.1359
  185POPC   C3521242   2.160   6.441   6.747  0.2662  0.9927  0.3541
  185POPC   H5X21243   2.078   6.370   6.772  1.9737 -1.0901  0.3728
  185POPC   H5Y21244   2.244   6.414   6.815 -1.7706  0.7003  2.8877
  185POPC   C3621245   2.185   6.429   6.597  0.3157  0.2738  0.0679
  185POPC   H6X21246   2.281   6.375   6.579  1.6552  2.1219  1.3344
  185POPC   H6Y21247   2.213   6.532   6.566  0.9703 -0.0935 -0.6084
  185POPC   C3721248   2.062   6.372   6.522 -0.1521 -0.0653 -0.6764
  185POPC   H7X21249   1.973   6.429   6.556  1.3774  0.5510  2.6251
  185POPC   H7Y21250   2.043   6.265   6.546  0.1207  0.0706  0.1627
  185POPC   C3821251   2.068   6.376   6.371 -0.0833 -0.3371 -0.3031
  185POPC   H8X21252   2.097   6.482   6.355  1.6491 -0.6190  0.7516
  185POPC   H8Y21253   1.963   6.367   6.336  0.0801 -0.3202 -0.7994
  185POPC   C3921254   2.167   6.288   6.300  0.5347  0.3432  0.2263
  185POPC   H9X21255   2.139   6.180   6.303  1.7411  0.0325  1.5200
  185POPC   H9Y21256   2.255   6.286   6.368 -0.4784 -1.9303  1.6002
  185POPC  C31021257   2.206   6.332   6.159  0.0729 -0.2593 -0.6125
  185POPC  H10X21258   2.302   6.288   6.125  1.4380  0.4840  2.0106
  185POPC  H10Y21259   2.225   6.442   6.157  0.5005 -0.3196 -0.0321
  185POPC  C31121260   2.106   6.293   6.052  0.7706  0.1247 -0.1162
  185POPC  H11X21261   2.007   6.336   6.079  0.8825  0.5345 -0.3520
  185POPC  H11Y21262   2.097   6.183   6.045 -0.8274  0.3161 -2.2318
  185POPC  C31221263   2.135   6.363   5.920  0.1110 -0.7727  0.2159
  185POPC  H12X21264   2.239   6.332   5.893  0.7231 -1.1943  2.7845
  185POPC  H12Y21265   2.113   6.471   5.919 -1.8522 -1.1269  1.2755
  185POPC  C31321266   2.051   6.298   5.802 -0.4000 -0.1011  0.9509
  185POPC  H13X21267   1.945   6.319   5.828 -0.8004  0.8768 -1.2650
  185POPC  H13Y21268   2.076   6.192   5.783  1.6960  0.6837 -1.0757
  185POPC  C31421269   2.085   6.366   5.667  0.2093  0.1935  0.5549
  185POPC  H14X21270   2.193   6.358   5.645 -0.5484 -1.7487 -3.4187
  185POPC  H14Y21271   2.070   6.474   5.687  2.0397  0.0517  3.0743
  185POPC  C31521272   1.998   6.312   5.549  0.6074  0.1209 -0.2774
  185POPC  H15X21273   1.890   6.332   5.564  0.4503 -1.2500  0.6608
  185POPC  H15Y21274   2.000   6.201   5.555 -1.9008  0.0366  0.4160
  185POPC  C31621275   2.033   6.374   5.413 -0.5122  0.1471 -0.0291
  185POPC  H16X21276   2.071   6.478   5.421  1.0791 -0.4270  0.3692
  185POPC  H16Y21277   1.947   6.383   5.344  0.0726  1.5635 -0.6056
  185POPC  H16Z21278   2.103   6.308   5.358 -1.2085  0.3021 -1.1278
  186POPC     N21279   3.310   0.741   7.534 -0.4795  0.3417  0.1023
  186POPC   C1221280   3.381   0.849   7.453  0.1161 -0.2868 -0.1137
  186POPC  H12A21281   3.473   0.808   7.414 -0.2108 -0.4999 -0.6806
  186POPC  H12B21282   3.409   0.926   7.523 -0.7022 -0.1050  0.0274
  186POPC   C1321283   3.406   0.673   7.635  0.8711  0.8020 -0.2261
  186POPC  H13A21284   3.359   0.580   7.665  1.0973  0.5753 -0.5816
  186POPC  H13B21285   3.499   0.651   7.585  1.6350  1.4101  0.8858
  186POPC  H13C21286   3.427   0.733   7.722  1.5381  0.6670 -0.2905
  186POPC   C1421287   3.194   0.789   7.599 -0.0002  0.2006 -0.1273
  186POPC  H14A21288   3.135   0.716   7.652 -0.1636  0.5545  0.1790
  186POPC  H14B21289   3.195   0.885   7.648 -2.0240  1.0289 -1.5922
  186POPC  H14C21290   3.130   0.809   7.514  1.3913 -1.3377 -1.6094
  186POPC   C1521291   3.253   0.636   7.444 -0.0953 -0.5574  0.8315
  186POPC  H15A21292   3.234   0.548   7.505  0.2859 -0.4182  1.1609
  186POPC  H15B21293   3.318   0.607   7.362 -0.9734 -1.4635  0.4382
  186POPC  H15C21294   3.162   0.675   7.403  1.8567  2.2366 -1.1817
  186POPC   C1121295   3.307   0.923   7.339  0.0256  0.0309 -0.0565
  186POPC  H11A21296   3.274   0.860   7.255 -0.9967  0.6076 -0.1029
  186POPC  H11B21297   3.380   0.988   7.285 -0.6098 -0.4547 -1.5445
  186POPC     P21298   3.193   1.152   7.359 -0.5252  0.1907 -0.1003
  186POPC   O1321299   3.325   1.206   7.398 -0.0584 -0.4963  0.0245
  186POPC   O1421300   3.064   1.204   7.414 -0.2514  0.1756  0.9169
  186POPC   O1221301   3.201   1.001   7.392 -0.8115  0.1583 -0.0767
  186POPC   O1121302   3.189   1.156   7.205  0.0361  0.5647  0.8080
  186POPC    C121303   3.068   1.138   7.136 -0.0463  0.1188  0.2424
  186POPC    HA21304   3.052   1.226   7.069 -1.7894  0.0323  0.5061
  186POPC    HB21305   2.975   1.152   7.196 -1.5065  1.5013 -2.1427
  186POPC    C221306   3.063   1.005   7.050 -0.6214 -0.8653  0.5535
  186POPC    HS21307   3.100   0.921   7.112  1.1811 -2.3570 -2.3387
  186POPC   O2121308   3.152   1.027   6.941 -0.2977  0.1423 -0.5532
  186POPC   C2121309   3.197   0.920   6.872  0.3713 -0.0816  0.5140
  186POPC   O2221310   3.170   0.806   6.908  0.5155  0.0152  0.0874
  186POPC   C2221311   3.279   0.960   6.751 -0.5698  0.1983  0.4796
  186POPC   H2R21312   3.350   0.877   6.731 -0.1472  0.2923  1.4892
  186POPC   H2S21313   3.334   1.048   6.792 -1.3490  0.4219  1.0712
  186POPC    C321314   2.921   0.960   7.000  0.0247  0.3163  0.5853
  186POPC    HX21315   2.865   0.965   7.096  1.0554  1.3190  1.1486
  186POPC    HY21316   2.924   0.856   6.960 -1.2554 -0.0811  1.4176
  186POPC   O3121317   2.863   1.053   6.906 -0.1540 -0.0780 -0.1375
  186POPC   C3121318   2.734   1.042   6.880 -0.2963 -0.9949  1.2430
  186POPC   O3221319   2.654   0.961   6.919  0.0980 -0.4437  0.2265
  186POPC   C3221320   2.706   1.152   6.772 -0.5476  0.2344 -0.0560
  186POPC   H2X21321   2.799   1.173   6.716  0.2529 -3.4134 -0.3021
  186POPC   H2Y21322   2.666   1.243   6.823 -1.9546 -1.1276  1.3929
  186POPC   C2321323   3.185   1.018   6.637 -0.1556 -0.1458 -0.2760
  186POPC   H3R21324   3.229   1.112   6.598 -1.9614  1.2429  0.8485
  186POPC   H3S21325   3.086   1.044   6.680  0.4756  1.8852  0.0540
  186POPC   C2421326   3.164   0.919   6.525 -0.6961 -0.2361 -0.1396
  186POPC   H4R21327   3.078   0.856   6.555  0.6805 -1.5596  1.1999
  186POPC   H4S21328   3.253   0.854   6.511  0.7796  1.6159  0.2279
  186POPC   C2521329   3.127   0.987   6.397  0.6061 -0.4317 -0.0160
  186POPC   H5R21330   3.214   1.042   6.355  0.7081 -1.9517 -1.8780
  186POPC   H5S21331   3.044   1.058   6.423  1.7809  1.8994 -2.2223
  186POPC   C2621332   3.071   0.895   6.278  0.3416 -0.3178  0.0994
  186POPC   H6R21333   3.001   0.821   6.321  0.7577  0.2319  1.8016
  186POPC   H6S21334   3.162   0.842   6.243  1.4373 -1.8239  4.5996
  186POPC   C2721335   3.020   0.986   6.159  0.2364 -0.1678 -0.2174
  186POPC   H7R21336   3.100   1.063   6.147 -0.0017  0.0587 -0.3704
  186POPC   H7S21337   2.928   1.034   6.198 -0.9156 -1.2649 -1.4683
  186POPC   C2821338   3.001   0.915   6.021  0.6389 -0.3355 -0.2978
  186POPC   H8R21339   3.093   0.859   5.996  0.7550 -0.5324  0.5318
  186POPC   H8S21340   2.987   0.994   5.944 -2.0997 -0.2928  0.1229
  186POPC   C2921341   2.878   0.826   6.007 -0.0587  0.0446  0.2474
  186POPC   H9121342   2.845   0.786   6.104 -0.2986  2.4332  1.2148
  186POPC  C21021343   2.809   0.784   5.897 -0.7590 -0.2322  0.4578
  186POPC  H10121344   2.724   0.715   5.907 -2.1097  1.6840  4.5036
  186POPC  C21121345   2.830   0.832   5.758 -0.2080 -0.2941 -0.2725
  186POPC  H11R21346   2.841   0.739   5.698 -5.2845 -0.4202 -1.4142
  186POPC  H11S21347   2.924   0.891   5.753 -0.0613  0.1617  4.0502
  186POPC  C21221348   2.698   0.915   5.727 -0.1794  0.5481  0.1462
  186POPC  H12R21349   2.690   0.998   5.801  0.8747  0.5850  0.2338
  186POPC  H12S21350   2.612   0.848   5.748  1.2990 -1.0592  1.3406
  186POPC  C21321351   2.689   0.959   5.576 -0.0906 -0.0061 -0.1871
  186POPC  H13R21352   2.737   1.058   5.567  1.3588 -0.8215 -2.2971
  186POPC  H13S21353   2.578   0.961   5.572 -0.1711 -1.7812  0.2424
  186POPC  C21421354   2.749   0.856   5.479  0.4810 -0.1070  0.1403
  186POPC  H14R21355   2.737   0.759   5.531  2.9698 -0.2618  0.5554
  186POPC  H14S21356   2.856   0.886   5.468  0.1612  0.2681 -2.8670
  186POPC  C21521357   2.681   0.850   5.343 -0.4430  0.7013  0.6957
  186POPC  H15R21358   2.576   0.824   5.368 -0.1864 -1.9051 -0.6420
  186POPC  H15S21359   2.723   0.768   5.281  0.0858  2.9442 -2.1607
  186POPC  C21621360   2.683   0.978   5.265 -0.3505  0.4386  0.5873
  186POPC  H16R21361   2.784   1.023   5.257  1.8659 -3.4863  3.3377
  186POPC  H16S21362   2.618   1.054   5.314  0.4603  0.6241  1.4072
  186POPC  C21721363   2.637   0.955   5.119 -0.0526 -0.2369  0.1608
  186POPC  H17R21364   2.533   0.917   5.114 -1.5219  3.3349  0.5631
  186POPC  H17S21365   2.698   0.873   5.076 -1.4152 -1.2879  0.1606
  186POPC  C21821366   2.658   1.088   5.042 -0.8267 -0.1404 -0.3165
  186POPC  H18R21367   2.616   1.058   4.943  0.2758 -1.7593 -0.3374
  186POPC  H18S21368   2.764   1.113   5.021 -1.2332  0.5192 -1.7019
  186POPC  H18T21369   2.607   1.177   5.086 -2.3519 -0.4656 -1.3300
  186POPC   C3321370   2.586   1.102   6.687 -0.1867  0.1739  0.5968
  186POPC   H3X21371   2.549   1.182   6.619 -0.5088  0.4636  1.1030
  186POPC   H3Y21372   2.498   1.065   6.744  0.2126  0.9306  1.7339
  186POPC   C3421373   2.649   1.003   6.593 -0.5308 -0.1021  0.3818
  186POPC   H4X21374   2.655   0.904   6.643 -1.2838 -0.5171 -0.3364
  186POPC   H4Y21375   2.751   1.029   6.557 -0.4719  0.1945  0.7430
  186POPC   C3521376   2.559   0.978   6.473  0.1894  0.5282 -0.6658
  186POPC   H5X21377   2.452   0.987   6.500 -0.3029  0.4176 -2.4103
  186POPC   H5Y21378   2.568   0.874   6.436  3.2436  0.0681  1.0333
  186POPC   C3621379   2.571   1.076   6.350  0.2438 -0.8226 -0.2722
  186POPC   H6X21380   2.674   1.056   6.313  1.0001  2.7039 -0.4064
  186POPC   H6Y21381   2.561   1.180   6.387  3.1831 -1.0030  1.3237
  186POPC   C3721382   2.462   1.046   6.243 -0.1764  0.0427  0.5728
  186POPC   H7X21383   2.359   1.044   6.286 -0.9791 -0.0843 -1.2591
  186POPC   H7Y21384   2.491   0.946   6.207  2.3817  1.5330 -1.8614
  186POPC   C3821385   2.479   1.151   6.130  0.2109 -0.3627 -0.2735
  186POPC   H8X21386   2.589   1.151   6.116  0.0824 -0.5593 -1.3707
  186POPC   H8Y21387   2.439   1.247   6.169 -0.5969 -1.9749  3.1604
  186POPC   C3921388   2.392   1.116   6.011  0.1596 -0.5192  0.1326
  186POPC   H9X21389   2.287   1.123   6.046 -0.6633 -2.3543 -1.7053
  186POPC   H9Y21390   2.401   1.012   5.970  0.3209 -0.1502 -0.8020
  186POPC  C31021391   2.415   1.201   5.884  0.1326  0.8783  0.2532
  186POPC  H10X21392   2.518   1.174   5.852 -0.7819 -2.2707 -0.4225
  186POPC  H10Y21393   2.406   1.310   5.902 -0.7472  0.9815 -0.6972
  186POPC  C31121394   2.309   1.154   5.777 -0.6698 -0.2497  0.4877
  186POPC  H11X21395   2.208   1.185   5.812  0.6233  2.3845  2.2402
  186POPC  H11Y21396   2.317   1.043   5.773  2.4105 -0.1417  0.8314
  186POPC  C31221397   2.337   1.190   5.625 -0.2926 -0.4825  0.2345
  186POPC  H12X21398   2.421   1.127   5.587  0.2226  0.9501 -1.1081
  186POPC  H12Y21399   2.362   1.298   5.618  0.4827 -0.6226  0.6989
  186POPC  C31321400   2.212   1.166   5.544 -0.1351 -0.2021 -0.2749
  186POPC  H13X21401   2.120   1.204   5.594  0.7836 -0.7235  1.9029
  186POPC  H13Y21402   2.211   1.056   5.534  1.3714 -0.3664  0.9706
  186POPC  C31421403   2.214   1.244   5.420 -0.1279  0.0312  0.6740
  186POPC  H14X21404   2.309   1.222   5.367 -0.8239 -1.4982 -0.0245
  186POPC  H14Y21405   2.216   1.353   5.440  0.2146  0.1499  0.0288
  186POPC  C31521406   2.094   1.204   5.330 -0.5950  0.7070 -0.1806
  186POPC  H15X21407   2.019   1.283   5.350  1.5947  2.8849 -0.0605
  186POPC  H15Y21408   2.058   1.102   5.355 -0.0078  1.1983  3.0111
  186POPC  C31621409   2.153   1.202   5.188 -0.7588 -0.5007 -0.2701
  186POPC  H16X21410   2.244   1.139   5.180  1.2129  2.0584  0.2632
  186POPC  H16Y21411   2.191   1.305   5.167 -2.5008  0.1573 -0.3632
  186POPC  H16Z21412   2.081   1.177   5.108 -0.7664 -2.0056  0.1721
  187POPC     N21413   1.044   5.178   2.160 -0.1491 -0.4074  0.0853
  187POPC   C1221414   1.060   5.290   2.261 -0.6956 -0.1098  0.0132
  187POPC  H12A21415   0.964   5.328   2.291 -0.1193  0.8454  0.7411
  187POPC  H12B21416   1.102   5.381   2.220 -3.2553  2.3962  2.4646
  187POPC   C1321417   1.162   5.172   2.069 -0.0290  0.4063 -0.5185
  187POPC  H13A21418   1.178   5.259   2.008  0.4543  0.8922  0.2866
  187POPC  H13B21419   1.251   5.168   2.130 -0.4846  2.6862  0.3930
  187POPC  H13C21420   1.147   5.085   2.007  1.1119 -1.3662  1.5340
  187POPC   C1421421   1.016   5.054   2.237  0.6216 -0.5779  0.0167
  187POPC  H14A21422   0.952   4.992   2.177  1.0031  0.8907 -2.0098
  187POPC  H14B21423   1.106   5.000   2.265 -0.1461 -1.1992  1.4401
  187POPC  H14C21424   0.972   5.076   2.333 -2.3923 -3.1796 -0.6009
  187POPC   C1521425   0.924   5.197   2.080  0.0797 -0.4856  0.0581
  187POPC  H15A21426   0.915   5.294   2.034  0.9249 -1.3481 -2.0412
  187POPC  H15B21427   0.843   5.191   2.152 -0.6242  1.9214 -0.4588
  187POPC  H15C21428   0.910   5.128   1.998  2.0082  1.2740 -1.8726
  187POPC   C1121429   1.148   5.248   2.381 -0.1198  1.0399  0.6559
  187POPC  H11A21430   1.230   5.181   2.347 -1.2945  0.1542 -0.5520
  187POPC  H11B21431   1.084   5.192   2.452 -0.0666  2.4129  1.8349
  187POPC     P21432   1.263   5.394   2.565 -0.5218  0.1393 -0.1015
  187POPC   O1321433   1.182   5.488   2.641 -0.0773 -0.3848 -0.0001
  187POPC   O1421434   1.411   5.424   2.550  0.0195  0.7237  0.5706
  187POPC   O1221435   1.189   5.382   2.422 -0.4454 -0.6298  0.3636
  187POPC   O1121436   1.245   5.254   2.636 -0.2018 -0.7534  0.4655
  187POPC    C121437   1.188   5.246   2.762 -0.2678 -0.2057 -0.5740
  187POPC    HA21438   1.148   5.143   2.773 -1.9844  0.5570  0.8151
  187POPC    HB21439   1.098   5.311   2.766  0.0393  0.1885  0.0818
  187POPC    C221440   1.299   5.265   2.869  0.5695  0.1479  0.6817
  187POPC    HS21441   1.350   5.364   2.865  0.4612  0.1797 -0.0638
  187POPC   O2121442   1.383   5.153   2.858 -0.7845  0.1346 -0.0430
  187POPC   C2121443   1.508   5.186   2.892  0.1814 -0.4418 -0.5239
  187POPC   O2221444   1.552   5.292   2.939 -0.5311  0.0279  0.2355
  187POPC   C2221445   1.593   5.057   2.861  0.0907 -0.4151 -0.3715
  187POPC   H2R21446   1.599   5.064   2.751 -2.2747 -2.4527 -0.7301
  187POPC   H2S21447   1.534   4.966   2.884 -0.2373 -0.4540 -1.3369
  187POPC    C321448   1.238   5.250   3.007  0.4557 -0.3352  0.3437
  187POPC    HX21449   1.178   5.158   3.018 -2.6609  1.7118  1.8501
  187POPC    HY21450   1.154   5.319   3.027  1.2996  1.1566 -0.9915
  187POPC   O3121451   1.330   5.256   3.114 -0.2422  0.0608 -0.4316
  187POPC   C3121452   1.358   5.379   3.177  0.0347 -0.1339 -0.0113
  187POPC   O3221453   1.322   5.485   3.126  0.3673  0.2152  0.2097
  187POPC   C3221454   1.450   5.357   3.295  0.3346 -0.1916 -0.8687
  187POPC   H2X21455   1.531   5.286   3.266 -0.2522 -0.4508 -1.9162
  187POPC   H2Y21456   1.382   5.323   3.376 -2.1413  1.4876 -2.1183
  187POPC   C2321457   1.727   5.053   2.934  0.1867 -0.1787 -0.3778
  187POPC   H3R21458   1.786   5.142   2.901  1.6229  0.6391  3.8132
  187POPC   H3S21459   1.765   4.954   2.902 -0.9968 -0.4508 -1.0096
  187POPC   C2421460   1.726   5.061   3.088 -0.0332  0.8513 -0.1274
  187POPC   H4R21461   1.662   4.984   3.136 -0.4176  0.2068 -1.6437
  187POPC   H4S21462   1.699   5.165   3.120  0.6052  0.7011  0.9414
  187POPC   C2521463   1.872   5.063   3.136  0.3168 -0.1449  0.3407
  187POPC   H5R21464   1.934   5.140   3.085  2.9444 -1.3177  1.5865
  187POPC   H5S21465   1.924   4.970   3.107 -2.5295 -1.4330 -1.0774
  187POPC   C2621466   1.893   5.057   3.290 -0.3487  0.3514 -0.0974
  187POPC   H6R21467   1.846   5.153   3.319  0.4586  1.7217 -2.9715
  187POPC   H6S21468   2.002   5.073   3.304 -0.4013  0.4634  0.1826
  187POPC   C2721469   1.842   4.924   3.349 -0.1432 -0.6987 -0.8878
  187POPC   H7R21470   1.917   4.850   3.313  2.0168  0.3226  1.1759
  187POPC   H7S21471   1.736   4.904   3.324 -0.6628 -1.1154  1.4555
  187POPC   C2821472   1.876   4.919   3.502  0.0451 -0.5808 -0.5672
  187POPC   H8R21473   1.983   4.946   3.509 -0.0775 -0.2088  0.0766
  187POPC   H8S21474   1.864   4.814   3.535 -4.2122 -0.0395  0.2898
  187POPC   C2921475   1.791   5.004   3.596  0.3683  0.4542 -0.6788
  187POPC   H9121476   1.745   5.095   3.555  0.7675  1.6006  1.2796
  187POPC  C21021477   1.793   4.985   3.729  0.4400  0.8705 -0.5754
  187POPC  H10121478   1.734   5.049   3.796  1.1906  0.2293  0.7378
  187POPC  C21121479   1.877   4.887   3.801 -0.3511  0.7493 -0.4143
  187POPC  H11R21480   1.948   4.934   3.871  1.3737 -0.6399 -1.1571
  187POPC  H11S21481   1.936   4.820   3.734 -0.2545 -0.3934  0.7764
  187POPC  C21221482   1.788   4.784   3.881 -0.1780 -0.2338 -0.3132
  187POPC  H12R21483   1.851   4.701   3.917  1.0383  0.4115 -0.8864
  187POPC  H12S21484   1.705   4.734   3.827  0.3197  0.4509 -1.7743
  187POPC  C21321485   1.727   4.842   4.012  0.4167 -0.2196  0.4435
  187POPC  H13R21486   1.643   4.907   3.979 -0.2605 -1.0925  0.4165
  187POPC  H13S21487   1.800   4.903   4.070  1.3186  0.5473 -1.4113
  187POPC  C21421488   1.675   4.735   4.115  0.8882  0.3586 -0.2148
  187POPC  H14R21489   1.762   4.671   4.140  0.3040 -0.5390 -0.4500
  187POPC  H14S21490   1.614   4.670   4.049  1.7822 -0.4766 -0.2491
  187POPC  C21521491   1.602   4.804   4.229 -0.3910 -0.1976  0.8817
  187POPC  H15R21492   1.510   4.845   4.180  1.2053  0.5724 -1.6687
  187POPC  H15S21493   1.657   4.891   4.270 -0.8835  0.7497 -0.3716
  187POPC  C21621494   1.559   4.714   4.345 -0.5309  0.2489  0.0881
  187POPC  H16R21495   1.492   4.629   4.319  0.6366 -1.0666  1.2238
  187POPC  H16S21496   1.515   4.786   4.417 -1.4581  0.7029 -0.9081
  187POPC  C21721497   1.680   4.647   4.413 -0.5133 -0.9641  0.1076
  187POPC  H17R21498   1.754   4.719   4.454  0.5098  1.0527 -4.5658
  187POPC  H17S21499   1.738   4.591   4.336 -0.1657 -0.2337 -0.1681
  187POPC  C21821500   1.625   4.547   4.515  0.2591 -0.2513 -0.2401
  187POPC  H18R21501   1.704   4.491   4.568  1.2159 -0.9035 -2.2631
  187POPC  H18S21502   1.557   4.483   4.455 -0.2152  0.3873 -0.3970
  187POPC  H18T21503   1.561   4.602   4.588 -0.2962 -0.0167 -0.8898
  187POPC   C3321504   1.508   5.490   3.347 -0.8390  0.5644 -0.1427
  187POPC   H3X21505   1.424   5.553   3.381 -0.3955  0.1024  1.9717
  187POPC   H3Y21506   1.564   5.523   3.257 -0.5691 -0.2795 -0.2968
  187POPC   C3421507   1.602   5.479   3.472 -0.3794 -0.0320  0.1192
  187POPC   H4X21508   1.709   5.501   3.451 -0.2442  0.2880  1.0774
  187POPC   H4Y21509   1.607   5.371   3.498 -1.3296  0.4234  2.3829
  187POPC   C3521510   1.562   5.557   3.596 -0.0583  0.0980 -0.9436
  187POPC   H5X21511   1.461   5.526   3.631  0.3714 -0.9370 -0.5546
  187POPC   H5Y21512   1.559   5.660   3.555  5.0787  1.8055  2.0720
  187POPC   C3621513   1.655   5.547   3.715 -0.4042 -0.1189  0.2836
  187POPC   H6X21514   1.755   5.591   3.693 -0.1009 -1.7432 -1.9630
  187POPC   H6Y21515   1.666   5.442   3.750 -1.3955 -0.0624  0.7963
  187POPC   C3721516   1.609   5.621   3.843  0.3931 -0.1230 -0.1205
  187POPC   H7X21517   1.498   5.618   3.850  0.4299  0.5855  0.8464
  187POPC   H7Y21518   1.635   5.729   3.843 -0.6552  0.1494  1.2477
  187POPC   C3821519   1.659   5.568   3.982 -0.1622  0.3231  0.4302
  187POPC   H8X21520   1.770   5.568   3.986 -0.0754  0.0430 -1.3106
  187POPC   H8Y21521   1.631   5.461   3.998  3.5933 -0.6776  1.1235
  187POPC   C3921522   1.608   5.663   4.088 -0.1337 -0.5470  0.1346
  187POPC   H9X21523   1.497   5.664   4.094 -0.1650 -1.8842  0.0990
  187POPC   H9Y21524   1.657   5.762   4.073 -1.0835  0.1577  1.4197
  187POPC  C31021525   1.640   5.609   4.231 -0.3446  0.6149 -0.9602
  187POPC  H10X21526   1.749   5.608   4.255 -0.7069 -3.2928  1.4015
  187POPC  H10Y21527   1.602   5.505   4.232  2.6542 -0.6258 -2.2587
  187POPC  C31121528   1.586   5.699   4.341 -0.2285  1.0266 -0.1153
  187POPC  H11X21529   1.476   5.706   4.325 -0.7820 -1.4702  1.8682
  187POPC  H11Y21530   1.634   5.799   4.345 -0.0237  0.9407 -0.3767
  187POPC  C31221531   1.593   5.636   4.481  0.9177  0.3120 -0.2973
  187POPC  H12X21532   1.696   5.647   4.522  0.1144 -0.7614  2.1576
  187POPC  H12Y21533   1.567   5.528   4.475 -1.5490  0.7920  0.4511
  187POPC  C31321534   1.499   5.697   4.595 -0.2028  0.3923  0.1232
  187POPC  H13X21535   1.394   5.663   4.584 -0.2331  0.5883 -0.2022
  187POPC  H13Y21536   1.489   5.808   4.590 -1.1095  0.5689  3.3753
  187POPC  C31421537   1.539   5.662   4.738 -0.5820 -0.1398  0.4097
  187POPC  H14X21538   1.470   5.713   4.809 -1.0142  0.4321 -0.4051
  187POPC  H14Y21539   1.648   5.685   4.742  0.1565 -3.0703 -0.4608
  187POPC  C31521540   1.516   5.518   4.785 -0.0988 -0.7350  0.0780
  187POPC  H15X21541   1.585   5.507   4.872  0.4582  1.1653 -0.0655
  187POPC  H15Y21542   1.546   5.447   4.706  0.5669 -1.8282  1.2656
  187POPC  C31621543   1.377   5.496   4.845 -0.1297  0.0796  1.2027
  187POPC  H16X21544   1.389   5.405   4.908 -1.3642 -1.3664 -0.5528
  187POPC  H16Y21545   1.301   5.479   4.767 -0.7824  0.7670  1.6760
  187POPC  H16Z21546   1.332   5.572   4.912 -0.4144  1.2240 -0.2544
  188POPC     N21547   1.412   4.531   2.391  0.4634 -0.5370  0.0211
  188POPC   C1221548   1.372   4.409   2.468 -0.0125  1.1185  0.0510
  188POPC  H12A21549   1.399   4.318   2.418 -1.3288  0.0783  1.1646
  188POPC  H12B21550   1.264   4.411   2.460 -0.1874 -0.1261  1.6571
  188POPC   C1321551   1.558   4.517   2.362  0.0643 -0.1859 -0.5350
  188POPC  H13A21552   1.604   4.608   2.327 -1.2563  1.1270  0.9783
  188POPC  H13B21553   1.611   4.503   2.456 -0.3226 -1.4952 -0.4893
  188POPC  H13C21554   1.584   4.450   2.282 -0.2123  1.0923 -1.7408
  188POPC   C1421555   1.335   4.555   2.263 -0.2325  0.0382  0.2062
  188POPC  H14A21556   1.357   4.480   2.188 -2.4396 -1.1175  0.6283
  188POPC  H14B21557   1.233   4.554   2.297 -0.1832  0.3412  0.3603
  188POPC  H14C21558   1.347   4.654   2.221 -0.1661  0.2715  0.7648
  188POPC   C1521559   1.389   4.658   2.463  0.8644 -0.1836  0.1015
  188POPC  H15A21560   1.386   4.747   2.402 -2.1783  1.3287  2.1940
  188POPC  H15B21561   1.461   4.668   2.543  0.9682 -1.6191  0.2058
  188POPC  H15C21562   1.292   4.662   2.511  0.5388 -0.4139 -0.5245
  188POPC   C1121563   1.407   4.402   2.619  0.3927 -0.6955 -0.5709
  188POPC  H11A21564   1.355   4.313   2.661 -1.2639 -0.0318 -1.1051
  188POPC  H11B21565   1.362   4.485   2.679 -2.4833 -2.3111 -0.2855
  188POPC     P21566   1.621   4.259   2.646 -0.0746 -0.2078  0.2867
  188POPC   O1321567   1.745   4.272   2.569 -0.2370 -0.1138 -0.0142
  188POPC   O1421568   1.527   4.154   2.607  0.1197  0.2225  0.2212
  188POPC   O1221569   1.547   4.397   2.632 -0.3449  0.1618  0.4206
  188POPC   O1121570   1.645   4.263   2.801  0.1732 -0.2984 -0.3763
  188POPC    C121571   1.592   4.358   2.896 -0.4839  0.4019 -0.0779
  188POPC    HA21572   1.600   4.466   2.869  0.2306  0.7729  1.5089
  188POPC    HB21573   1.671   4.349   2.973 -1.0722 -0.6487  0.4278
  188POPC    C221574   1.445   4.328   2.949  0.1108 -1.2394  0.0093
  188POPC    HS21575   1.376   4.387   2.884 -2.1898 -0.3482  3.0063
  188POPC   O2121576   1.439   4.363   3.090  0.0827 -0.0351  0.6545
  188POPC   C2121577   1.322   4.408   3.142 -0.6510 -0.2425  0.0080
  188POPC   O2221578   1.228   4.437   3.070  0.2720 -0.1323 -0.4593
  188POPC   C2221579   1.331   4.438   3.291  0.2158  0.2164  0.3693
  188POPC   H2R21580   1.393   4.529   3.299  0.5833 -0.0565  0.6487
  188POPC   H2S21581   1.384   4.348   3.330 -1.6606 -0.4922  1.4250
  188POPC    C321582   1.410   4.179   2.927 -0.1479 -0.0887  0.4063
  188POPC    HX21583   1.486   4.115   2.979  0.3721 -0.6312 -0.9792
  188POPC    HY21584   1.436   4.156   2.822  0.8699 -2.4372  1.1021
  188POPC   O3121585   1.279   4.140   2.969  0.1012  0.1442 -0.6642
  188POPC   C3121586   1.169   4.171   2.899 -0.0429  0.4938 -0.1239
  188POPC   O3221587   1.156   4.226   2.793 -0.3834 -0.5674 -0.2345
  188POPC   C3221588   1.048   4.112   2.978  0.3564 -0.7591  0.0021
  188POPC   H2X21589   0.965   4.120   2.905  0.7172 -2.4972 -0.6555
  188POPC   H2Y21590   1.028   4.159   3.076  1.2678  0.1242 -0.2128
  188POPC   C2321591   1.192   4.471   3.352  0.0313 -0.2105  0.2221
  188POPC   H3R21592   1.149   4.553   3.290 -1.3272 -1.3115 -0.3641
  188POPC   H3S21593   1.194   4.509   3.456 -1.3643  0.5233  0.0145
  188POPC   C2421594   1.098   4.341   3.354 -0.0478  0.0735 -0.1038
  188POPC   H4R21595   1.132   4.272   3.435  0.1617 -0.0984 -0.3344
  188POPC   H4S21596   1.119   4.288   3.259 -0.5323  1.5884 -1.0883
  188POPC   C2521597   0.946   4.358   3.382  0.1177 -0.3642  0.0089
  188POPC   H5R21598   0.895   4.263   3.357  0.3523 -0.2763 -0.8365
  188POPC   H5S21599   0.921   4.431   3.302  1.5513 -0.8509 -0.9172
  188POPC   C2621600   0.916   4.400   3.525  0.2298  0.6560  0.1416
  188POPC   H6R21601   0.815   4.444   3.536  0.3199  1.1874 -1.0865
  188POPC   H6S21602   0.989   4.458   3.584 -1.0301  1.1971  1.2179
  188POPC   C2721603   0.886   4.264   3.605 -0.4842 -0.3087  0.2433
  188POPC   H7R21604   0.983   4.213   3.625 -0.0006  1.0020  1.4218
  188POPC   H7S21605   0.813   4.196   3.558 -0.6054 -3.1539  4.0431
  188POPC   C2821606   0.839   4.297   3.759  0.0282  0.0858 -0.3746
  188POPC   H8R21607   0.801   4.202   3.803  0.3710  0.5175  0.8806
  188POPC   H8S21608   0.757   4.370   3.745 -0.6668 -0.6754 -0.3433
  188POPC   C2921609   0.947   4.348   3.852 -0.1746  0.1671 -0.2954
  188POPC   H9121610   0.994   4.438   3.810  1.6509 -1.0043 -0.8956
  188POPC  C21021611   0.994   4.294   3.967  0.2238 -0.5039 -0.6178
  188POPC  H10121612   1.071   4.352   4.020 -1.2100  0.5464  0.3852
  188POPC  C21121613   0.945   4.161   4.033 -0.2046 -0.1328  0.3869
  188POPC  H11R21614   1.030   4.090   4.039  0.9169  1.2093  0.9592
  188POPC  H11S21615   0.868   4.101   3.979 -0.1053 -1.7024  1.8770
  188POPC  C21221616   0.897   4.181   4.185 -0.0061  0.0400  0.2856
  188POPC  H12R21617   0.973   4.244   4.235 -0.8349  0.6482  0.8155
  188POPC  H12S21618   0.897   4.078   4.228 -3.4969  0.2722  1.1434
  188POPC  C21321619   0.767   4.249   4.183  0.3667  0.0961  0.1884
  188POPC  H13R21620   0.703   4.205   4.103  0.9387 -1.2267  0.4262
  188POPC  H13S21621   0.773   4.355   4.151 -0.1849 -0.2763 -1.2569
  188POPC  C21421622   0.690   4.232   4.317 -0.8909 -0.3247  0.2841
  188POPC  H14R21623   0.593   4.285   4.316 -0.7901 -0.1402 -0.0160
  188POPC  H14S21624   0.742   4.284   4.400 -1.2948  1.0647 -0.3020
  188POPC  C21521625   0.660   4.090   4.367  1.1704  1.0895 -0.1695
  188POPC  H15R21626   0.751   4.037   4.402  1.5003  0.3292 -2.0570
  188POPC  H15S21627   0.614   4.035   4.282 -0.4626  1.0633  0.6850
  188POPC  C21621628   0.542   4.084   4.477 -0.8389 -0.6384  0.3121
  188POPC  H16R21629   0.520   3.976   4.492  0.0220 -0.6500  1.6908
  188POPC  H16S21630   0.451   4.141   4.450 -0.0224 -0.5264 -2.5665
  188POPC  C21721631   0.598   4.137   4.620  0.0947 -0.1435  1.0669
  188POPC  H17R21632   0.606   4.248   4.618 -1.0521 -0.0339 -1.5679
  188POPC  H17S21633   0.699   4.090   4.624 -0.1254 -0.5163  2.8578
  188POPC  C21821634   0.520   4.084   4.735 -0.0592 -0.8498 -0.2852
  188POPC  H18R21635   0.527   3.973   4.742 -1.8568 -0.9334  0.5661
  188POPC  H18S21636   0.413   4.112   4.719 -0.3613 -1.4975  0.5461
  188POPC  H18T21637   0.557   4.127   4.830  1.5752  0.3199 -1.3918
  188POPC   C3321638   1.052   3.959   3.005  0.1444  0.2357 -0.3582
  188POPC   H3X21639   1.114   3.933   3.094 -0.0551 -0.6848 -0.4735
  188POPC   H3Y21640   1.096   3.903   2.920 -1.1897  0.2504 -1.0859
  188POPC   C3421641   0.914   3.893   3.013 -0.2228 -0.3492  0.2792
  188POPC   H4X21642   0.863   3.896   2.914  1.3981 -0.4117 -0.5841
  188POPC   H4Y21643   0.846   3.951   3.080 -1.2082  0.3330 -1.2626
  188POPC   C3521644   0.899   3.747   3.050 -0.4780 -0.3291  0.0477
  188POPC   H5X21645   0.960   3.687   2.980 -1.3502 -1.0831 -0.0853
  188POPC   H5Y21646   0.790   3.724   3.043 -0.5668 -0.4411  1.5181
  188POPC   C3621647   0.945   3.714   3.194  0.4133 -0.7532  0.0856
  188POPC   H6X21648   1.055   3.727   3.189  0.1073  2.5928 -0.4830
  188POPC   H6Y21649   0.906   3.616   3.228  0.2769 -0.0149  2.2120
  188POPC   C3721650   0.895   3.811   3.309  0.3054  0.6811 -0.1814
  188POPC   H7X21651   0.785   3.819   3.307  0.2899  0.3929 -0.5984
  188POPC   H7Y21652   0.938   3.913   3.297  0.5278  0.5372 -0.6612
  188POPC   C3821653   0.948   3.749   3.441  0.4395 -0.0211  0.7619
  188POPC   H8X21654   1.058   3.742   3.427  0.2270 -0.3516 -0.9634
  188POPC   H8Y21655   0.912   3.645   3.458 -0.4888  0.5417  2.4798
  188POPC   C3921656   0.902   3.826   3.566  0.2343  0.1730  0.4988
  188POPC   H9X21657   0.791   3.820   3.570  0.2717 -1.0116  0.0165
  188POPC   H9Y21658   0.924   3.934   3.551  0.2572  0.1265  0.1739
  188POPC  C31021659   0.962   3.772   3.695  0.5491 -0.0599 -0.4733
  188POPC  H10X21660   1.067   3.802   3.711  0.0422  1.1277  0.8439
  188POPC  H10Y21661   0.962   3.661   3.691  0.0532 -0.0898  0.2061
  188POPC  C31121662   0.875   3.810   3.816  0.9849 -0.0896 -0.1570
  188POPC  H11X21663   0.768   3.806   3.784  1.1300 -0.3403 -0.6173
  188POPC  H11Y21664   0.897   3.911   3.857  0.2342 -0.6569  1.7301
  188POPC  C31221665   0.896   3.714   3.937  0.0810 -0.3989  0.4176
  188POPC  H12X21666   0.999   3.692   3.972  0.4170 -1.0787 -0.9364
  188POPC  H12Y21667   0.853   3.614   3.912  0.0884 -0.5363  0.9376
  188POPC  C31321668   0.808   3.766   4.053 -0.0492 -0.5920  0.9529
  188POPC  H13X21669   0.704   3.781   4.019  1.4496  1.7157 -3.3660
  188POPC  H13Y21670   0.854   3.859   4.092  0.0264 -0.2413  0.0606
  188POPC  C31421671   0.798   3.673   4.173 -0.1507  0.2965  0.6833
  188POPC  H14X21672   0.901   3.643   4.201 -0.4050  0.7564  2.2200
  188POPC  H14Y21673   0.740   3.583   4.144  0.1403  0.1241  0.6383
  188POPC  C31521674   0.735   3.742   4.294 -0.0356  0.4172  0.3917
  188POPC  H15X21675   0.636   3.782   4.265 -0.4207 -1.0777 -0.4657
  188POPC  H15Y21676   0.801   3.830   4.308  0.7785  0.1262 -1.2705
  188POPC  C31621677   0.713   3.648   4.406 -0.5540  0.5342 -0.7490
  188POPC  H16X21678   0.670   3.555   4.363 -0.3435  0.6581 -1.2414
  188POPC  H16Y21679   0.638   3.682   4.480  0.4232 -0.8899  0.9891
  188POPC  H16Z21680   0.804   3.631   4.469 -1.9368 -0.1811  1.1405
  189SAPI   C1221681   2.599   6.559   7.788 -0.5194  0.0624  0.4460
  189SAPI    H221682   2.629   6.665   7.781  0.8953 -0.3615 -0.3064
  189SAPI    O221683   2.707   6.477   7.827 -0.4741 -0.1477  0.0165
  189SAPI   HO221684   2.785   6.532   7.830 -1.1849  0.8671  0.3608
  189SAPI   C1321685   2.473   6.549   7.876 -0.4019  0.1114  0.7819
  189SAPI    H321686   2.399   6.613   7.823  0.9456  0.2181 -1.0442
  189SAPI    O321687   2.504   6.613   8.004  0.1675  0.5123  0.3572
  189SAPI   HO321688   2.594   6.589   8.025  0.3615  2.7931  2.5885
  189SAPI   C1421689   2.414   6.412   7.883 -0.0570 -0.3747 -0.1158
  189SAPI    H421690   2.477   6.357   7.955 -0.0300  1.4354  1.3311
  189SAPI    O421691   2.294   6.418   7.953  0.0332  0.1516 -0.1417
  189SAPI   HO421692   2.327   6.420   8.043  2.3617  1.2728 -0.9416
  189SAPI   C1521693   2.395   6.342   7.747 -0.0302 -0.2519 -0.0042
  189SAPI    H521694   2.293   6.369   7.713 -0.3493 -0.1287  1.0081
  189SAPI    O521695   2.389   6.204   7.761  0.2569 -0.1458 -0.1995
  189SAPI   HO521696   2.414   6.176   7.849 -2.1347 -2.1983 -0.0535
  189SAPI   C1621697   2.487   6.387   7.632  0.1677  0.3524 -0.4218
  189SAPI    H621698   2.570   6.315   7.648 -0.9547 -1.1940 -1.3384
  189SAPI    O621699   2.424   6.364   7.502  0.7454  0.1509 -0.2582
  189SAPI   HO621700   2.481   6.298   7.462  1.0432  0.7305 -0.8127
  189SAPI   C1121701   2.557   6.518   7.644 -0.4649 -0.8201  0.9201
  189SAPI    H121702   2.478   6.589   7.613  1.3104  0.4557 -0.9469
  189SAPI     P21703   2.711   6.654   7.485  0.0866  0.2129 -0.1238
  189SAPI   O1321704   2.855   6.660   7.464 -0.7755 -0.3109 -0.5730
  189SAPI   O1421705   2.655   6.763   7.569  0.2425  0.0661  0.5235
  189SAPI   O1221706   2.677   6.516   7.560  0.1285 -0.4165  0.2908
  189SAPI   O1121707   2.632   6.640   7.346  0.0687 -0.1405  0.6973
  189SAPI    C121708   2.504   6.696   7.328 -0.4360  0.1654  0.0471
  189SAPI    HA21709   2.425   6.634   7.374 -1.3349  0.7514 -0.6668
  189SAPI    HB21710   2.497   6.795   7.379  0.0922 -0.9226  2.3222
  189SAPI    C221711   2.463   6.706   7.184  0.0688  0.1515 -0.3404
  189SAPI    HS21712   2.365   6.756   7.171  0.8553  1.2381 -2.4601
  189SAPI   O2121713   2.456   6.577   7.121  0.2549 -0.1765  0.2161
  189SAPI   C2121714   2.358   6.497   7.161 -0.1310 -0.6565  0.3128
  189SAPI   O2221715   2.266   6.532   7.236  1.1452  0.4071 -1.1074
  189SAPI   C2221716   2.379   6.357   7.103 -0.1720 -0.1049  0.1212
  189SAPI   H2R21717   2.411   6.369   6.997  0.2669 -0.9385  0.1466
  189SAPI   H2S21718   2.461   6.304   7.157 -0.9403 -0.1913  1.2303
  189SAPI    C321719   2.560   6.797   7.106 -0.0851  0.4321  0.1569
  189SAPI    HX21720   2.653   6.738   7.087  0.2506  1.5693 -2.1342
  189SAPI    HY21721   2.592   6.883   7.169  1.7087 -0.2419  0.2409
  189SAPI   O3121722   2.509   6.830   6.979  0.1684 -0.2774  0.7247
  189SAPI   C3121723   2.476   6.954   6.947  0.4034 -0.1687  0.3270
  189SAPI   O3221724   2.472   7.046   7.023  0.7687 -0.2418 -0.0907
  189SAPI   C3221725   2.443   6.965   6.800 -0.3532  0.4619 -0.0963
  189SAPI   H2X21726   2.445   6.858   6.769 -0.0771  0.3849  0.1784
  189SAPI   H2Y21727   2.528   7.018   6.752 -0.6434  0.6863 -0.3633
  189SAPI   C2321728   2.242   6.274   7.101  0.5084 -0.3618  0.0907
  189SAPI   H3R21729   2.168   6.330   7.039 -0.9744  1.4413  3.2449
  189SAPI   H3S21730   2.197   6.280   7.202 -1.5368  2.6108 -0.8672
  189SAPI   C2421731   2.260   6.130   7.053  0.1525  0.5533  0.1886
  189SAPI   H4R21732   2.310   6.067   7.129  0.6820  2.6534  1.6771
  189SAPI   H4S21733   2.323   6.134   6.962 -0.0883 -0.8491 -0.0535
  189SAPI   C2521734   2.125   6.075   7.018 -0.3533 -0.2732 -0.3631
  189SAPI   H5R21735   2.055   6.071   7.103 -1.1920 -0.8927 -1.0645
  189SAPI   C2621736   2.075   6.051   6.894 -0.2053 -0.0743  0.2677
  189SAPI   H6R21737   1.970   6.020   6.889 -0.5778  1.2678 -3.5321
  189SAPI   C2721738   2.130   6.058   6.757 -0.4527  1.1023 -0.1957
  189SAPI   H7R21739   2.224   6.116   6.755  0.8640 -0.9455 -1.0302
  189SAPI   H7S21740   2.066   6.126   6.697 -0.7525  3.0577  2.1951
  189SAPI   C2821741   2.138   5.925   6.686  0.3549 -0.1140 -0.5173
  189SAPI   H8R21742   2.219   5.855   6.715 -1.2374 -0.9603  2.3233
  189SAPI   C2921743   2.056   5.873   6.593 -0.3193  0.1796 -0.1000
  189SAPI   H9R21744   2.081   5.774   6.553  0.7254  0.8863 -1.2455
  189SAPI  C21021745   1.941   5.941   6.516 -0.4167 -0.7670 -0.8191
  189SAPI  H10R21746   1.984   6.026   6.459  1.7808 -0.9864  0.4116
  189SAPI  H10S21747   1.886   6.001   6.592  1.1571 -1.0081  0.5651
  189SAPI  C21121748   1.854   5.855   6.433  0.3039 -0.4503  0.2274
  189SAPI  H11R21749   1.785   5.788   6.486  0.3678  0.1239  1.0565
  189SAPI  C21221750   1.846   5.860   6.293 -0.0711 -0.3268  0.0871
  189SAPI  H12R21751   1.764   5.798   6.255 -0.6964  0.2649  0.4371
  189SAPI  C21321752   1.932   5.943   6.197  0.3734 -0.0941 -0.0616
  189SAPI  H13R21753   1.992   6.024   6.243  3.2440 -0.6320 -2.5485
  189SAPI  H13S21754   1.866   6.006   6.134 -1.3389 -1.3826  0.3602
  189SAPI  C21421755   2.034   5.861   6.129 -0.3259  0.6553  0.3940
  189SAPI  H14R21756   2.108   5.818   6.198 -0.5843  1.1664  1.0044
  189SAPI  C21521757   2.052   5.835   5.996  0.2334  0.0351 -0.6131
  189SAPI  H15R21758   2.149   5.788   5.974 -0.0693 -1.0486  0.2888
  189SAPI  C21621759   1.973   5.888   5.883  0.2223 -0.3330 -0.0707
  189SAPI  H16R21760   2.054   5.926   5.817 -0.7727  1.8330 -0.1283
  189SAPI  H16S21761   1.918   5.978   5.918  0.0415 -0.8849  1.1231
  189SAPI  C21721762   1.885   5.781   5.825 -0.2735 -0.5699  0.1461
  189SAPI  H17R21763   1.804   5.768   5.900 -0.2019  2.3384  0.8577
  189SAPI  H17S21764   1.935   5.684   5.804 -2.9738 -2.8996  3.4418
  189SAPI  C21821765   1.821   5.822   5.688 -0.0346 -1.2141 -0.3648
  189SAPI  H18R21766   1.770   5.920   5.698 -0.5209 -1.6327  1.8597
  189SAPI  H18S21767   1.757   5.740   5.649 -0.2882 -0.7237 -0.9924
  189SAPI  C21921768   1.924   5.838   5.575 -0.5499  0.0136 -0.4251
  189SAPI  H19R21769   1.974   5.742   5.552  1.1149  0.8118 -0.2963
  189SAPI  H19S21770   2.010   5.898   5.613  1.1119 -3.2255  1.2592
  189SAPI  C22021771   1.861   5.897   5.446 -0.2559 -0.5599  0.5040
  189SAPI  H20R21772   1.831   6.001   5.468 -3.0326 -1.1718 -0.0849
  189SAPI  H20S21773   1.783   5.838   5.395 -0.2409  0.9353 -1.3187
  189SAPI  H20T21774   1.941   5.890   5.369  0.6763 -2.0771  1.5453
  189SAPI   C3321775   2.306   7.025   6.763  0.1186 -0.2687  0.4123
  189SAPI   H3X21776   2.292   7.117   6.824 -0.8052 -1.4949  2.1488
  189SAPI   H3Y21777   2.226   6.953   6.793 -0.1554 -0.8802 -1.6480
  189SAPI   C3421778   2.297   7.055   6.614 -0.3811  0.4913  0.5482
  189SAPI   H4X21779   2.383   7.120   6.588 -0.4355  0.8010  1.1245
  189SAPI   H4Y21780   2.206   7.114   6.588 -0.8298 -0.8467 -1.0306
  189SAPI   C3521781   2.301   6.936   6.520 -0.8217 -0.6523 -0.2906
  189SAPI   H5X21782   2.202   6.888   6.530 -1.3405  0.6629  1.5146
  189SAPI   H5Y21783   2.378   6.862   6.549 -1.8993 -1.9933 -0.7824
  189SAPI   C3621784   2.311   6.995   6.375  0.3239  1.1160  0.4953
  189SAPI   H6X21785   2.403   7.052   6.351  0.5560 -0.1794 -2.0185
  189SAPI   H6Y21786   2.219   7.056   6.361 -1.6776 -1.9242 -0.7525
  189SAPI   C3721787   2.302   6.893   6.274 -0.0022 -0.2031 -0.2676
  189SAPI   H7X21788   2.207   6.836   6.289 -0.8340  1.4016  0.8708
  189SAPI   H7Y21789   2.382   6.816   6.285  1.2375  1.2641  1.6073
  189SAPI   C3821790   2.293   6.947   6.134  0.1431  0.3090  0.0790
  189SAPI   H8X21791   2.375   7.020   6.117  0.2396  0.1310 -0.2175
  189SAPI   H8Y21792   2.195   6.990   6.107  0.5375  1.9626  1.1097
  189SAPI   C3921793   2.309   6.837   6.033 -0.6282 -0.0353 -0.3720
  189SAPI   H9X21794   2.232   6.757   6.041  1.7446 -2.4618 -0.2595
  189SAPI   H9Y21795   2.409   6.792   6.048 -1.4782 -1.9086 -0.0515
  189SAPI  C31021796   2.317   6.884   5.881 -0.7371  0.0173  0.2053
  189SAPI  H10X21797   2.321   6.790   5.822 -0.9260  0.5335 -0.6439
  189SAPI  H10Y21798   2.416   6.932   5.868 -0.5027 -0.9052 -1.6944
  189SAPI  C31121799   2.202   6.965   5.821  0.1750  0.0766 -0.2631
  189SAPI  H11X21800   2.217   7.061   5.874 -2.6881  0.2913  0.3124
  189SAPI  H11Y21801   2.104   6.919   5.846 -0.7103  0.4902 -2.7009
  189SAPI  C31221802   2.218   6.975   5.668  0.4863  0.2612 -0.0304
  189SAPI  H12X21803   2.324   6.973   5.635  0.4432 -0.1430 -0.1502
  189SAPI  H12Y21804   2.183   7.079   5.650 -1.7030 -0.4078  0.0456
  189SAPI  C31321805   2.126   6.882   5.591 -0.6554 -0.3296  0.4629
  189SAPI  H13X21806   2.020   6.915   5.598 -0.8494 -0.6554 -0.7801
  189SAPI  H13Y21807   2.133   6.778   5.632  1.2855 -0.5617 -0.3777
  189SAPI  C31421808   2.159   6.872   5.440  0.5485  0.1080 -1.0802
  189SAPI  H14X21809   2.108   6.793   5.380  1.9161 -1.0784 -0.7449
  189SAPI  H14Y21810   2.268   6.858   5.426  0.5056  0.4621 -1.8363
  189SAPI  C31521811   2.122   7.006   5.377  0.0120 -0.2805 -0.0940
  189SAPI  H15X21812   2.181   7.088   5.423 -1.0649 -0.0692  0.9710
  189SAPI  H15Y21813   2.019   7.040   5.404  0.1418 -0.3585  0.5126
  189SAPI  C31621814   2.144   7.002   5.219 -0.2383 -0.0650 -1.0949
  189SAPI  H16X21815   2.102   6.903   5.193 -1.8794  0.0643  0.7620
  189SAPI  H16Y21816   2.253   7.000   5.198 -0.1713  1.1429 -0.9901
  189SAPI  C31721817   2.084   7.122   5.136 -0.3475  0.2096  0.0210
  189SAPI  H17X21818   1.985   7.154   5.177 -0.6067  0.5866 -0.8630
  189SAPI  H17Y21819   2.047   7.086   5.038 -1.9924 -0.5206  0.8618
  189SAPI  C31821820   2.189   7.237   5.110 -0.2463  0.5994 -0.6505
  189SAPI  H18X21821   2.229   7.284   5.202  0.7953 -0.2342 -0.6471
  189SAPI  H18Y21822   2.157   7.318   5.041 -0.0795  0.3573 -1.0180
  189SAPI  H18Z21823   2.284   7.196   5.069  1.0705  1.0104  1.7678
  190SAPI   C1221824   3.160   3.171   7.362  0.4292 -0.3366  0.4191
  190SAPI    H221825   3.263   3.171   7.321  1.0039 -1.3038  1.7807
  190SAPI    O221826   3.160   3.102   7.484 -0.4460  0.2279 -0.0657
  190SAPI   HO221827   3.225   3.034   7.464  0.4806  0.6857  1.2663
  190SAPI   C1321828   3.101   3.306   7.379 -0.0715  0.3135 -0.4842
  190SAPI    H321829   3.112   3.353   7.279  0.9664  1.0828 -0.0375
  190SAPI    O321830   3.176   3.401   7.464 -0.6869  0.2929 -0.4496
  190SAPI   HO321831   3.209   3.356   7.542 -1.0437 -1.3208 -1.1885
  190SAPI   C1421832   2.955   3.307   7.428 -0.1271 -0.5356 -0.3185
  190SAPI    H421833   2.964   3.303   7.539  0.1895  0.4734 -0.3026
  190SAPI    O421834   2.898   3.432   7.388  0.2361  0.5059 -0.3846
  190SAPI   HO421835   2.969   3.492   7.409  1.5596 -0.8505 -0.8126
  190SAPI   C1521836   2.869   3.190   7.392  0.7530 -0.7180 -0.4211
  190SAPI    H521837   2.803   3.219   7.308  1.0304 -0.0631 -0.4145
  190SAPI    O521838   2.774   3.167   7.506  0.0708  0.3769  0.2745
  190SAPI   HO521839   2.736   3.253   7.526 -0.9229  0.0848 -0.3326
  190SAPI   C1621840   2.932   3.069   7.338 -1.0738  0.3376 -0.0882
  190SAPI    H621841   2.952   3.004   7.426  0.9135  0.9749 -0.0193
  190SAPI    O621842   2.849   2.997   7.235 -0.5275 -0.1120 -0.0834
  190SAPI   HO621843   2.849   3.045   7.151  0.2692  0.9807  0.5084
  190SAPI   C1121844   3.066   3.096   7.269  0.7358  0.4151 -0.3429
  190SAPI    H121845   3.045   3.153   7.176  0.9116  2.1014  0.6176
  190SAPI     P21846   3.257   2.971   7.120 -0.0894  0.2342  0.1124
  190SAPI   O1321847   3.357   2.885   7.181 -0.5721 -0.5917 -0.0950
  190SAPI   O1421848   3.298   3.109   7.087 -0.0877 -0.4371  0.3995
  190SAPI   O1221849   3.130   2.972   7.227  0.2899 -0.1181  0.5415
  190SAPI   O1121850   3.219   2.910   6.976 -0.6228  0.2036 -0.3680
  190SAPI    C121851   3.085   2.911   6.917 -0.3901 -0.0117 -0.2358
  190SAPI    HA21852   3.055   2.810   6.884 -0.1585 -0.7290  1.6222
  190SAPI    HB21853   3.007   2.931   6.993 -1.7905  2.2136 -2.1087
  190SAPI    C221854   3.077   3.009   6.795 -0.2622 -0.5161  0.5428
  190SAPI    HS21855   2.974   3.011   6.752  0.0150 -1.9987 -0.2365
  190SAPI   O2121856   3.164   2.967   6.690  0.1799  0.0935 -0.3818
  190SAPI   C2121857   3.125   2.865   6.622  0.3862 -0.5385  0.3369
  190SAPI   O2221858   3.031   2.792   6.633  0.4395 -0.0801  0.4963
  190SAPI   C2221859   3.240   2.825   6.525 -0.7181 -0.0400  0.0833
  190SAPI   H2R21860   3.336   2.816   6.580 -0.2630 -1.5155 -0.8837
  190SAPI   H2S21861   3.210   2.722   6.495 -0.6738 -0.3410  1.0477
  190SAPI    C321862   3.115   3.161   6.829  0.0867  0.4578  0.6675
  190SAPI    HX21863   3.215   3.157   6.877  0.7927 -5.9688 -0.3482
  190SAPI    HY21864   3.035   3.191   6.901  1.1493 -3.3194  3.8006
  190SAPI   O3121865   3.095   3.240   6.703 -0.8321  0.1897 -0.0954
  190SAPI   C3121866   3.205   3.304   6.667  0.0923 -0.0995 -0.8776
  190SAPI   O3221867   3.312   3.301   6.726 -0.0733 -0.4230  0.1572
  190SAPI   C3221868   3.181   3.368   6.526 -0.1217  0.1392  0.2150
  190SAPI   H2X21869   3.100   3.445   6.525 -1.1726 -0.9390  0.0917
  190SAPI   H2Y21870   3.132   3.289   6.465 -2.0814  0.7946  0.8476
  190SAPI   C2321871   3.254   2.918   6.406 -0.4817  0.3187  0.6527
  190SAPI   H3R21872   3.340   2.891   6.341 -0.7190  0.9039  0.0817
  190SAPI   H3S21873   3.284   3.013   6.455 -1.0726 -0.2219  2.0873
  190SAPI   C2421874   3.132   2.943   6.309  0.5089  0.6036  0.3720
  190SAPI   H4R21875   3.142   3.044   6.264  1.0645  1.0365  1.4226
  190SAPI   H4S21876   3.042   2.947   6.373  1.1541  0.5540  1.3017
  190SAPI   C2521877   3.117   2.825   6.209 -0.4136 -0.2122  0.5613
  190SAPI   H5R21878   3.143   2.723   6.238  0.0351  0.1592  1.5043
  190SAPI   C2621879   3.088   2.842   6.075  0.2943 -0.2926  0.6225
  190SAPI   H6R21880   3.107   2.762   6.002 -1.3344  0.9677 -1.2772
  190SAPI   C2721881   3.057   2.971   5.996 -0.2699  0.8493 -0.1704
  190SAPI   H7R21882   3.015   3.049   6.064 -1.4131  1.4029 -1.4634
  190SAPI   H7S21883   2.969   2.956   5.930 -0.4137  0.5980  0.0740
  190SAPI   C2821884   3.184   3.037   5.939  0.5183  0.2459  0.1596
  190SAPI   H8R21885   3.218   3.130   5.988  1.6898  1.2666 -2.4172
  190SAPI   C2921886   3.248   2.997   5.828 -0.5326  0.9874 -0.0508
  190SAPI   H9R21887   3.330   3.057   5.784 -0.0099 -0.4425 -1.1047
  190SAPI  C21021888   3.227   2.878   5.739  0.5759  0.4901  0.8672
  190SAPI  H10R21889   3.208   2.780   5.786  0.9561 -1.1982 -2.2071
  190SAPI  H10S21890   3.318   2.854   5.679  1.4932  0.0052  2.3935
  190SAPI  C21121891   3.106   2.895   5.655 -0.4511 -0.8144 -0.2366
  190SAPI  H11R21892   3.014   2.928   5.706 -0.6151  0.7882 -1.4822
  190SAPI  C21221893   3.092   2.851   5.527 -0.5188 -0.3827 -0.2028
  190SAPI  H12R21894   2.990   2.853   5.487 -1.1426  2.4623  1.2322
  190SAPI  C21321895   3.201   2.788   5.444  0.0558  0.2330 -0.4570
  190SAPI  H13R21896   3.259   2.712   5.500 -1.3393  0.2624  1.1120
  190SAPI  H13S21897   3.275   2.865   5.416 -0.5436  1.2709  0.7070
  190SAPI  C21421898   3.148   2.726   5.319  0.0847 -0.1947  0.3492
  190SAPI  H14R21899   3.039   2.709   5.311  0.3704 -2.4463  0.5110
  190SAPI  C21521900   3.223   2.693   5.216  0.5658 -0.3731  0.4037
  190SAPI  H15R21901   3.170   2.650   5.130 -1.5802 -2.0592  2.4211
  190SAPI  C21621902   3.370   2.695   5.209  0.3620  0.2703 -0.6921
  190SAPI  H16R21903   3.412   2.689   5.312  0.2528  2.8162 -0.4423
  190SAPI  H16S21904   3.413   2.789   5.169  0.2990  0.5180 -0.1952
  190SAPI  C21721905   3.426   2.572   5.131  0.0502  0.1403 -0.3041
  190SAPI  H17R21906   3.533   2.555   5.156  0.2129  0.0834 -1.0214
  190SAPI  H17S21907   3.423   2.585   5.020 -0.5860 -2.8113 -0.7203
  190SAPI  C21821908   3.359   2.437   5.160 -0.4527 -0.5500 -0.1353
  190SAPI  H18R21909   3.389   2.372   5.075  0.0669  1.6775 -1.7310
  190SAPI  H18S21910   3.250   2.442   5.136 -0.3267  0.4014 -0.5647
  190SAPI  C21921911   3.391   2.370   5.297 -0.1582  0.0734 -0.0712
  190SAPI  H19R21912   3.364   2.438   5.380 -0.4479  1.5825 -1.3465
  190SAPI  H19S21913   3.502   2.364   5.304 -0.1704 -0.9619 -0.5422
  190SAPI  C22021914   3.330   2.230   5.312 -1.0256  0.4474 -0.4539
  190SAPI  H20R21915   3.220   2.243   5.298 -0.7057  2.3621 -1.6482
  190SAPI  H20S21916   3.372   2.184   5.404  0.6919 -1.0020 -1.9066
  190SAPI  H20T21917   3.365   2.167   5.228 -2.0841 -1.2876  0.3569
  190SAPI   C3321918   3.306   3.416   6.450  0.4179  0.6391 -0.0386
  190SAPI   H3X21919   3.363   3.327   6.416 -0.6344  0.7243 -2.2205
  190SAPI   H3Y21920   3.375   3.476   6.513  3.3205 -1.5637 -0.8985
  190SAPI   C3421921   3.263   3.489   6.325  0.2862  0.4844 -0.1654
  190SAPI   H4X21922   3.315   3.587   6.318 -0.0255  0.5437 -1.8594
  190SAPI   H4Y21923   3.154   3.510   6.324  0.3413  0.9935 -3.2205
  190SAPI   C3521924   3.282   3.413   6.201 -0.8400  0.1150  0.1286
  190SAPI   H5X21925   3.225   3.318   6.206  1.8915 -1.6330 -0.3110
  190SAPI   H5Y21926   3.388   3.381   6.189 -0.4453  0.7703  1.6966
  190SAPI   C3621927   3.225   3.498   6.074 -0.3783 -0.7918  0.3884
  190SAPI   H6X21928   3.241   3.607   6.086 -0.9626 -0.0197 -4.0215
  190SAPI   H6Y21929   3.116   3.484   6.057 -0.6775  0.1135  1.4689
  190SAPI   C3721930   3.308   3.466   5.953  0.2048  0.0104  0.2335
  190SAPI   H7X21931   3.279   3.363   5.924 -1.3451 -0.3236  2.6607
  190SAPI   H7Y21932   3.414   3.455   5.982  0.0148 -0.1854  0.8660
  190SAPI   C3821933   3.297   3.564   5.833 -0.6154  0.8744  0.0081
  190SAPI   H8X21934   3.304   3.667   5.873 -0.6040  1.2339 -0.9044
  190SAPI   H8Y21935   3.195   3.547   5.791 -0.4984 -0.6498  0.2859
  190SAPI   C3921936   3.394   3.524   5.728 -0.1444  0.1095  0.3812
  190SAPI   H9X21937   3.417   3.416   5.712  1.5849  0.3061  1.2952
  190SAPI   H9Y21938   3.490   3.572   5.755 -0.0484  0.1562 -0.0287
  190SAPI  C31021939   3.346   3.567   5.585 -0.4045  0.6148 -1.0315
  190SAPI  H10X21940   3.352   3.676   5.567 -0.2853  0.7045 -0.4527
  190SAPI  H10Y21941   3.237   3.543   5.580  0.0738 -1.9062 -0.6450
  190SAPI  C31121942   3.415   3.493   5.465 -0.4127 -0.5759  0.0683
  190SAPI  H11X21943   3.380   3.388   5.458  1.6225 -1.1945 -2.1404
  190SAPI  H11Y21944   3.524   3.480   5.482 -0.1582  1.1117 -0.0169
  190SAPI  C31221945   3.386   3.570   5.336  0.1764  0.2780  0.6907
  190SAPI  H12X21946   3.425   3.674   5.341  1.4322 -0.2322  2.3527
  190SAPI  H12Y21947   3.278   3.595   5.334  0.5776  2.1761 -0.6057
  190SAPI  C31321948   3.428   3.488   5.208  0.5847  0.2565  0.1239
  190SAPI  H13X21949   3.392   3.383   5.211  2.1995 -0.3349 -0.1179
  190SAPI  H13Y21950   3.539   3.488   5.209  0.6133 -0.7153 -1.0717
  190SAPI  C31421951   3.379   3.570   5.088  0.2017 -0.3649  0.2362
  190SAPI  H14X21952   3.398   3.678   5.106 -0.2770 -0.2330 -0.0183
  190SAPI  H14Y21953   3.274   3.541   5.065 -0.4080  1.4731  0.5694
  190SAPI  C31521954   3.462   3.540   4.967 -0.0295  0.1452 -0.1960
  190SAPI  H15X21955   3.476   3.429   4.963  1.4510  0.3513 -2.3744
  190SAPI  H15Y21956   3.562   3.583   4.986 -0.0600 -0.5851  1.8853
  190SAPI  C31621957   3.401   3.591   4.836  0.2396  0.1740  0.3377
  190SAPI  H16X21958   3.379   3.698   4.853  1.4789  0.4891  0.0035
  190SAPI  H16Y21959   3.308   3.535   4.809  0.2669 -0.0252  0.6474
  190SAPI  C31721960   3.494   3.590   4.711  0.1709  0.0586  0.1879
  190SAPI  H17X21961   3.441   3.650   4.634  2.6837  2.1862 -0.0330
  190SAPI  H17Y21962   3.511   3.485   4.681  0.5320 -0.3297  1.6649
  190SAPI  C31821963   3.622   3.678   4.732  0.5849  0.7271  0.1467
  190SAPI  H18X21964   3.712   3.617   4.757 -0.2646 -0.5536  0.1665
  190SAPI  H18Y21965   3.605   3.740   4.823  1.7348 -0.0495  0.9168
  190SAPI  H18Z21966   3.634   3.734   4.637  1.2972  0.4300  0.0534
  191SAPI   C1221967   6.647   3.515   2.322  0.4143  0.7431 -0.9182
  191SAPI    H221968   6.739   3.457   2.343  0.0372  0.1372 -0.9104
  191SAPI    O221969   6.675   3.652   2.288  0.0438 -0.3599 -0.0108
  191SAPI   HO221970   6.741   3.679   2.352 -0.0238  0.7643 -0.3977
  191SAPI   C1321971   6.572   3.447   2.211 -0.7375 -0.2501 -0.3029
  191SAPI    H321972   6.545   3.346   2.249 -2.4958  0.6721  1.0237
  191SAPI    O321973   6.650   3.429   2.098 -0.4372  0.9434 -0.0824
  191SAPI   HO321974   6.742   3.414   2.123 -0.0011 -1.8699 -2.7745
  191SAPI   C1421975   6.438   3.511   2.177 -0.4810  0.2086 -0.3974
  191SAPI    H421976   6.459   3.584   2.095  0.8159  0.4544  0.1296
  191SAPI    O421977   6.344   3.424   2.113  0.1184  0.4220  0.0769
  191SAPI   HO421978   6.271   3.482   2.090  0.9401  1.7577  0.7061
  191SAPI   C1521979   6.379   3.578   2.298  0.3356 -0.3618 -0.9632
  191SAPI    H521980   6.306   3.502   2.335 -2.0203  1.2977 -1.9613
  191SAPI    O521981   6.299   3.691   2.258  0.5040  0.3466 -0.7310
  191SAPI   HO521982   6.215   3.653   2.232  0.0277  0.2724  0.8472
  191SAPI   C1621983   6.442   3.603   2.432 -0.0814 -0.4543  0.0693
  191SAPI    H621984   6.471   3.710   2.427 -2.7319  0.4256  1.6769
  191SAPI    O621985   6.360   3.601   2.547 -0.4166  0.0481 -0.6966
  191SAPI   HO621986   6.320   3.513   2.549  3.4483 -1.9148  0.0708
  191SAPI   C1121987   6.570   3.522   2.450  1.4230 -0.2374  0.2549
  191SAPI    H121988   6.529   3.422   2.477 -0.5147  0.2650 -0.6560
  191SAPI     P21989   6.758   3.483   2.636 -0.0264 -0.1328  0.4288
  191SAPI   O1321990   6.875   3.573   2.675  0.3811  0.0176  0.0744
  191SAPI   O1421991   6.788   3.361   2.558 -0.4820 -0.0004 -0.2586
  191SAPI   O1221992   6.649   3.576   2.559  0.7782 -0.6079 -0.2512
  191SAPI   O1121993   6.677   3.440   2.759 -0.0011 -0.3255  0.3222
  191SAPI    C121994   6.567   3.527   2.805  0.2803  0.8489  0.3405
  191SAPI    HA21995   6.592   3.633   2.783 -1.1392  1.1458  0.0322
  191SAPI    HB21996   6.474   3.498   2.751  0.1986  0.1420  0.8381
  191SAPI    C221997   6.554   3.531   2.957 -0.1244  0.6899 -0.3358
  191SAPI    HS21998   6.456   3.580   2.973 -0.9597 -0.8648 -0.4616
  191SAPI   O2121999   6.664   3.603   3.022  0.3683  0.4785 -0.0012
  191SAPI   C2122000   6.639   3.729   3.029 -0.0201 -0.3830 -0.1113
  191SAPI   O2222001   6.547   3.789   2.978  0.1072  0.2281 -0.3686
  191SAPI   C2222002   6.737   3.794   3.125 -0.2689  1.1497  0.5792
  191SAPI   H2R22003   6.830   3.736   3.138  0.4670  1.9440 -0.9777
  191SAPI   H2S22004   6.759   3.896   3.087 -2.8819  1.6749  0.2882
  191SAPI    C322005   6.532   3.385   3.007  0.7441 -0.3294  0.0536
  191SAPI    HX22006   6.631   3.337   2.994 -0.4693 -2.9897 -0.0972
  191SAPI    HY22007   6.457   3.336   2.941  0.3098  1.0892 -0.5486
  191SAPI   O3122008   6.479   3.390   3.134 -0.1362  0.1899  0.1863
  191SAPI   C3122009   6.455   3.267   3.182 -0.7775 -0.1371 -0.1939
  191SAPI   O3222010   6.468   3.160   3.119 -0.1299  0.7606  0.0888
  191SAPI   C3222011   6.417   3.261   3.334  0.2329  0.4806  0.4523
  191SAPI   H2X22012   6.309   3.237   3.346  0.1890  0.8628  0.8629
  191SAPI   H2Y22013   6.434   3.360   3.381  1.0664  0.8199 -0.5348
  191SAPI   C2322014   6.671   3.822   3.265 -0.6512 -0.1994 -0.4548
  191SAPI   H3R22015   6.578   3.882   3.252 -0.6027 -0.3687 -1.8030
  191SAPI   H3S22016   6.737   3.892   3.320 -1.8983  1.1332 -0.5906
  191SAPI   C2422017   6.654   3.691   3.354 -0.1429  0.1218 -0.1478
  191SAPI   H4R22018   6.609   3.604   3.301 -1.0114 -0.4490  1.4619
  191SAPI   H4S22019   6.585   3.729   3.431  0.7454 -1.3324  1.4474
  191SAPI   C2522020   6.779   3.644   3.416 -0.1094  0.4193  0.5453
  191SAPI   H5R22021   6.864   3.617   3.351  2.5831 -1.7382  4.5292
  191SAPI   C2622022   6.808   3.615   3.547 -0.6216  0.8495  0.1222
  191SAPI   H6R22023   6.911   3.581   3.562 -0.9386 -0.0215  0.3725
  191SAPI   C2722024   6.715   3.630   3.665  0.2898 -0.5409 -0.4690
  191SAPI   H7R22025   6.611   3.643   3.628  0.1138 -0.6535 -0.0260
  191SAPI   H7S22026   6.749   3.720   3.721 -0.5892 -0.1669 -0.5238
  191SAPI   C2822027   6.722   3.497   3.735  1.0123  0.2960 -0.3549
  191SAPI   H8R22028   6.678   3.413   3.679 -0.5680 -0.5467  1.9986
  191SAPI   C2922029   6.743   3.473   3.868 -0.5881 -0.5243 -0.7569
  191SAPI   H9R22030   6.746   3.369   3.906  1.3222  0.3642  1.8355
  191SAPI  C21022031   6.755   3.574   3.979 -0.6583  1.0109  0.6022
  191SAPI  H10R22032   6.855   3.622   3.974  0.5280 -1.3517  0.0739
  191SAPI  H10S22033   6.752   3.519   4.075  1.1279  0.6178  0.4787
  191SAPI  C21122034   6.647   3.678   3.982  0.4025  0.0322 -0.4631
  191SAPI  H11R22035   6.679   3.773   3.936 -1.6642  1.4608  0.8712
  191SAPI  C21222036   6.527   3.669   4.033  0.6519 -0.7456  0.2215
  191SAPI  H12R22037   6.461   3.757   4.036 -0.4591 -1.5770  1.7946
  191SAPI  C21322038   6.469   3.556   4.110  0.4572  0.4571 -0.1187
  191SAPI  H13R22039   6.508   3.456   4.080 -0.8630 -1.5752  4.1217
  191SAPI  H13S22040   6.359   3.544   4.098  0.2654  2.2322 -0.3640
  191SAPI  C21422041   6.500   3.575   4.253 -0.3187  0.0193  0.2930
  191SAPI  H14R22042   6.597   3.609   4.290  0.8577 -2.4259 -0.3333
  191SAPI  C21522043   6.439   3.517   4.354  0.3051  0.1966  0.2681
  191SAPI  H15R22044   6.456   3.561   4.453 -1.5797  0.6099  0.4385
  191SAPI  C21622045   6.314   3.428   4.358 -0.3167 -0.5119 -0.1107
  191SAPI  H16R22046   6.328   3.341   4.426 -1.1632  0.9463  2.0652
  191SAPI  H16S22047   6.292   3.386   4.258  0.0716 -2.6797  0.6545
  191SAPI  C21722048   6.183   3.503   4.398  0.8557  0.5502 -0.4061
  191SAPI  H17R22049   6.139   3.571   4.321  1.6158  0.2689 -1.1073
  191SAPI  H17S22050   6.211   3.574   4.478 -2.1727  2.3184 -0.7244
  191SAPI  C21822051   6.076   3.407   4.443  1.0849 -0.6816  0.1084
  191SAPI  H18R22052   6.098   3.362   4.542  2.1739  0.1668  0.2644
  191SAPI  H18S22053   6.074   3.337   4.357 -0.2281 -2.4406  1.4863
  191SAPI  C21922054   5.934   3.467   4.457 -0.1414 -0.0070  0.3635
  191SAPI  H19R22055   5.940   3.576   4.478 -0.4322 -0.3801  2.7300
  191SAPI  H19S22056   5.887   3.408   4.540 -1.3656 -1.9638 -1.5960
  191SAPI  C22022057   5.855   3.447   4.325 -0.5603 -0.4707  0.2385
  191SAPI  H20R22058   5.749   3.481   4.331 -0.5775 -0.5973  0.6981
  191SAPI  H20S22059   5.857   3.340   4.295 -2.3483 -0.0749 -1.5381
  191SAPI  H20T22060   5.913   3.493   4.243  1.6719 -0.3145  1.8291
  191SAPI   C3322061   6.490   3.150   3.412  0.5630 -0.1526  0.4745
  191SAPI   H3X22062   6.595   3.163   3.376 -0.3122  1.0063 -1.7962
  191SAPI   H3Y22063   6.447   3.052   3.384  0.2744 -0.1978  1.0628
  191SAPI   C3422064   6.495   3.166   3.564 -0.6389 -0.0998 -0.5134
  191SAPI   H4X22065   6.563   3.250   3.587  1.0562 -1.8557  1.2355
  191SAPI   H4Y22066   6.530   3.067   3.599 -1.5765  0.0779  1.0547
  191SAPI   C3522067   6.361   3.200   3.629 -0.4864 -0.0349  0.6959
  191SAPI   H5X22068   6.292   3.114   3.618 -0.4339  0.0324 -0.2395
  191SAPI   H5Y22069   6.312   3.284   3.574  2.1072  1.0986 -0.0439
  191SAPI   C3622070   6.383   3.227   3.777 -0.3703 -0.1399  0.3950
  191SAPI   H6X22071   6.436   3.323   3.791 -1.3633  0.9352 -2.4478
  191SAPI   H6Y22072   6.436   3.140   3.820 -0.1082  0.0789  0.5171
  191SAPI   C3722073   6.253   3.244   3.855  0.2631  0.3022  0.7911
  191SAPI   H7X22074   6.172   3.193   3.798  0.5983  0.2793  0.3204
  191SAPI   H7Y22075   6.237   3.354   3.860 -2.6446 -0.0779  1.2898
  191SAPI   C3822076   6.274   3.185   3.999 -0.6883 -0.7828  1.1998
  191SAPI   H8X22077   6.330   3.255   4.065  1.3441 -0.6589 -0.5708
  191SAPI   H8Y22078   6.330   3.090   3.984 -0.4631 -0.2111 -2.3347
  191SAPI   C3922079   6.142   3.153   4.066  0.2794  0.2385  0.0181
  191SAPI   H9X22080   6.076   3.088   4.004 -0.7855  0.9184  0.4208
  191SAPI   H9Y22081   6.091   3.248   4.090  1.1644  1.1509 -1.5337
  191SAPI  C31022082   6.163   3.080   4.202  0.2926 -0.4779 -0.4627
  191SAPI  H10X22083   6.200   3.150   4.280  0.2622 -0.4961 -0.4319
  191SAPI  H10Y22084   6.242   3.007   4.176  0.8673 -0.0817  0.1399
  191SAPI  C31122085   6.045   3.009   4.261 -0.1344 -0.0826  0.2737
  191SAPI  H11X22086   6.006   2.930   4.193  0.3231 -0.0797  0.0018
  191SAPI  H11Y22087   5.963   3.078   4.291 -0.2359 -0.7824  1.6714
  191SAPI  C31222088   6.087   2.940   4.395  0.2379 -0.2107  0.3123
  191SAPI  H12X22089   6.166   2.866   4.370  1.8513  2.3605 -2.9984
  191SAPI  H12Y22090   6.007   2.874   4.434  0.2081 -0.5402 -0.2942
  191SAPI  C31322091   6.144   3.028   4.505 -0.5565  0.7908 -0.6228
  191SAPI  H13X22092   6.076   3.105   4.547  0.8135  0.4546  2.4952
  191SAPI  H13Y22093   6.235   3.085   4.477 -0.1050  1.0577  1.2422
  191SAPI  C31422094   6.177   2.930   4.625  0.1021 -0.3268  0.6330
  191SAPI  H14X22095   6.097   2.853   4.625  2.8740 -3.5666 -1.6714
  191SAPI  H14Y22096   6.193   2.994   4.714  0.2480  2.5470 -1.3424
  191SAPI  C31522097   6.311   2.848   4.600 -0.7663 -0.0448  0.0409
  191SAPI  H15X22098   6.328   2.820   4.494 -0.4360 -0.9059  0.3124
  191SAPI  H15Y22099   6.286   2.748   4.641 -3.0143 -0.3623 -1.8808
  191SAPI  C31622100   6.436   2.919   4.653  0.3536 -0.5765  0.2783
  191SAPI  H16X22101   6.427   2.943   4.761 -0.8556  1.8898 -0.2942
  191SAPI  H16Y22102   6.465   3.015   4.604  2.5535 -1.6443 -0.6353
  191SAPI  C31722103   6.557   2.825   4.649  0.8414  0.3692  0.0152
  191SAPI  H17X22104   6.584   2.818   4.541 -0.0855 -0.2455 -0.1902
  191SAPI  H17Y22105   6.518   2.730   4.691  0.3928  0.6330  0.2052
  191SAPI  C31822106   6.674   2.875   4.730 -0.0319 -0.0962  0.0375
  191SAPI  H18X22107   6.720   2.960   4.676 -0.2553 -0.3914 -0.6288
  191SAPI  H18Y22108   6.759   2.804   4.731 -1.4405 -1.8696 -0.5855
  191SAPI  H18Z22109   6.660   2.907   4.835  1.7280  0.5697  0.1083
  192SAPI   C1222110   2.125   1.198   2.716  0.3759 -0.4582  0.2251
  192SAPI    H222111   2.160   1.184   2.820 -0.2845  0.6055  0.6106
  192SAPI    O222112   2.134   1.075   2.646  0.4394 -0.1532  0.3708
  192SAPI   HO222113   2.117   1.010   2.715 -1.8520 -2.7458 -2.3706
  192SAPI   C1322114   1.982   1.238   2.734  0.1005  0.0595  0.5157
  192SAPI    H322115   1.987   1.339   2.779  0.4571 -0.2685  1.2406
  192SAPI    O322116   1.920   1.150   2.827 -0.4905  0.5620  0.0557
  192SAPI   HO322117   1.831   1.176   2.851 -1.0647  0.3033 -1.6226
  192SAPI   C1422118   1.911   1.247   2.599 -0.0691  0.0387  0.0865
  192SAPI    H422119   1.907   1.144   2.557 -2.0105 -0.5306  1.5157
  192SAPI    O422120   1.777   1.299   2.618  0.1897  0.3020 -0.1795
  192SAPI   HO422121   1.745   1.308   2.528 -0.6894  2.1352  0.2731
  192SAPI   C1522122   1.995   1.331   2.500  0.5599 -0.5831 -0.2736
  192SAPI    H522123   1.972   1.436   2.527 -0.6441 -0.2385 -2.4209
  192SAPI    O522124   1.960   1.318   2.365  1.0412 -0.2712 -0.4023
  192SAPI   HO522125   1.954   1.226   2.338 -2.2501 -0.0682 -0.7430
  192SAPI   C1622126   2.145   1.328   2.516 -0.0975 -0.5159  0.6147
  192SAPI    H622127   2.178   1.242   2.454 -4.4685 -1.0276 -1.3583
  192SAPI    O622128   2.202   1.443   2.460 -0.9645 -0.0374 -0.0011
  192SAPI   HO622129   2.294   1.424   2.441 -1.6355 -5.1086  0.4505
  192SAPI   C1122130   2.202   1.308   2.653 -0.9761 -0.6159 -0.1524
  192SAPI    H122131   2.190   1.407   2.701 -2.5431 -0.0559 -1.5783
  192SAPI     P22132   2.456   1.328   2.757 -0.2700  0.2291 -0.1761
  192SAPI   O1322133   2.464   1.475   2.775 -0.1101 -0.5533  0.6464
  192SAPI   O1422134   2.582   1.263   2.721  0.0045 -0.3435  1.0623
  192SAPI   O1222135   2.344   1.274   2.651  0.2485 -0.8284  0.3101
  192SAPI   O1122136   2.412   1.260   2.887 -0.7077 -0.2206 -0.0121
  192SAPI    C122137   2.428   1.125   2.911  0.1374  0.1987  0.5698
  192SAPI    HA22138   2.356   1.062   2.854  0.8690 -1.6985  1.6377
  192SAPI    HB22139   2.529   1.095   2.877 -0.4230  1.9095 -3.1650
  192SAPI    C222140   2.411   1.083   3.064 -0.2714 -0.1769  0.2571
  192SAPI    HS22141   2.316   1.130   3.099 -0.5992 -0.0070 -0.8263
  192SAPI   O2122142   2.520   1.122   3.142 -0.0884  0.4224 -0.6575
  192SAPI   C2122143   2.546   1.247   3.170  0.1343  0.9897  0.4393
  192SAPI   O2222144   2.469   1.342   3.154  0.3724 -0.2493 -0.6385
  192SAPI   C2222145   2.694   1.259   3.190  0.4499 -0.2327 -0.4648
  192SAPI   H2R22146   2.732   1.157   3.212  2.6140  0.8277  1.0376
  192SAPI   H2S22147   2.731   1.292   3.090 -1.4005  2.2438 -0.4180
  192SAPI    C322148   2.411   0.930   3.085  0.3686 -0.5162 -0.2155
  192SAPI    HX22149   2.512   0.891   3.062  0.6662 -0.1332  0.4219
  192SAPI    HY22150   2.350   0.879   3.007  0.2975 -1.2935  0.3356
  192SAPI   O3122151   2.354   0.889   3.205  0.0935  0.6606 -0.8356
  192SAPI   C3122152   2.436   0.860   3.299  0.5174 -0.2026  0.3427
  192SAPI   O3222153   2.559   0.856   3.292  0.3262  0.1903 -0.5503
  192SAPI   C3222154   2.354   0.825   3.425  0.4732  0.0478 -1.2010
  192SAPI   H2X22155   2.276   0.750   3.400  0.1133 -1.0236  2.6176
  192SAPI   H2Y22156   2.301   0.920   3.447  0.3922  0.0195 -1.2762
  192SAPI   C2322157   2.745   1.359   3.291  0.4065 -0.1683 -0.2023
  192SAPI   H3R22158   2.715   1.460   3.254  3.0265  0.5768 -0.4936
  192SAPI   H3S22159   2.855   1.347   3.285  0.2675 -1.7798  0.2717
  192SAPI   C2422160   2.706   1.343   3.436  0.0729 -0.2061 -0.0328
  192SAPI   H4R22161   2.760   1.410   3.506 -0.8409  1.0217 -0.4732
  192SAPI   H4S22162   2.736   1.238   3.458  0.8055  0.0897  0.3975
  192SAPI   C2522163   2.560   1.364   3.474 -0.4437 -0.1155 -0.1315
  192SAPI   H5R22164   2.500   1.436   3.417 -2.5616 -1.7361 -0.1107
  192SAPI   C2622165   2.487   1.288   3.560  0.2239  0.0989  0.0991
  192SAPI   H6R22166   2.378   1.303   3.564  0.3018  0.7760 -0.2406
  192SAPI   C2722167   2.533   1.165   3.640  0.4957 -0.2672  0.0828
  192SAPI   H7R22168   2.560   1.087   3.566  1.5496  0.9155 -0.8362
  192SAPI   H7S22169   2.447   1.123   3.696  0.9612 -0.2937  0.7879
  192SAPI   C2822170   2.646   1.180   3.737 -0.1871 -1.1435  0.2342
  192SAPI   H8R22171   2.741   1.194   3.682 -1.8893  0.1410 -2.6569
  192SAPI   C2922172   2.641   1.144   3.868 -0.3460 -0.0014  0.4860
  192SAPI   H9R22173   2.732   1.164   3.926  3.7358 -2.7638 -4.2299
  192SAPI  C21022174   2.521   1.122   3.950 -0.3144  1.9519  0.1895
  192SAPI  H10R22175   2.543   1.043   4.026 -1.0524 -0.3909 -1.9035
  192SAPI  H10S22176   2.431   1.088   3.895 -0.2808  0.8715  0.7686
  192SAPI  C21122177   2.482   1.247   4.024  0.5889 -0.4710 -0.5585
  192SAPI  H11R22178   2.411   1.312   3.971  0.0928 -1.5354 -1.2397
  192SAPI  C21222179   2.527   1.284   4.143  0.2864  0.3042 -1.1189
  192SAPI  H12R22180   2.491   1.382   4.175 -1.6833 -0.5550 -0.5712
  192SAPI  C21322181   2.629   1.212   4.233 -0.0378  0.7066  0.1281
  192SAPI  H13R22182   2.699   1.294   4.261  0.3536  0.1517  0.8017
  192SAPI  H13S22183   2.683   1.131   4.179 -0.8955 -0.4351  0.9280
  192SAPI  C21422184   2.569   1.157   4.358 -0.0269 -0.1273 -0.4528
  192SAPI  H14R22185   2.540   1.052   4.343 -0.9883  0.0078  0.3210
  192SAPI  C21522186   2.506   1.216   4.463 -0.1604  0.0276 -0.1776
  192SAPI  H15R22187   2.485   1.157   4.553  3.1313  0.1227  0.7972
  192SAPI  C21622188   2.504   1.357   4.509 -0.1323 -0.7637 -0.4835
  192SAPI  H16R22189   2.404   1.391   4.544  1.3137  1.2711  2.1042
  192SAPI  H16S22190   2.545   1.424   4.430 -1.5068  1.1426  0.3300
  192SAPI  C21722191   2.607   1.369   4.622 -0.4102  0.2677  0.3448
  192SAPI  H17R22192   2.708   1.355   4.578  0.1289  0.3170  1.5121
  192SAPI  H17S22193   2.592   1.279   4.686 -0.1718 -1.0346 -1.3520
  192SAPI  C21822194   2.598   1.495   4.714  0.0151  0.2638  0.7366
  192SAPI  H18R22195   2.604   1.587   4.652  0.3158 -1.2907 -1.6437
  192SAPI  H18S22196   2.687   1.487   4.781  1.0874 -0.8880 -0.7585
  192SAPI  C21922197   2.472   1.500   4.796  0.4884 -0.0996  0.1829
  192SAPI  H19R22198   2.452   1.400   4.840  1.5579 -1.2898 -1.8732
  192SAPI  H19S22199   2.390   1.527   4.727 -0.7176  0.1831  1.6684
  192SAPI  C22022200   2.471   1.605   4.909  0.3916  1.0235  0.0297
  192SAPI  H20R22201   2.379   1.588   4.968 -0.3193 -2.0579 -1.7229
  192SAPI  H20S22202   2.482   1.706   4.864  1.9433  0.3138 -1.3362
  192SAPI  H20T22203   2.559   1.583   4.973 -0.1609  1.7718  1.0621
  192SAPI   C3322204   2.441   0.798   3.548 -0.7622 -0.4315 -0.2710
  192SAPI   H3X22205   2.523   0.872   3.558 -0.1345 -1.2492  0.9765
  192SAPI   H3Y22206   2.490   0.698   3.540 -1.3400 -0.8017  0.6247
  192SAPI   C3422207   2.358   0.783   3.679 -0.0662 -0.1405 -0.2811
  192SAPI   H4X22208   2.283   0.703   3.659  0.4105 -0.7648  0.3861
  192SAPI   H4Y22209   2.302   0.876   3.704  2.6216  0.9970  2.0971
  192SAPI   C3522210   2.446   0.740   3.800  0.5529  0.4444 -0.9752
  192SAPI   H5X22211   2.513   0.825   3.824 -0.8476  1.4562 -0.5363
  192SAPI   H5Y22212   2.503   0.648   3.775 -1.2503 -0.6997 -1.0305
  192SAPI   C3622213   2.354   0.720   3.926 -0.6268 -0.6206 -0.0089
  192SAPI   H6X22214   2.315   0.616   3.919  0.6761 -1.0264 -2.2239
  192SAPI   H6Y22215   2.274   0.797   3.921  0.0628  0.1056  0.0887
  192SAPI   C3722216   2.432   0.733   4.056 -0.5730 -0.3134 -0.7213
  192SAPI   H7X22217   2.483   0.831   4.052  1.4277 -1.1999  1.0932
  192SAPI   H7Y22218   2.513   0.656   4.057  2.6054  2.6538 -3.6218
  192SAPI   C3822219   2.332   0.715   4.167 -0.1902 -0.2078  0.2873
  192SAPI   H8X22220   2.277   0.619   4.167  0.4560 -0.5839 -0.0166
  192SAPI   H8Y22221   2.257   0.798   4.166 -0.2580 -0.2198  1.6781
  192SAPI   C3922222   2.395   0.723   4.305 -0.2507  0.5772 -0.7355
  192SAPI   H9X22223   2.417   0.829   4.332 -0.9814 -0.1427  3.4079
  192SAPI   H9Y22224   2.486   0.660   4.309 -1.3342 -1.0010  0.7838
  192SAPI  C31022225   2.299   0.677   4.421  0.4140  0.1834  1.5840
  192SAPI  H10X22226   2.275   0.572   4.394 -0.9567  1.0562 -0.9301
  192SAPI  H10Y22227   2.209   0.737   4.397  0.3862  0.5353  2.5323
  192SAPI  C31122228   2.359   0.694   4.558 -0.3125  0.5961  0.0749
  192SAPI  H11X22229   2.376   0.803   4.570  0.0600  0.3909  1.5495
  192SAPI  H11Y22230   2.456   0.645   4.581  0.6487  1.9020 -1.0128
  192SAPI  C31222231   2.255   0.661   4.667  0.1958  0.5409 -0.1855
  192SAPI  H12X22232   2.163   0.720   4.652  1.3793  2.1938 -1.2882
  192SAPI  H12Y22233   2.302   0.694   4.763 -0.3893  1.4620 -0.2106
  192SAPI  C31322234   2.227   0.514   4.678  0.4749 -0.3034 -0.0106
  192SAPI  H13X22235   2.194   0.494   4.782  0.9464 -1.9191 -0.1540
  192SAPI  H13Y22236   2.321   0.459   4.658  1.2139  1.1906 -0.8527
  192SAPI  C31422237   2.104   0.465   4.597 -0.5902  0.0224  0.4877
  192SAPI  H14X22238   2.121   0.478   4.488  1.8949 -2.8579  0.3910
  192SAPI  H14Y22239   2.018   0.527   4.627 -0.5450  0.0361  0.5885
  192SAPI  C31522240   2.081   0.319   4.633 -0.0778 -0.2086  0.2094
  192SAPI  H15X22241   2.104   0.302   4.740  0.8201 -1.5235 -0.1695
  192SAPI  H15Y22242   2.149   0.258   4.569 -1.0930  0.0352 -1.1523
  192SAPI  C31622243   1.939   0.278   4.604 -0.2556  0.2475 -0.4915
  192SAPI  H16X22244   1.868   0.353   4.647 -0.6389  0.4426 -1.4144
  192SAPI  H16Y22245   1.919   0.183   4.656 -0.7184 -0.1142 -1.3046
  192SAPI  C31722246   1.911   0.260   4.454  0.6775  0.0234  0.9864
  192SAPI  H17X22247   2.002   0.254   4.391 -0.0408 -4.5445 -0.0251
  192SAPI  H17Y22248   1.852   0.351   4.432 -0.4260 -0.7465  0.6398
  192SAPI  C31822249   1.828   0.128   4.429 -0.5222 -0.9573  0.1884
  192SAPI  H18X22250   1.738   0.119   4.493 -1.0959 -2.4818 -0.7829
  192SAPI  H18Y22251   1.894   0.039   4.431  0.6416 -0.1659 -0.9471
  192SAPI  H18Z22252   1.785   0.122   4.326 -1.4457 -1.1778  0.5774
  193SOD    SOD22253   1.128   4.522   7.461  0.1941 -0.3431  0.7663
  194SOD    SOD22254   0.919   2.684   0.056 -0.3416 -0.0934  0.0286
  195SOD    SOD22255   4.757   3.374   2.060 -0.0736  0.3846 -0.3243
  196SOD    SOD22256   5.381   1.565   2.530  0.2786  0.3773  0.3067
  197SOD    SOD22257   0.629   2.539   7.510 -0.1953  0.1040  0.0099
  198SOD    SOD22258   5.682   2.521   0.188  0.0723  0.2874 -0.0861
  199SOD    SOD22259   0.161   5.560   2.902 -0.5061  0.2508  0.0869
  200SOD    SOD22260   1.956   4.557   0.358 -0.2361 -0.0124 -0.0086
  201SOD    SOD22261   3.609   1.453   2.680 -0.2116 -0.0625  0.1706
  202SOD    SOD22262   2.487   1.961   8.579  0.0854  0.2364 -0.2447
  203SOD    SOD22263   0.790   6.482   1.621 -0.3133 -0.2666  0.2180
  204SOD    SOD22264   5.568   0.593   1.194 -0.1455  0.3539  0.1412
  205SOD    SOD22265   3.094   5.661   0.311 -0.1899 -0.0621 -0.0101
  206SOD    SOD22266   1.619   1.584   3.400  0.2432  0.3011  0.0173
  207SOD    SOD22267   1.888   5.441   8.053 -0.1379 -0.0586 -0.2329
  208SOD    SOD22268   5.824   5.941   2.022 -0.1320 -0.0870  0.1149
  209SOD    SOD22269   6.123   4.634   8.294 -0.2863  0.2814 -0.1145
  210SOD    SOD22270   6.322   0.131   0.469 -0.0511  0.4934  0.4335
  211SOD    SOD22271   4.063   5.006   7.157 -0.0400 -0.0930  0.1531
  212SOD    SOD22272   1.856   3.673   1.704  0.7970 -0.5786 -0.1451
  213SOD    SOD22273   4.755   4.338   8.307  0.0042 -0.2913  0.3018
  214SOD    SOD22274   4.419   4.165   0.251 -0.1190 -0.5246  0.1638
  215SOD    SOD22275   4.902   0.744   7.663 -0.2014 -0.1740 -0.3039
  216SOD    SOD22276   5.584   5.760   8.049 -0.3451  0.4446  0.3091
  217SOD    SOD22277   1.954   0.001   0.692  0.2864  0.1101 -0.3061
  218SOD    SOD22278   5.551   4.657   1.738 -0.0099  0.4422  0.6474
  219SOD    SOD22279   1.658   2.929   7.571  0.3004  0.0241 -0.0285
  220SOD    SOD22280   0.793   2.731   2.463 -0.1219  0.4755 -0.2661
  221SOD    SOD22281   3.021   1.669   8.680 -0.2460  0.1954  0.4378
  222SOD    SOD22282   0.323   5.948   7.868  0.7143 -0.1638  0.0201
  223SOD    SOD22283   6.085   4.995   2.101 -0.2080 -0.3547  0.0017
  224SOD    SOD22284   5.295   6.477   2.223 -1.0317  0.6583 -1.1916
  225SOD    SOD22285   6.244   3.339   8.717  0.6602 -0.1905  0.0350
  226SOD    SOD22286   0.389   1.983   7.370  0.1176  0.0209  0.6639
  227SOD    SOD22287   3.421   0.271   7.200  0.0918  0.2083  0.3521
  228SOD    SOD22288   0.236   0.050   2.196 -0.4140  0.0158  0.0981
  229SOD    SOD22289   4.048   1.513   1.489 -0.1894  0.1679  0.0077
  230SOD    SOD22290   3.713   6.134   8.222 -0.2009 -0.3439  0.1854
  231SOD    SOD22291   6.422   1.066   7.821 -0.5738  0.0323 -0.0318
  232SOD    SOD22292   3.925   5.931   0.231 -0.2889  0.1506  0.8776
  233SOD    SOD22293   6.018   3.954   0.923  0.1335 -0.6042  0.2678
  234CLA    CLA22294   3.992   0.748   1.808  0.1667 -0.0168  0.0254
  235CLA    CLA22295   0.967   4.866   7.811 -0.1833  0.4975 -0.1021
  236CLA    CLA22296   3.434   1.351   1.984  0.5272 -0.2023  0.0068
  237CLA    CLA22297   5.910   3.767   8.257 -0.2666  0.4791  0.1589
  238CLA    CLA22298   0.309   3.685   8.303 -0.0702  0.2658 -0.3393
  239CLA    CLA22299   3.404   2.050   0.189 -0.0635  0.2579 -0.0512
  240CLA    CLA22300   0.199   3.938   0.920  0.0640 -0.0066 -0.2080
  241CLA    CLA22301   0.843   5.555   0.169 -0.0075  0.0003  0.1984
  242CLA    CLA22302   5.926   4.765   2.092 -0.5441 -0.1917 -0.2423
  243CLA    CLA22303   5.552   4.852   0.364 -0.0870  0.0485 -0.2386
  244CLA    CLA22304   5.348   4.573   8.091  0.3505  0.2819  0.4465
  245CLA    CLA22305   2.350   4.297   0.196  0.0382 -0.2263 -0.0304
  246CLA    CLA22306   1.164   1.393   1.376  0.1065  0.2492  0.0306
  247CLA    CLA22307   4.992   0.244   0.913  0.0076  0.5556  0.2814
  248CLA    CLA22308   0.617   6.138   1.207  0.0700  0.5312  0.0887
  249CLA    CLA22309   5.243   2.730   0.229  0.1170 -0.0764  0.3829
  250CLA    CLA22310   6.740   2.589   0.975  0.0256 -0.2993  0.0416
  251TIP3   OH222311   6.032   1.120   1.844 -0.2431  0.4965  0.2910
  251TIP3    H122312   6.051   1.150   1.755 -2.0577 -0.4218 -0.4552
  251TIP3    H222313   5.936   1.124   1.850 -0.3448 -1.9369  1.2791
  252TIP3   OH222314   1.503   5.013   1.941 -0.1706  0.0496  0.0578
  252TIP3    H122315   1.469   4.926   1.963 -2.6110  0.5993 -1.1530
  252TIP3    H222316   1.501   5.061   2.024  0.1104 -0.7039  0.5117
  253TIP3   OH222317   2.853   6.723   2.151 -0.0443  0.1298 -0.0741
  253TIP3    H122318   2.831   6.810   2.183  0.1022  0.2045 -0.1784
  253TIP3    H222319   2.806   6.664   2.210 -0.3692  0.2835 -0.1755
  254TIP3   OH222320   2.013   0.401   1.598 -0.1620 -0.3629 -0.8101
  254TIP3    H122321   1.970   0.482   1.572 -0.5070  0.3586  1.7814
  254TIP3    H222322   2.107   0.422   1.592 -0.2356 -0.0493 -0.9243
  255TIP3   OH222323   3.407   6.715   2.411  0.0650  0.2618 -0.1046
  255TIP3    H122324   3.429   6.623   2.398  1.3443  0.7643 -1.9298
  255TIP3    H222325   3.483   6.753   2.455 -0.5769  0.4076  0.9031
  256TIP3   OH222326   4.342   0.684   2.589  0.0685  0.6990  0.0942
  256TIP3    H122327   4.371   0.751   2.527 -1.6172  1.5595  0.1858
  256TIP3    H222328   4.251   0.667   2.565  0.4581 -1.6667  0.0045
  257TIP3   OH222329   0.006   2.492   7.578 -0.3623  0.1813  0.2476
  257TIP3    H122330   0.052   2.473   7.497  1.0406  0.1219  1.0405
  257TIP3    H222331  -0.087   2.480   7.556  0.0608 -0.9286 -1.0292
  258TIP3   OH222332   1.929   1.669   0.518  0.1575 -0.0314 -0.3366
  258TIP3    H122333   2.014   1.681   0.559  1.0616  0.4142 -2.2520
  258TIP3    H222334   1.886   1.755   0.527  1.0281  0.5792 -1.7412
  259TIP3   OH222335   4.635   4.655   1.899 -0.2755  0.1705 -0.1154
  259TIP3    H122336   4.577   4.589   1.937 -1.2532  0.5707 -0.8597
  259TIP3    H222337   4.694   4.605   1.843 -0.1707 -0.1993  0.3154
  260TIP3   OH222338   2.835   6.063   8.274 -0.1346 -0.0860 -0.2799
  260TIP3    H122339   2.859   6.080   8.365 -0.8433 -0.1821 -0.0712
  260TIP3    H222340   2.867   5.974   8.258  0.1962  0.0140 -0.2050
  261TIP3   OH222341   3.472   4.757   1.610  0.3342 -0.1470 -0.0965
  261TIP3    H122342   3.388   4.752   1.656 -0.6638 -0.3009 -1.8666
  261TIP3    H222343   3.537   4.750   1.680 -1.0917  1.0849  1.4520
  262TIP3   OH222344   2.745   5.928   7.944  0.2186 -0.2690 -0.1153
  262TIP3    H122345   2.720   5.836   7.933 -0.4417 -0.5331  2.7496
  262TIP3    H222346   2.792   5.930   8.027  2.1792  1.6925 -1.1827
  263TIP3   OH222347   6.317   6.596   7.910 -0.1641 -0.1642  0.4269
  263TIP3    H122348   6.325   6.595   8.005 -1.4322 -0.6812  0.5484
  263TIP3    H222349   6.369   6.521   7.881 -2.2134 -1.9202  0.9856
  264TIP3   OH222350   1.968   2.162   7.943 -0.4602 -0.2651 -0.0480
  264TIP3    H122351   1.891   2.111   7.968  0.4314 -1.0985  1.0939
  264TIP3    H222352   1.981   2.223   8.015 -0.5094  0.4144 -0.6076
  265TIP3   OH222353   0.727   0.544   1.709  0.3227 -0.9021  0.0048
  265TIP3    H122354   0.820   0.536   1.731  0.3173 -0.6763  0.1038
  265TIP3    H222355   0.722   0.514   1.618  0.6177 -0.1405 -0.2674
  266TIP3   OH222356   2.723   2.354   8.722  0.8011  0.7637 -0.5251
  266TIP3    H122357   2.752   2.430   8.672 -2.5172  2.5945  0.0494
  266TIP3    H222358   2.728   2.382   8.814  0.3098  0.0387 -0.2642
  267TIP3   OH222359   5.084   6.395   7.846  0.2907  0.3216 -0.2060
  267TIP3    H122360   5.076   6.314   7.896  0.4786  1.2110  1.3272
  267TIP3    H222361   5.074   6.368   7.755  0.0771 -1.3772  0.2867
  268TIP3   OH222362   0.333   5.780   2.262 -0.2344  0.6258  0.0538
  268TIP3    H122363   0.392   5.856   2.259  0.9857 -0.3319 -1.3321
  268TIP3    H222364   0.310   5.764   2.171 -1.8062  0.3005  0.4856
  269TIP3   OH222365   1.170   2.874   0.804 -0.3451  0.4971 -0.5273
  269TIP3    H122366   1.173   2.952   0.858 -3.1061  0.1970  0.2125
  269TIP3    H222367   1.157   2.906   0.715 -0.1708  0.9123 -0.4022
  270TIP3   OH222368   1.638   4.193   1.014 -0.0513  0.3711 -0.3219
  270TIP3    H122369   1.549   4.219   1.036 -0.2585 -0.8832  0.4331
  270TIP3    H222370   1.638   4.098   1.020  1.0771  0.2740 -1.3703
  271TIP3   OH222371   2.234   5.211   8.509 -0.1663 -0.7475  0.3642
  271TIP3    H122372   2.292   5.209   8.585 -0.1922 -0.5287  0.3912
  271TIP3    H222373   2.286   5.174   8.438 -0.1673 -1.0244  0.5043
  272TIP3   OH222374   1.432   1.970   7.999  0.1613 -0.5539 -0.0001
  272TIP3    H122375   1.447   1.876   7.996  1.1485 -0.4584  1.2507
  272TIP3    H222376   1.437   1.993   8.092 -2.7396  0.3400  0.0694
  273TIP3   OH222377   1.999   4.338   7.240  0.1706 -0.5145  0.2559
  273TIP3    H122378   2.013   4.324   7.333  0.9843  0.9096  0.3751
  273TIP3    H222379   1.967   4.254   7.207  2.6059 -1.9407  1.2640
  274TIP3   OH222380   4.713   0.497   1.950 -0.3012 -0.0126  0.0791
  274TIP3    H122381   4.637   0.556   1.943 -2.4975 -2.7537 -0.8107
  274TIP3    H222382   4.723   0.483   2.044 -1.9833 -0.8277  0.1838
  275TIP3   OH222383   5.630   1.743   2.017 -0.6694  0.2155 -0.3282
  275TIP3    H122384   5.571   1.814   2.042  0.8620  1.5874 -0.4727
  275TIP3    H222385   5.585   1.663   2.046 -1.3699  1.3632  1.9620
  276TIP3   OH222386   3.110   2.270   8.802 -0.1515  0.3793 -1.1787
  276TIP3    H122387   3.175   2.224   8.748  2.8509  1.9773  0.7750
  276TIP3    H222388   3.121   2.363   8.778 -1.9082  0.6742 -0.9343
  277TIP3   OH222389   4.794   5.844   8.236 -0.3907 -0.1468  0.4057
  277TIP3    H122390   4.885   5.814   8.233 -0.9431 -1.9124  0.2983
  277TIP3    H222391   4.762   5.831   8.147 -1.2255 -1.1527  0.8409
  278TIP3   OH222392   1.304   5.886   7.622 -0.3570 -0.2782 -0.4618
  278TIP3    H122393   1.286   5.973   7.657 -1.6858 -0.6784 -0.0786
  278TIP3    H222394   1.279   5.891   7.530 -2.6992 -0.8384  0.0722
  279TIP3   OH222395   5.804   5.782   7.959 -0.2504 -0.8519  0.1357
  279TIP3    H122396   5.811   5.708   7.900  2.4028 -1.9844  1.6836
  279TIP3    H222397   5.843   5.855   7.911  0.7933 -1.4687  0.0066
  280TIP3   OH222398   4.343   4.096   0.023  0.0277 -0.1032 -0.6796
  280TIP3    H122399   4.346   4.178  -0.026 -1.1163 -0.1224 -0.7902
  280TIP3    H222400   4.307   4.032  -0.038 -1.1014 -0.1981  0.0538
  281TIP3   OH222401   0.268   6.135   0.590 -0.0625  0.0959 -0.1048
  281TIP3    H122402   0.333   6.163   0.654  1.0256  1.0158 -1.5601
  281TIP3    H222403   0.205   6.207   0.587 -0.6036 -0.3271  0.5136
  282TIP3   OH222404   5.906   1.794   7.983  0.8650 -0.2778  0.4475
  282TIP3    H122405   5.965   1.720   7.996 -2.2946 -2.8132  1.5873
  282TIP3    H222406   5.899   1.835   8.069  3.6950  2.5103 -0.4361
  283TIP3   OH222407   6.722   3.127   0.248 -0.0904  0.4771  0.1178
  283TIP3    H122408   6.768   3.200   0.290 -0.3487  1.4582 -1.2318
  283TIP3    H222409   6.781   3.100   0.177 -2.0371  2.6781 -2.5706
  284TIP3   OH222410   4.220   6.170   0.065  0.4092  0.0824 -0.3544
  284TIP3    H122411   4.177   6.085   0.071 -1.0508  0.8544  0.9162
  284TIP3    H222412   4.292   6.164   0.128  0.1070 -0.1080 -0.0214
  285TIP3   OH222413   2.015   5.026   1.811  0.5218  0.2156  0.1939
  285TIP3    H122414   1.999   4.976   1.891 -0.3092  0.1928  0.0273
  285TIP3    H222415   1.927   5.051   1.781  0.8205  0.1943 -0.7273
  286TIP3   OH222416   4.058   1.685   0.645  0.1751 -0.2121  0.1067
  286TIP3    H122417   4.134   1.642   0.606 -0.5429 -1.2181 -0.2344
  286TIP3    H222418   4.038   1.633   0.723 -1.3191 -1.1467 -0.8615
  287TIP3   OH222419   2.350   1.287   1.537  1.0112  1.0089 -1.0791
  287TIP3    H122420   2.320   1.341   1.610 -1.2259 -0.1027 -1.0560
  287TIP3    H222421   2.272   1.237   1.512  2.7941 -1.8702 -1.3674
  288TIP3   OH222422   3.399   0.209   1.521 -0.1151  0.0255 -0.2012
  288TIP3    H122423   3.444   0.151   1.582  0.6357  0.3413 -0.4429
  288TIP3    H222424   3.458   0.283   1.511  0.5837 -0.7688 -2.6105
  289TIP3   OH222425   2.587   4.074   0.253  0.0934 -0.8235 -0.2300
  289TIP3    H122426   2.524   4.137   0.218 -0.6846 -0.1616  2.1985
  289TIP3    H222427   2.672   4.105   0.223 -0.6098 -1.3623 -3.0290
  290TIP3   OH222428   3.121   6.756   7.857  0.3200  0.6876 -0.0146
  290TIP3    H122429   3.211   6.744   7.828  0.8667  1.7511  1.1251
  290TIP3    H222430   3.088   6.829   7.804 -0.6732 -1.1287 -2.0315
  291TIP3   OH222431   4.036   0.432   8.682  0.0058 -0.4641 -0.2253
  291TIP3    H122432   4.045   0.504   8.743  0.7803  0.0544 -0.9363
  291TIP3    H222433   3.948   0.397   8.699 -0.0019  0.0196  0.7828
  292TIP3   OH222434   6.063   5.818   0.231  0.6174  0.0402 -0.5299
  292TIP3    H122435   5.995   5.836   0.296  0.6009 -1.7028 -0.0153
  292TIP3    H222436   6.040   5.873   0.157 -0.7327  0.2949  0.0499
  293TIP3   OH222437   5.242   0.926   8.477 -0.4480  0.0200  0.4470
  293TIP3    H122438   5.190   0.994   8.520 -0.3640 -0.1287  0.7939
  293TIP3    H222439   5.289   0.884   8.549 -1.6385 -1.3924  0.4258
  294TIP3   OH222440   3.606   2.233   2.721 -0.2552 -0.1824 -0.6115
  294TIP3    H122441   3.555   2.314   2.711 -2.9838 -1.0752  3.4029
  294TIP3    H222442   3.540   2.164   2.723  1.1850 -1.6919  2.5013
  295TIP3   OH222443   6.472   3.899   8.582 -0.7542  0.3512  0.7858
  295TIP3    H122444   6.537   3.872   8.647  0.7009  1.1248 -0.2719
  295TIP3    H222445   6.389   3.863   8.614 -0.5749  2.5469  4.2752
  296TIP3   OH222446   1.955   2.662   7.826  0.1604  0.1706 -0.0475
  296TIP3    H122447   1.999   2.577   7.829  2.5090  1.2326 -0.9945
  296TIP3    H222448   2.025   2.724   7.802 -1.0660  2.6308  2.1591
  297TIP3   OH222449   2.140   4.369   7.484  0.5421 -0.3867  0.3364
  297TIP3    H122450   2.087   4.443   7.455  0.1820 -0.8004 -0.0896
  297TIP3    H222451   2.119   4.359   7.577 -1.4647 -1.5801 -0.1649
  298TIP3   OH222452   3.277   6.464   0.110  0.0895  0.0700 -0.6300
  298TIP3    H122453   3.254   6.443   0.019 -0.4993 -1.0442 -0.2375
  298TIP3    H222454   3.364   6.504   0.103  0.1237 -0.1403 -1.6727
  299TIP3   OH222455   3.516   1.931   2.164 -0.3848 -0.1554 -0.1937
  299TIP3    H122456   3.557   1.992   2.225  1.6966 -0.6678 -0.9712
  299TIP3    H222457   3.429   1.966   2.149 -0.2807  0.9855  1.6247
  300TIP3   OH222458   2.465   5.829   8.249 -0.0385 -0.3936  0.1610
  300TIP3    H122459   2.546   5.780   8.239  1.4184  1.7984  0.4428
  300TIP3    H222460   2.415   5.779   8.313  1.8703 -0.9238  1.3320
  301TIP3   OH222461   2.366   0.836   1.385 -0.3133 -0.0625  0.4735
  301TIP3    H122462   2.318   0.762   1.420 -1.9135  1.2329  1.1332
  301TIP3    H222463   2.328   0.912   1.428  1.7327  1.1135  0.3258
  302TIP3   OH222464   1.516   4.739   0.016 -0.3968 -0.1525  0.6778
  302TIP3    H122465   1.582   4.805  -0.006 -0.7468 -0.1832 -0.5603
  302TIP3    H222466   1.502   4.749   0.110  1.3420 -0.1238  0.9705
  303TIP3   OH222467   1.968   2.420   3.459 -0.4457  0.3520  0.5402
  303TIP3    H122468   2.003   2.462   3.380  0.7962 -1.4225  0.0783
  303TIP3    H222469   1.886   2.466   3.476 -0.8904  0.6288 -1.9459
  304TIP3   OH222470   4.556   1.853   2.369  0.0275 -0.2008  0.1044
  304TIP3    H122471   4.574   1.768   2.330 -0.1583 -0.5075  0.6749
  304TIP3    H222472   4.582   1.843   2.461  0.1420  0.4036  0.1401
  305TIP3   OH222473   2.828   6.025   7.685 -0.4391  0.3524 -0.4234
  305TIP3    H122474   2.883   6.098   7.658 -0.3122  0.4575  0.0979
  305TIP3    H222475   2.825   6.031   7.781 -2.8646  1.4761 -0.4822
  306TIP3   OH222476   2.265   0.057   7.854  0.0725 -0.2000  0.6506
  306TIP3    H122477   2.216  -0.025   7.844 -0.8635  0.2964  1.0664
  306TIP3    H222478   2.354   0.034   7.827 -0.3477 -1.1525 -0.0222
  307TIP3   OH222479   2.783   0.863   3.151  0.1286  0.9141 -0.4625
  307TIP3    H122480   2.697   0.857   3.192 -0.7190 -1.1304 -2.3024
  307TIP3    H222481   2.788   0.952   3.117 -1.2145  1.1174 -0.1731
  308TIP3   OH222482   0.002   0.970   7.684  0.6469  0.3325  0.7209
  308TIP3    H122483  -0.093   0.974   7.692  0.4921 -0.4344 -0.4859
  308TIP3    H222484   0.025   0.883   7.717  0.6795 -0.3206 -0.9566
  309TIP3   OH222485   2.226   3.612   2.005  0.1728  0.2159  0.1318
  309TIP3    H122486   2.253   3.528   2.042 -0.3172 -0.3010 -0.6474
  309TIP3    H222487   2.213   3.669   2.081 -2.9482 -1.4261  0.9952
  310TIP3   OH222488   0.133   5.150   8.360 -0.2340  0.3345 -0.0342
  310TIP3    H122489   0.211   5.156   8.305 -0.2219 -0.1535 -0.0767
  310TIP3    H222490   0.166   5.119   8.444 -0.3977 -0.0324 -0.1018
  311TIP3   OH222491   6.273   4.592   7.103  0.4474  0.6421 -0.3601
  311TIP3    H122492   6.360   4.554   7.094  0.0845 -0.3026  0.0236
  311TIP3    H222493   6.258   4.638   7.020  0.0574 -1.8416 -1.7669
  312TIP3   OH222494   0.443   3.923   8.426 -0.0962  0.4440 -0.1008
  312TIP3    H122495   0.442   3.997   8.366  1.5844  1.3320  0.8641
  312TIP3    H222496   0.403   3.851   8.377  2.9078  0.5593 -3.0788
  313TIP3   OH222497   4.988   6.334   8.204 -0.1070 -0.3850  0.1218
  313TIP3    H122498   5.017   6.255   8.159 -0.4082 -0.2794 -0.2632
  313TIP3    H222499   4.922   6.303   8.267  0.3825 -0.5445  0.5627
  314TIP3   OH222500   5.529   2.931   8.761  0.3153  0.2547 -0.0005
  314TIP3    H122501   5.464   2.990   8.722  0.8289  0.5612 -0.4012
  314TIP3    H222502   5.484   2.894   8.837 -0.5223  0.0406 -0.5817
  315TIP3   OH222503   2.868   1.770   7.299  0.1450 -0.1413 -0.4769
  315TIP3    H122504   2.857   1.804   7.210  0.1029  0.7588 -0.1381
  315TIP3    H222505   2.962   1.762   7.311  0.1270 -1.1795 -0.9276
  316TIP3   OH222506   3.419   0.850   2.751  0.5086 -0.5821 -0.1743
  316TIP3    H122507   3.379   0.777   2.798  1.1941 -1.5921 -1.1154
  316TIP3    H222508   3.483   0.886   2.812  1.2697 -1.7689 -0.2510
  317TIP3   OH222509   3.293   3.972   0.925  0.4922 -0.1076  0.9662
  317TIP3    H122510   3.378   3.961   0.881 -0.2059  1.5003 -0.9379
  317TIP3    H222511   3.292   4.064   0.953  0.3031 -0.7219  3.1334
  318TIP3   OH222512   6.741   2.875   8.803 -0.1893 -0.5136  0.0704
  318TIP3    H122513   6.798   2.833   8.867  0.4057 -0.6738 -0.5600
  318TIP3    H222514   6.683   2.805   8.772  1.1087 -1.0144 -1.3248
  319TIP3   OH222515   6.795   6.073   1.594 -0.0927 -0.1347 -0.2666
  319TIP3    H122516   6.835   6.132   1.530 -0.5943  0.0444 -0.4229
  319TIP3    H222517   6.833   5.987   1.575 -0.5575 -0.1659 -1.0902
  320TIP3   OH222518   6.674   1.851   2.729 -0.5998 -0.2623  0.0733
  320TIP3    H122519   6.620   1.824   2.803 -0.7347 -1.4232 -0.4162
  320TIP3    H222520   6.614   1.894   2.669 -0.9819 -1.4025 -0.3942
  321TIP3   OH222521   4.561   5.933   1.975 -0.1915 -0.0772  0.1440
  321TIP3    H122522   4.493   5.877   1.939  1.0957 -0.3398 -2.0243
  321TIP3    H222523   4.543   5.935   2.069 -2.0970 -1.5871 -0.1358
  322TIP3   OH222524   3.529   0.075   8.333 -0.5267 -0.2131 -0.2083
  322TIP3    H122525   3.508   0.117   8.250  0.0465 -0.6010 -0.5574
  322TIP3    H222526   3.536  -0.018   8.311 -1.6894 -0.4977  0.5325
  323TIP3   OH222527   1.361   5.952   0.901 -0.0927 -0.4851  0.1223
  323TIP3    H122528   1.412   6.013   0.847 -0.6453  0.3212  0.4820
  323TIP3    H222529   1.306   6.009   0.956 -0.1378 -1.3042  0.9472
  324TIP3   OH222530   3.717   6.563   1.827 -0.3104 -0.0886 -0.1069
  324TIP3    H122531   3.703   6.654   1.855  1.0628  0.7047 -1.8344
  324TIP3    H222532   3.812   6.553   1.824 -0.4413 -1.7805  0.5939
  325TIP3   OH222533   1.127   1.153   1.052 -0.2940  0.8151  0.5058
  325TIP3    H122534   1.108   1.174   0.961  1.7456  0.6968 -0.0144
  325TIP3    H222535   1.064   1.203   1.103 -1.3737  0.9994 -0.9647
  326TIP3   OH222536   1.012   2.240   8.040  0.3394 -0.2398 -0.0752
  326TIP3    H122537   1.082   2.198   7.991  0.2528  0.8426 -1.1701
  326TIP3    H222538   0.940   2.247   7.977  0.3810  1.5787  0.0447
  327TIP3   OH222539   0.046   5.192   0.139 -0.0217 -0.0073 -0.0549
  327TIP3    H122540   0.028   5.101   0.164 -1.4587  0.0235 -0.8565
  327TIP3    H222541   0.024   5.196   0.046 -1.4352  1.4917  0.2973
  328TIP3   OH222542   0.001   0.089   7.627 -0.0764  0.3838  0.6889
  328TIP3    H122543  -0.059   0.015   7.638 -1.3592  1.3017  0.1744
  328TIP3    H222544  -0.054   0.166   7.641  0.8900  1.2764 -0.2456
  329TIP3   OH222545   3.051   0.723   1.572  0.1711  0.1497  0.1248
  329TIP3    H122546   3.126   0.737   1.630  0.2146  0.9511 -0.1230
  329TIP3    H222547   3.021   0.634   1.594  0.8191  0.0490  0.6442
  330TIP3   OH222548   2.005   6.128   3.367 -1.1394 -0.2966  0.4921
  330TIP3    H122549   2.003   6.123   3.271  0.8090 -1.3846  0.4502
  330TIP3    H222550   1.965   6.046   3.396 -3.2675  0.7471  0.7041
  331TIP3   OH222551   5.985   2.065   1.158 -0.5069  0.2770  0.2163
  331TIP3    H122552   6.033   2.088   1.238 -1.4847  0.0867  0.8728
  331TIP3    H222553   6.050   2.023   1.102  0.3939  1.1537  0.5633
  332TIP3   OH222554   4.727   5.288   1.501  0.4431  0.0935  0.0401
  332TIP3    H122555   4.771   5.297   1.417  1.6421  0.4559  0.6807
  332TIP3    H222556   4.783   5.228   1.551 -0.4678 -0.4337  0.4427
  333TIP3   OH222557   1.873   3.052   1.280  0.0679 -0.4201  0.2514
  333TIP3    H122558   1.915   3.133   1.312  2.0676 -0.8914 -1.0151
  333TIP3    H222559   1.830   3.078   1.199  2.7740 -1.0103 -1.4941
  334TIP3   OH222560   6.096   0.921   8.738  0.0609  0.2661 -0.2034
  334TIP3    H122561   6.154   0.947   8.809  0.2402 -1.8838  0.5073
  334TIP3    H222562   6.128   0.836   8.711 -2.0822 -0.4874 -0.5402
  335TIP3   OH222563   1.381   1.657   7.930  0.2845 -0.4953 -0.6855
  335TIP3    H122564   1.358   1.633   8.020  0.3498 -0.5207 -0.6757
  335TIP3    H222565   1.417   1.577   7.892  2.5462  0.1325  0.0164
  336TIP3   OH222566   5.259   5.565   0.666  0.1082 -0.5273 -0.0784
  336TIP3    H122567   5.230   5.487   0.619  1.4489 -2.6924  2.4203
  336TIP3    H222568   5.317   5.532   0.735  1.3869  2.7695  0.6434
  337TIP3   OH222569   1.804   5.421   0.164  0.2557  0.5160  0.0761
  337TIP3    H122570   1.875   5.389   0.107 -0.6193 -0.0805 -0.7125
  337TIP3    H222571   1.791   5.352   0.228  1.7852  1.5272  1.5699
  338TIP3   OH222572   1.839   5.235   0.613  0.5739 -0.5670 -0.2635
  338TIP3    H122573   1.830   5.247   0.708  0.3502 -1.4093 -0.1735
  338TIP3    H222574   1.750   5.245   0.579  0.6419 -0.3462 -0.3843
  339TIP3   OH222575   5.929   4.698   0.763 -0.3110 -0.0168 -0.0168
  339TIP3    H122576   5.911   4.788   0.740  0.8085 -0.0304 -1.0376
  339TIP3    H222577   5.864   4.647   0.714 -0.4058  0.1832 -0.1005
  340TIP3   OH222578   0.686   2.647   2.043 -0.0455  0.3248 -0.4999
  340TIP3    H122579   0.699   2.565   2.089 -0.2283  0.8003  0.4317
  340TIP3    H222580   0.604   2.636   1.996 -0.5824  0.3022  0.4087
  341TIP3   OH222581   0.067   3.402   1.376  0.0811  1.0508 -0.3690
  341TIP3    H122582   0.145   3.347   1.383 -0.3697  0.5246  0.8230
  341TIP3    H222583   0.100   3.491   1.389  0.4164  0.7811  0.7442
  342TIP3   OH222584   5.838   1.317   7.256  0.1029  0.0659 -0.5365
  342TIP3    H122585   5.905   1.381   7.231  0.6407 -0.3505 -0.1632
  342TIP3    H222586   5.887   1.240   7.282 -0.4941  0.0786  0.6765
  343TIP3   OH222587   5.181   2.065   7.796 -0.8962  0.4286  0.2301
  343TIP3    H122588   5.100   2.082   7.748 -1.1205 -0.3216  0.3253
  343TIP3    H222589   5.161   2.091   7.886 -1.6709 -1.4411  0.6528
  344TIP3   OH222590   4.603   3.302   2.806  0.1011 -0.1664 -0.0183
  344TIP3    H122591   4.645   3.274   2.888 -1.2833 -1.9927  0.1357
  344TIP3    H222592   4.571   3.221   2.767 -0.6922  0.8520 -1.5757
  345TIP3   OH222593   5.087   6.537   1.760  0.6410 -0.2801  0.5804
  345TIP3    H122594   5.000   6.507   1.732  0.1832  0.7047  0.8877
  345TIP3    H222595   5.142   6.526   1.682  0.3727 -1.3872  0.5316
  346TIP3   OH222596   6.688   2.993   7.103 -0.0492  0.4146  0.0803
  346TIP3    H122597   6.636   2.918   7.131 -0.4867  0.5996 -0.2404
  346TIP3    H222598   6.754   3.003   7.172 -0.6384  0.3869  0.6585
  347TIP3   OH222599   6.322   3.424   0.671  0.1416  0.2949  0.5969
  347TIP3    H122600   6.340   3.434   0.764 -2.0158  1.1092  0.9884
  347TIP3    H222601   6.241   3.373   0.668  0.7887 -0.7074 -0.8944
  348TIP3   OH222602   2.398   5.337   7.778  0.3758 -0.2980  0.2934
  348TIP3    H122603   2.427   5.359   7.690 -0.2938  1.2584  0.4429
  348TIP3    H222604   2.306   5.313   7.768  0.4449 -0.6790  0.5082
  349TIP3   OH222605   6.355   4.750   7.306  0.1263 -0.2183 -0.4762
  349TIP3    H122606   6.271   4.757   7.352  0.8115 -2.1084  1.2336
  349TIP3    H222607   6.334   4.703   7.225 -0.3515 -1.6419  0.4366
  350TIP3   OH222608   3.181   2.896   2.674  0.1904 -0.2910 -0.4471
  350TIP3    H122609   3.264   2.919   2.633  0.7986 -2.6032 -0.6113
  350TIP3    H222610   3.201   2.889   2.767 -0.1138  0.3325 -0.3304
  351TIP3   OH222611   2.949   1.183   1.377 -0.4712  0.4989 -0.7686
  351TIP3    H122612   2.932   1.271   1.343  0.0743  0.3817 -1.3765
  351TIP3    H222613   3.043   1.183   1.398 -1.0825  1.1237  2.4824
  352TIP3   OH222614   2.062   0.125   2.907  0.4843  0.2391 -0.2050
  352TIP3    H122615   2.006   0.190   2.950  1.3956  2.6901 -2.4075
  352TIP3    H222616   2.147   0.133   2.950  0.5524  0.3924 -0.3673
  353TIP3   OH222617   4.170   1.848   7.607 -0.2236  0.2193 -0.5420
  353TIP3    H122618   4.183   1.768   7.659  0.4610  0.2328 -0.6849
  353TIP3    H222619   4.210   1.828   7.522 -0.5198  0.5303 -0.7573
  354TIP3   OH222620   5.050   3.233   0.837  0.4389  0.0812 -0.0251
  354TIP3    H122621   5.103   3.153   0.844  2.6296  1.3666 -0.9820
  354TIP3    H222622   4.972   3.214   0.889  1.2298 -2.3889  0.4079
  355TIP3   OH222623   2.237   6.584   0.286  0.5978  0.3048 -0.2258
  355TIP3    H122624   2.288   6.663   0.302 -0.5025  0.8790  0.6073
  355TIP3    H222625   2.147   6.616   0.273  0.1802 -0.7779 -0.0992
  356TIP3   OH222626   5.767   3.333   1.295 -0.4526  0.2993  0.2472
  356TIP3    H122627   5.754   3.244   1.261 -0.3776 -0.1436  1.3209
  356TIP3    H222628   5.822   3.376   1.230 -0.5298 -0.4287 -0.3107
  357TIP3   OH222629   4.537   0.450   7.624  0.5446  0.1333 -0.3251
  357TIP3    H122630   4.459   0.425   7.674  0.1580  3.0064  0.6996
  357TIP3    H222631   4.582   0.367   7.606 -0.2659 -1.2277  3.1724
  358TIP3   OH222632   5.543   6.503   0.137 -0.4982  0.0049 -0.3372
  358TIP3    H122633   5.508   6.534   0.221 -1.3983  0.1660 -0.7642
  358TIP3    H222634   5.630   6.468   0.159  0.4303  2.4530  0.2329
  359TIP3   OH222635   1.436   3.304   8.483  0.0009  0.2860 -0.2333
  359TIP3    H122636   1.406   3.393   8.467 -1.4742 -0.3234 -1.1199
  359TIP3    H222637   1.528   3.313   8.506 -0.1077  2.0211 -0.3394
  360TIP3   OH222638   1.017   1.628   1.228 -0.6086 -0.5969  0.0788
  360TIP3    H122639   1.073   1.705   1.228 -0.2057 -0.8612 -1.3939
  360TIP3    H222640   1.074   1.558   1.261 -0.6472 -0.4941  0.3692
  361TIP3   OH222641   3.544   3.033   1.491 -0.3399  0.9336  0.4267
  361TIP3    H122642   3.476   3.003   1.551  1.5788 -0.9796  1.7982
  361TIP3    H222643   3.581   3.111   1.533  1.0447 -0.4391  1.8846
  362TIP3   OH222644   5.026   0.133   8.589  0.1406  0.3837 -0.2588
  362TIP3    H122645   5.066   0.128   8.502 -0.4110  0.5144 -0.5271
  362TIP3    H222646   4.958   0.201   8.580  0.7705  1.1505  0.5559
  363TIP3   OH222647   0.433   2.576   7.366 -0.5677  0.4650  0.5108
  363TIP3    H122648   0.368   2.640   7.335  0.4260  0.3680 -2.0249
  363TIP3    H222649   0.381   2.497   7.382 -1.2791  0.7975 -0.0639
  364TIP3   OH222650   5.392   0.712   0.578  0.1785  0.0478  0.3443
  364TIP3    H122651   5.394   0.765   0.657 -1.7589 -0.5523  0.8632
  364TIP3    H222652   5.425   0.770   0.509 -0.5852  1.4700  1.1325
  365TIP3   OH222653   1.426   1.274   8.528 -0.1161  0.1618 -0.3887
  365TIP3    H122654   1.458   1.328   8.600  0.0974 -0.6186  0.1063
  365TIP3    H222655   1.501   1.264   8.470  0.5432 -1.5693  0.7130
  366TIP3   OH222656   3.601   4.341   6.892 -0.0720  0.3423  0.5137
  366TIP3    H122657   3.620   4.265   6.947  0.6661 -0.0778 -0.2991
  366TIP3    H222658   3.572   4.408   6.954 -1.6897 -0.8689  1.1462
  367TIP3   OH222659   2.755   0.989   8.777 -0.3861  0.0831  0.0623
  367TIP3    H122660   2.745   0.914   8.836  0.1047 -1.0791 -1.2699
  367TIP3    H222661   2.848   0.987   8.752 -0.9040 -0.4719 -2.0009
  368TIP3   OH222662   5.527   5.441   7.563 -0.1330  0.5567  0.1694
  368TIP3    H122663   5.508   5.532   7.539 -0.7546  0.2275 -0.5979
  368TIP3    H222664   5.465   5.421   7.633 -1.1879  0.1728 -0.8569
  369TIP3   OH222665   0.897   3.432   8.462 -0.2065  0.2390 -0.1791
  369TIP3    H122666   0.816   3.472   8.432 -1.6281 -2.1030  0.3003
  369TIP3    H222667   0.870   3.353   8.508  2.3744 -0.8973 -0.4187
  370TIP3   OH222668   6.640   5.591   2.239 -0.1075 -0.1449  0.5924
  370TIP3    H122669   6.619   5.684   2.244  0.1308 -0.0541 -0.0316
  370TIP3    H222670   6.555   5.547   2.236 -0.2354 -0.0093  1.6662
  371TIP3   OH222671   2.689   3.539   0.600  0.1793 -0.3972 -0.2264
  371TIP3    H122672   2.627   3.523   0.529 -0.9245 -1.7307  0.9757
  371TIP3    H222673   2.674   3.631   0.623 -0.5526 -0.3869 -0.6966
  372TIP3   OH222674   5.901   0.037   8.699  0.0530  0.1636  0.1494
  372TIP3    H122675   5.980  -0.004   8.664 -1.2351  0.8461 -4.1775
  372TIP3    H222676   5.859  -0.032   8.750  2.4470 -0.7900  0.9727
  373TIP3   OH222677   4.948   4.248   2.305  0.0620  0.0255  0.2323
  373TIP3    H122678   4.951   4.181   2.236  0.6153 -0.4901  0.7529
  373TIP3    H222679   4.988   4.206   2.381 -1.5101  0.2093  1.2070
  374TIP3   OH222680   1.331   2.147   1.610 -0.2682  0.2761 -0.4749
  374TIP3    H122681   1.292   2.139   1.523 -1.0906 -0.5406 -0.0513
  374TIP3    H222682   1.269   2.103   1.668  0.2857  0.7764  0.5235
  375TIP3   OH222683   1.792   5.956   8.191  0.6552 -0.2288 -0.4654
  375TIP3    H122684   1.778   6.028   8.130 -1.6517  1.0262  1.3953
  375TIP3    H222685   1.734   5.886   8.159  1.7658 -0.7461 -1.4098
  376TIP3   OH222686   0.755   4.415   2.497  0.0355 -0.2671 -0.6861
  376TIP3    H122687   0.674   4.447   2.458 -0.3000 -1.0052 -0.6039
  376TIP3    H222688   0.771   4.473   2.572 -0.5125 -0.2398 -0.5886
  377TIP3   OH222689   3.561   4.953   8.627 -0.5445 -1.0914 -0.7674
  377TIP3    H122690   3.573   4.861   8.649  0.2527 -0.9592 -0.6209
  377TIP3    H222691   3.641   4.996   8.657 -0.1261 -0.6331 -2.4502
  378TIP3   OH222692   1.887   6.359   2.306 -0.0553  0.3990 -0.0135
  378TIP3    H122693   1.966   6.372   2.359  0.3018  1.1639 -0.7195
  378TIP3    H222694   1.857   6.271   2.330  0.1650  0.6709  1.3544
  379TIP3   OH222695   4.835   1.560   0.566 -0.2201  0.1366 -0.2285
  379TIP3    H122696   4.914   1.507   0.574 -0.9075 -0.8309  0.3894
  379TIP3    H222697   4.798   1.536   0.481  0.1352  0.5761 -0.5095
  380TIP3   OH222698   1.660   3.270   1.637  0.4339  0.1375  0.5486
  380TIP3    H122699   1.605   3.193   1.626  1.0735 -0.0761 -1.4949
  380TIP3    H222700   1.745   3.235   1.663  0.6175  0.1687  0.0044
  381TIP3   OH222701   1.481   3.196   7.275 -0.0919 -0.2674  0.4979
  381TIP3    H122702   1.567   3.203   7.233 -0.7057 -0.6357 -0.8562
  381TIP3    H222703   1.418   3.208   7.204 -1.1749 -0.0273  1.4666
  382TIP3   OH222704   3.185   3.319   2.017  0.1134 -0.1292  0.0949
  382TIP3    H122705   3.115   3.256   2.001 -0.9224  0.7373  0.9973
  382TIP3    H222706   3.193   3.323   2.113  0.8958  0.3322  0.0243
  383TIP3   OH222707   0.942   5.073   8.034 -0.3712 -0.7550 -0.3758
  383TIP3    H122708   0.988   5.157   8.028  0.0739 -0.9718 -0.0532
  383TIP3    H222709   0.966   5.027   7.954 -2.5372  0.3532 -1.7713
  384TIP3   OH222710   0.228   6.390   0.027  0.6789  0.2861  0.3980
  384TIP3    H122711   0.192   6.397  -0.061 -0.4391 -0.5665  0.7675
  384TIP3    H222712   0.272   6.305   0.028 -0.7929 -0.5146  1.1439
  385TIP3   OH222713   2.587   2.674   0.260 -0.1755  0.1470 -0.0886
  385TIP3    H122714   2.494   2.654   0.251 -0.1609  0.2719 -0.4961
  385TIP3    H222715   2.592   2.770   0.258  0.1683  0.1140 -2.1255
  386TIP3   OH222716   2.986   2.095   0.594  0.5521 -0.1978  0.2299
  386TIP3    H122717   3.063   2.097   0.537  0.3569 -0.2114 -0.0384
  386TIP3    H222718   2.996   2.015   0.645  0.0293 -0.9176 -0.7767
  387TIP3   OH222719   3.970   5.992   1.282  0.0549 -0.1526  0.1531
  387TIP3    H122720   3.954   6.064   1.220  2.8009  1.1856  0.8605
  387TIP3    H222721   4.017   5.926   1.231 -0.3054 -0.3713  0.1010
  388TIP3   OH222722   2.990   5.248   0.025 -0.0049 -0.8234 -0.4173
  388TIP3    H122723   2.916   5.302   0.054  1.7595  0.3078  2.4900
  388TIP3    H222724   3.051   5.311  -0.013  0.1687 -1.4860 -1.2509
  389TIP3   OH222725   3.784   5.916   0.703  0.4673  0.2670  0.0066
  389TIP3    H122726   3.812   5.833   0.741 -0.3391  0.0923  0.2497
  389TIP3    H222727   3.843   5.981   0.742  1.5734 -0.2661 -0.7482
  390TIP3   OH222728   4.696   3.245   2.253  0.2272 -0.3024 -0.4265
  390TIP3    H122729   4.732   3.230   2.340  0.2089  0.9263 -0.1868
  390TIP3    H222730   4.613   3.197   2.253 -0.4475  0.8084  0.7366
  391TIP3   OH222731   3.076   2.331   7.068  0.0705 -0.2793  0.6868
  391TIP3    H122732   3.078   2.298   6.978 -1.4608 -1.7820  1.1440
  391TIP3    H222733   3.036   2.418   7.062 -0.3469 -0.5156 -0.0583
  392TIP3   OH222734   0.650   4.962   7.968 -0.7216  0.2318  0.0453
  392TIP3    H122735   0.668   4.983   7.877 -0.3299 -0.2142  0.0199
  392TIP3    H222736   0.734   4.973   8.013 -0.6964 -0.4535  0.1827
  393TIP3   OH222737   4.901   6.638   0.385  0.6896 -0.2283 -0.1712
  393TIP3    H122738   4.810   6.623   0.363  0.6933  2.1010 -2.3223
  393TIP3    H222739   4.899   6.706   0.452  0.7668  1.6332 -1.9522
  394TIP3   OH222740   4.071   4.772   8.571 -0.0100 -0.1969  0.3860
  394TIP3    H122741   4.043   4.814   8.490  1.3778 -0.0407 -0.0351
  394TIP3    H222742   4.017   4.693   8.576 -0.1064 -0.2234 -0.7084
  395TIP3   OH222743   2.273   4.507   8.635 -0.1785  0.0049  0.2680
  395TIP3    H122744   2.223   4.454   8.696  1.3379 -0.1413  1.4424
  395TIP3    H222745   2.328   4.563   8.690 -0.6994  1.8012 -0.9555
  396TIP3   OH222746   4.852   4.931   1.828  0.1063  0.7759  0.2883
  396TIP3    H122747   4.804   4.886   1.758  1.6961 -1.9634  0.8092
  396TIP3    H222748   4.798   5.007   1.849 -2.5335 -0.5828 -1.0482
  397TIP3   OH222749   1.546   5.889   0.701  0.1170 -0.3084 -0.2651
  397TIP3    H122750   1.544   5.928   0.613  0.3308  1.7370  0.5766
  397TIP3    H222751   1.553   5.795   0.685  1.5802  0.0864 -2.4421
  398TIP3   OH222752   1.470   1.196   1.835 -0.2857  0.1332  0.4003
  398TIP3    H122753   1.501   1.286   1.844  0.9066 -0.3496  1.3687
  398TIP3    H222754   1.432   1.175   1.920 -2.7123  0.4522 -0.5309
  399TIP3   OH222755   3.235   2.673   1.358  0.3796  0.2664 -0.4547
  399TIP3    H122756   3.224   2.579   1.374  2.7369 -0.0136 -0.1098
  399TIP3    H222757   3.243   2.680   1.263  0.2199  0.1344 -0.4798
  400TIP3   OH222758   0.421   4.195   2.367  0.8461  0.3677  0.0482
  400TIP3    H122759   0.327   4.184   2.385  1.3244 -1.0354  2.1437
  400TIP3    H222760   0.438   4.136   2.294  0.3432 -0.5887  0.6730
  401TIP3   OH222761   0.099   0.981   0.134 -0.0950 -0.7892 -0.1652
  401TIP3    H122762   0.097   1.064   0.087  2.3846 -0.3366  0.3919
  401TIP3    H222763   0.094   1.005   0.226  1.1946 -1.1734  0.0255
  402TIP3   OH222764   2.466   3.310   8.651  0.0577 -0.3064  0.1421
  402TIP3    H122765   2.449   3.402   8.633  1.5674 -0.1304 -0.5514
  402TIP3    H222766   2.417   3.262   8.584 -2.6608 -0.2053  1.8842
  403TIP3   OH222767   0.693   0.661   1.084 -0.5089  0.1592  0.7324
  403TIP3    H122768   0.736   0.745   1.071 -0.2464 -0.0205  0.4418
  403TIP3    H222769   0.763   0.601   1.107 -0.4208 -0.3861 -0.8308
  404TIP3   OH222770   2.989   5.318   2.289 -0.3130 -0.0775 -0.5630
  404TIP3    H122771   3.076   5.329   2.328  0.0143  0.4087 -1.4049
  404TIP3    H222772   2.943   5.259   2.349  0.0906  0.8284  0.6743
  405TIP3   OH222773   0.368   1.385   2.392  0.3778 -0.2591  0.2816
  405TIP3    H122774   0.415   1.444   2.451 -0.0634  1.6239 -1.1558
  405TIP3    H222775   0.415   1.302   2.399  1.5319  0.4664  1.7723
  406TIP3   OH222776   3.284   5.870   1.590  0.2631 -0.6842 -0.1499
  406TIP3    H122777   3.249   5.959   1.586 -0.2033 -0.8469  0.2867
  406TIP3    H222778   3.370   5.880   1.630 -0.9542 -0.7321  2.7449
  407TIP3   OH222779   2.905   1.104   3.013  0.2658  0.4200 -0.0801
  407TIP3    H122780   2.847   1.134   2.942 -0.5350 -0.9331 -0.0253
  407TIP3    H222781   2.984   1.157   3.004 -0.7270  1.8883 -0.5525
  408TIP3   OH222782   1.234   5.117   8.733 -0.1399 -0.6210 -0.1599
  408TIP3    H122783   1.323   5.081   8.730 -0.7679 -2.3117  0.2514
  408TIP3    H222784   1.235   5.189   8.670  1.6360 -0.3115  0.1714
  409TIP3   OH222785   0.718   2.803   0.365  0.0928  0.0583  0.4923
  409TIP3    H122786   0.765   2.725   0.335  0.2653  0.5545 -0.5726
  409TIP3    H222787   0.659   2.770   0.433 -0.3922 -1.1404 -0.4622
  410TIP3   OH222788   1.790   3.663   7.281 -0.1034  0.7642 -0.8178
  410TIP3    H122789   1.780   3.749   7.240  1.1413  0.9535 -0.7765
  410TIP3    H222790   1.734   3.605   7.230 -0.6654  1.5288 -1.0803
  411TIP3   OH222791   3.553   5.520   0.237  0.2964 -0.3418 -0.0749
  411TIP3    H122792   3.617   5.555   0.174  0.5488  0.7820  0.7695
  411TIP3    H222793   3.468   5.546   0.201  0.4738  1.0574  0.4473
  412TIP3   OH222794   2.581   0.537   2.011 -0.1323  0.6989 -0.5455
  412TIP3    H122795   2.534   0.595   1.951 -2.8619 -1.0839 -0.2857
  412TIP3    H222796   2.644   0.490   1.955 -0.7049  1.0318 -1.4899
  413TIP3   OH222797   1.539   0.137   0.888 -0.5054 -0.3761  0.1386
  413TIP3    H122798   1.454   0.155   0.848  0.0927  1.4443 -0.3926
  413TIP3    H222799   1.524   0.150   0.982 -1.2030 -1.7736  0.2460
  414TIP3   OH222800   5.496   4.032   8.059 -0.3304  0.9762  0.6261
  414TIP3    H122801   5.535   4.040   8.146 -0.8740 -0.1109  0.9909
  414TIP3    H222802   5.482   4.122   8.031 -0.7285  1.3542  1.9357
  415TIP3   OH222803   6.717   6.566   0.905  0.1021 -0.4249 -0.4212
  415TIP3    H122804   6.769   6.489   0.927 -0.9247 -1.1327 -0.4001
  415TIP3    H222805   6.767   6.610   0.836  1.1819 -0.5635  0.2504
  416TIP3   OH222806   1.511   0.337   7.022  0.2864 -0.2018  0.0155
  416TIP3    H122807   1.443   0.271   7.033  0.0995 -0.0096  0.0218
  416TIP3    H222808   1.570   0.324   7.097 -0.5611  0.6034  0.8569
  417TIP3   OH222809   2.431   1.238   8.529 -0.5388 -0.1472  0.4149
  417TIP3    H122810   2.337   1.242   8.549 -0.2092 -2.1057  2.7073
  417TIP3    H222811   2.469   1.310   8.579 -0.6691 -0.2135  0.6122
  418TIP3   OH222812   0.330   0.262   2.282 -0.2166  0.4240 -0.0418
  418TIP3    H122813   0.320   0.355   2.303  2.0462  0.5610  0.7263
  418TIP3    H222814   0.417   0.256   2.242  0.3859 -1.5725  1.4250
  419TIP3   OH222815   2.019   2.808   1.671 -0.4152  0.0118 -0.3892
  419TIP3    H122816   2.034   2.715   1.654 -1.2383 -0.1824 -0.1087
  419TIP3    H222817   2.073   2.827   1.748 -1.4746 -0.6437  0.5459
  420TIP3   OH222818   1.534   4.512   0.919 -0.4324 -0.2322 -0.1522
  420TIP3    H122819   1.461   4.452   0.934 -0.7630  0.4375  1.0212
  420TIP3    H222820   1.553   4.549   1.005 -0.0311  1.1058 -0.7854
  421TIP3   OH222821   1.870   5.255   0.883 -0.1044  0.3690  0.0531
  421TIP3    H122822   1.805   5.313   0.922 -0.7845 -0.7006  0.5619
  421TIP3    H222823   1.952   5.304   0.887 -0.8914  1.8291 -0.7784
  422TIP3   OH222824   1.941   3.010   8.703 -0.1578  0.0301 -0.6036
  422TIP3    H122825   2.035   3.015   8.722 -0.0623 -2.8361  0.0937
  422TIP3    H222826   1.899   3.029   8.787 -0.0598 -1.7822 -0.1095
  423TIP3   OH222827   1.648   3.849   2.096 -0.3985  0.5012 -0.1140
  423TIP3    H122828   1.599   3.831   2.176  0.3020  1.1044  0.4546
  423TIP3    H222829   1.596   3.806   2.027 -0.2400 -1.3086  0.8297
  424TIP3   OH222830   0.235   2.833   8.193  0.0966  0.2492  0.1723
  424TIP3    H122831   0.311   2.800   8.145  0.7809  1.2788  0.5183
  424TIP3    H222832   0.164   2.773   8.169  0.7239 -0.0276 -1.0952
  425TIP3   OH222833   1.680   4.332   8.164 -0.0738 -0.2265 -0.0419
  425TIP3    H122834   1.644   4.323   8.253  0.9815  1.8134  0.6629
  425TIP3    H222835   1.613   4.379   8.116  0.5472  1.3265  0.5574
  426TIP3   OH222836   1.722   4.645   8.524  0.1747  0.0034  0.6362
  426TIP3    H122837   1.742   4.625   8.432 -0.0838  1.4135  0.2514
  426TIP3    H222838   1.713   4.560   8.565 -1.4204 -0.7003 -1.0158
  427TIP3   OH222839   4.306   0.428   6.895  0.3556  0.5195 -0.4628
  427TIP3    H122840   4.274   0.508   6.937  0.3236 -0.1124  0.7738
  427TIP3    H222841   4.248   0.414   6.821 -0.6268  0.7915  0.2431
  428TIP3   OH222842   4.458   4.988   0.023 -0.3055 -0.5273  0.1157
  428TIP3    H122843   4.413   4.969  -0.060  0.0626  1.1009 -0.5042
  428TIP3    H222844   4.467   5.083   0.024 -1.9316 -0.3073  2.9124
  429TIP3   OH222845   5.643   5.347   1.337 -0.1624 -0.3200 -0.1988
  429TIP3    H122846   5.597   5.276   1.380 -0.9836 -0.2054 -0.8607
  429TIP3    H222847   5.736   5.328   1.351 -0.3819 -1.2562  0.0392
  430TIP3   OH222848   5.638   0.460   1.819 -0.1398 -0.3283 -0.3788
  430TIP3    H122849   5.588   0.539   1.839  1.0952  0.5930 -0.7907
  430TIP3    H222850   5.640   0.456   1.724  0.9700 -0.0596 -0.3848
  431TIP3   OH222851   5.852   1.591   8.686 -0.1223 -0.0584  0.2420
  431TIP3    H122852   5.900   1.588   8.769 -0.2518  2.0262  0.4396
  431TIP3    H222853   5.908   1.545   8.624  0.3352 -0.9752  1.3029
  432TIP3   OH222854   1.904   2.804   8.095  0.3438 -0.4097 -0.2406
  432TIP3    H122855   1.974   2.781   8.157  0.0863 -0.4651  0.0315
  432TIP3    H222856   1.933   2.769   8.011  1.9927  1.9265 -0.7591
  433TIP3   OH222857   4.885   6.672   2.102 -0.0953 -0.1437 -0.1609
  433TIP3    H122858   4.950   6.725   2.057 -1.3402 -0.4953 -2.5831
  433TIP3    H222859   4.828   6.735   2.146  0.5822  0.2863  0.1023
  434TIP3   OH222860   1.340   1.037   8.423 -0.0254 -0.3479  0.4906
  434TIP3    H122861   1.273   1.015   8.487  1.2931  0.1117  2.1077
  434TIP3    H222862   1.371   1.124   8.449  1.3999 -0.6691 -0.0253
  435TIP3   OH222863   3.606   3.970   7.678  0.0049  0.1941  0.4862
  435TIP3    H122864   3.595   3.875   7.685 -0.8857  0.2495  0.0115
  435TIP3    H222865   3.518   4.005   7.692 -0.4989  0.7369 -3.0487
  436TIP3   OH222866   5.295   3.662   0.756 -0.1333  0.3728  0.1565
  436TIP3    H122867   5.223   3.603   0.780  1.6662 -1.4284  1.5722
  436TIP3    H222868   5.287   3.735   0.817  0.0687 -0.5601  1.3521
  437TIP3   OH222869   5.944   1.274   0.921 -0.0587 -0.6325  0.0168
  437TIP3    H122870   5.910   1.239   1.004 -2.3136 -0.1510 -0.6409
  437TIP3    H222871   5.873   1.261   0.858  0.5719  1.4090 -1.2206
  438TIP3   OH222872   3.427   5.887   2.207  0.0707  0.4271  0.7582
  438TIP3    H122873   3.498   5.933   2.253 -0.7529 -0.5414  3.1312
  438TIP3    H222874   3.473   5.824   2.151  1.1372  0.5663  1.4281
  439TIP3   OH222875   4.024   3.966   1.360 -0.0839  0.3251  0.0286
  439TIP3    H122876   4.070   3.931   1.284  1.3027 -0.0873  1.0249
  439TIP3    H222877   3.983   4.046   1.328  1.1937  0.6219 -0.9442
  440TIP3   OH222878   2.912   4.753   0.891  0.0326  0.2064 -0.5284
  440TIP3    H122879   2.864   4.836   0.892  1.8065  1.3135 -1.7175
  440TIP3    H222880   2.995   4.773   0.934 -0.2516 -1.5158  0.9393
  441TIP3   OH222881   4.468   2.588   1.671  0.3787  0.4680  0.4448
  441TIP3    H122882   4.483   2.516   1.733  1.4416  1.1699  1.0345
  441TIP3    H222883   4.409   2.648   1.717  0.6918  0.6976  0.5507
  442TIP3   OH222884   1.887   5.619   8.649  0.1473  1.1587  0.3109
  442TIP3    H122885   1.974   5.580   8.660  0.4765  0.6197 -3.0197
  442TIP3    H222886   1.826   5.549   8.673  0.7294  0.0364 -1.3140
  443TIP3   OH222887   6.616   3.390   0.135 -0.1516  0.7640  0.2897
  443TIP3    H122888   6.541   3.351   0.090  0.9702 -0.3509 -0.7065
  443TIP3    H222889   6.671   3.424   0.064  0.4626  1.2268  0.9777
  444TIP3   OH222890   1.550   5.642   1.477 -0.4344  0.4107  0.1663
  444TIP3    H122891   1.521   5.730   1.502 -1.7368  0.5315 -1.6409
  444TIP3    H222892   1.596   5.655   1.394 -1.1952 -0.6921 -0.4420
  445TIP3   OH222893   2.642   6.588   2.275 -0.0824  0.1406 -0.0277
  445TIP3    H122894   2.654   6.660   2.336  0.5594  0.2706 -0.3064
  445TIP3    H222895   2.594   6.627   2.202  0.9642  0.4803 -0.5409
  446TIP3   OH222896   5.092   2.319   6.965 -0.4846  0.2052  0.2981
  446TIP3    H122897   5.147   2.322   7.043  0.5689  1.5399 -0.4472
  446TIP3    H222898   5.143   2.364   6.898 -3.2120  3.4206  0.0700
  447TIP3   OH222899   6.436   0.132   1.910  0.8390 -0.2721 -0.0502
  447TIP3    H122900   6.423   0.184   1.830  0.1318  0.0021  0.2300
  447TIP3    H222901   6.387   0.180   1.977  1.1118 -0.7070  0.4611
  448TIP3   OH222902   1.538   4.539   1.210 -0.8777  0.2300  0.2840
  448TIP3    H122903   1.618   4.553   1.262  1.2459 -1.0834 -2.3629
  448TIP3    H222904   1.505   4.627   1.192 -0.1463  0.7963  1.5755
  449TIP3   OH222905   6.601   0.697   0.815  0.1047  0.4820  0.3098
  449TIP3    H122906   6.561   0.713   0.729 -0.1995  0.5263  0.4575
  449TIP3    H222907   6.596   0.782   0.859 -0.0247  0.3813  0.4879
  450TIP3   OH222908   3.111   3.614   8.335 -0.1116 -0.1863 -0.2180
  450TIP3    H122909   3.084   3.554   8.266 -0.6340 -0.7572  0.4691
  450TIP3    H222910   3.050   3.598   8.407 -0.6233  1.5909 -0.2181
  451TIP3   OH222911   0.730   6.333   0.728  0.3904 -0.0163  0.5270
  451TIP3    H122912   0.672   6.384   0.671  0.4427  0.9498  1.3056
  451TIP3    H222913   0.728   6.245   0.691 -0.7415  0.2379 -0.0926
  452TIP3   OH222914   1.992   0.280   7.431 -0.3975  0.2030  0.1105
  452TIP3    H122915   2.065   0.338   7.409  0.0028 -0.3622 -0.1007
  452TIP3    H222916   2.031   0.213   7.487 -0.7891 -0.0077  0.1340
  453TIP3   OH222917   3.017   4.180   2.233 -0.1214  0.4621  0.1624
  453TIP3    H122918   2.949   4.164   2.299 -1.3691  1.4207 -0.8417
  453TIP3    H222919   3.047   4.092   2.209 -1.6454 -0.0518  0.0042
  454TIP3   OH222920   4.175   0.730   7.827  0.1076 -0.1697 -0.2074
  454TIP3    H122921   4.170   0.817   7.788  1.1587 -0.2846 -0.6007
  454TIP3    H222922   4.150   0.744   7.919  0.2057  0.5353 -0.2853
  455TIP3   OH222923   2.322   6.072   2.716 -0.3185 -0.0875  0.4376
  455TIP3    H122924   2.318   6.011   2.790 -2.2904 -0.0218  0.4461
  455TIP3    H222925   2.259   6.140   2.737 -1.4810 -0.4314 -1.5792
  456TIP3   OH222926   3.723   3.916   1.646  0.0297  0.2353 -0.0353
  456TIP3    H122927   3.706   3.836   1.697 -1.3569 -2.4044 -4.1083
  456TIP3    H222928   3.817   3.914   1.630 -0.2478 -2.1235 -2.0254
  457TIP3   OH222929   5.299   2.787   8.225 -0.0087 -0.9390  0.0307
  457TIP3    H122930   5.268   2.712   8.276 -1.6173 -1.6791 -1.9100
  457TIP3    H222931   5.219   2.834   8.201  0.7118 -0.3752 -1.3893
  458TIP3   OH222932   4.199   3.660   7.972  0.1301 -0.1716  0.2143
  458TIP3    H122933   4.215   3.568   7.991 -1.4372 -0.4628  0.2805
  458TIP3    H222934   4.106   3.664   7.950  0.0575  1.4689  0.6746
  459TIP3   OH222935   0.536   3.800   2.585  0.1507 -0.4445  0.1187
  459TIP3    H122936   0.516   3.892   2.601 -0.5638 -0.4458 -0.6381
  459TIP3    H222937   0.455   3.754   2.607 -0.8754 -0.4497 -3.1235
  460TIP3   OH222938   4.674   1.916   8.602  0.1343 -0.6496  0.5303
  460TIP3    H122939   4.764   1.883   8.611  0.3599 -0.2131 -0.0283
  460TIP3    H222940   4.677   1.970   8.523 -1.1909 -2.5261 -0.8978
  461TIP3   OH222941   1.761   5.999   0.075  0.2152 -0.0049  0.0475
  461TIP3    H122942   1.823   5.944   0.028  0.2088  0.3657 -0.4040
  461TIP3    H222943   1.719   5.940   0.138 -0.3205 -0.6959 -0.9253
  462TIP3   OH222944   3.381   3.961   6.836 -0.1895  0.0534  0.0575
  462TIP3    H122945   3.449   3.977   6.900 -0.3868 -1.2328  0.6208
  462TIP3    H222946   3.311   4.022   6.859  0.0333  0.0999  0.6246
  463TIP3   OH222947   1.127   4.554   8.227 -0.1336  0.2424 -0.2928
  463TIP3    H122948   1.055   4.591   8.175  0.0679 -0.4887 -1.1307
  463TIP3    H222949   1.196   4.619   8.223 -1.1196  1.4923  1.4953
  464TIP3   OH222950   4.933   6.765   0.722 -0.8245  1.1028  0.4625
  464TIP3    H122951   4.839   6.747   0.718 -0.8964  1.2893  1.0989
  464TIP3    H222952   4.940   6.841   0.781 -0.3157  1.4198  0.0038
  465TIP3   OH222953   5.437   4.711   6.802 -0.3022  0.0646  0.3051
  465TIP3    H122954   5.364   4.753   6.757 -0.0846  1.2667  1.0228
  465TIP3    H222955   5.496   4.783   6.825  0.1218 -0.6321  1.5153
  466TIP3   OH222956   0.379   6.783   1.189 -0.0074  0.0981  0.7162
  466TIP3    H122957   0.410   6.873   1.201 -1.2172  0.6730 -0.2246
  466TIP3    H222958   0.412   6.736   1.265 -0.7364  1.7367  2.1159
  467TIP3   OH222959   3.767   5.031   8.339  0.6046 -0.0264  0.7890
  467TIP3    H122960   3.705   4.958   8.330 -1.9905  2.0661  0.6456
  467TIP3    H222961   3.786   5.036   8.432  0.8547 -0.8678  0.7959
  468TIP3   OH222962   6.105   0.227   8.191 -0.0056  0.2304  0.3569
  468TIP3    H122963   6.053   0.244   8.112  0.7738  1.7561  0.1346
  468TIP3    H222964   6.048   0.254   8.263 -0.4069 -0.3804  0.2761
  469TIP3   OH222965   0.847   1.428   8.460 -0.0759  0.0096  0.0586
  469TIP3    H122966   0.787   1.374   8.409 -0.9937  1.0389  0.0018
  469TIP3    H222967   0.791   1.467   8.528  0.7546  0.1481  0.6778
  470TIP3   OH222968   6.398   0.779   8.613 -0.6157 -0.4475  0.2672
  470TIP3    H122969   6.416   0.833   8.690  1.7955 -2.3595  1.1688
  470TIP3    H222970   6.323   0.726   8.639 -1.4454  0.6917  0.2843
  471TIP3   OH222971   6.054   2.577   7.939  0.2680  0.4793  0.2552
  471TIP3    H122972   5.969   2.609   7.968 -0.0948  0.4286 -0.7523
  471TIP3    H222973   6.113   2.652   7.950 -0.1367  0.8468 -0.0841
  472TIP3   OH222974   3.710   0.816   1.708  0.0772  0.2453  0.7903
  472TIP3    H122975   3.800   0.825   1.741  0.8467 -1.5381 -0.6407
  472TIP3    H222976   3.656   0.822   1.787  1.5762 -0.4262  1.9432
  473TIP3   OH222977   3.992   5.712   0.240  0.1574 -0.3352 -0.0194
  473TIP3    H122978   3.925   5.673   0.296  1.6051 -0.5631  1.6378
  473TIP3    H222979   3.992   5.657   0.161 -3.4430  1.2766 -1.3835
  474TIP3   OH222980   6.386   2.848   8.485 -0.2667 -0.3381  0.3484
  474TIP3    H122981   6.353   2.891   8.564  0.5199  0.6139  0.1695
  474TIP3    H222982   6.426   2.919   8.434 -0.7332 -0.9389 -0.8949
  475TIP3   OH222983   0.058   5.993   7.995  0.3924  0.9480 -0.5150
  475TIP3    H122984   0.005   5.914   7.991  0.1759  1.0867 -0.3786
  475TIP3    H222985   0.009   6.058   7.946 -0.6843  1.7255  1.5123
  476TIP3   OH222986   1.116   3.952   7.548 -0.0106  0.1394  0.1039
  476TIP3    H122987   1.202   3.948   7.590  0.2362  0.4567 -0.3514
  476TIP3    H222988   1.072   4.025   7.591  0.5150  0.9368 -0.6540
  477TIP3   OH222989   1.725   0.739   2.519  0.3248 -0.0117  0.0259
  477TIP3    H122990   1.751   0.742   2.611  0.7003 -0.8260 -0.0500
  477TIP3    H222991   1.736   0.829   2.488 -0.7872  0.4937  1.0308
  478TIP3   OH222992   5.887   2.379   2.194  0.3762  0.4533  0.0958
  478TIP3    H122993   5.960   2.351   2.138 -0.1175 -1.8842  0.4901
  478TIP3    H222994   5.888   2.474   2.189  2.6687  0.4511 -0.8988
  479TIP3   OH222995   6.184   4.421   1.374  0.0257 -0.1553  0.3675
  479TIP3    H122996   6.261   4.458   1.417 -0.1680 -0.6860  1.1979
  479TIP3    H222997   6.151   4.356   1.436  0.7626 -2.2440 -1.3117
  480TIP3   OH222998   5.670   5.260   0.976 -0.2410 -0.1002  0.8484
  480TIP3    H122999   5.644   5.183   1.027 -0.2545 -0.4174  0.3673
  480TIP3    H223000   5.753   5.288   1.015 -0.6010  0.0969  1.5060
  481TIP3   OH223001   0.584   0.872   6.496 -0.1782  0.4343  0.1894
  481TIP3    H123002   0.553   0.785   6.471 -2.6126  0.9754  0.9891
  481TIP3    H223003   0.675   0.859   6.523  0.1952 -1.4307 -1.7625
  482TIP3   OH223004   0.231   0.304   0.919 -0.2057 -0.1129 -0.0599
  482TIP3    H123005   0.307   0.358   0.901 -0.1866 -0.8991 -2.6573
  482TIP3    H223006   0.216   0.315   1.013  2.5559  0.7292  0.3741
  483TIP3   OH223007   3.838   5.598   6.736  0.2728 -0.0734  0.3370
  483TIP3    H123008   3.902   5.563   6.674  0.4880 -0.2180  0.6381
  483TIP3    H223009   3.824   5.689   6.708  1.0924  0.1580  0.6492
  484TIP3   OH223010   0.427   1.749   7.977  0.0276 -0.4908 -0.1125
  484TIP3    H123011   0.438   1.659   7.947  2.7814 -0.2089 -0.1982
  484TIP3    H223012   0.490   1.759   8.048 -0.1544  1.3781 -0.1613
  485TIP3   OH223013   0.340   3.563   8.761  0.0595  0.4241 -0.2463
  485TIP3    H123014   0.421   3.610   8.778  0.4475  0.1621 -1.2820
  485TIP3    H223015   0.289   3.623   8.706  0.6592 -0.4270 -1.7769
  486TIP3   OH223016   1.685   3.552   7.533 -0.4646  0.0561  0.4716
  486TIP3    H123017   1.626   3.481   7.508  0.2250 -0.4905  0.3545
  486TIP3    H223018   1.712   3.590   7.450 -0.3124  0.0193  0.5043
  487TIP3   OH223019   3.347   0.761   8.244  0.6342  0.2690  0.0381
  487TIP3    H123020   3.260   0.777   8.282  0.8317 -0.6835  0.9449
  487TIP3    H223021   3.332   0.762   8.149  0.3798  4.1264 -0.0359
  488TIP3   OH223022   4.254   2.544   7.244 -0.3937  0.0588 -0.2563
  488TIP3    H123023   4.292   2.584   7.322 -0.3229  0.2404 -0.3819
  488TIP3    H223024   4.304   2.582   7.171 -0.2669 -0.3221 -0.3754
  489TIP3   OH223025   2.574   2.681   1.790 -0.1845 -0.3752 -0.0223
  489TIP3    H123026   2.553   2.597   1.749  3.3138 -0.9714 -1.0060
  489TIP3    H223027   2.651   2.662   1.844 -0.2184  1.9291  0.9398
  490TIP3   OH223028   0.571   3.948   8.709 -0.4088 -0.4307 -0.0883
  490TIP3    H123029   0.518   4.013   8.755  0.9186 -0.5365  1.7154
  490TIP3    H223030   0.522   3.929   8.629 -1.9812  1.0471  0.4613
  491TIP3   OH223031   0.595   2.044   7.272 -0.3982 -0.0435 -0.0971
  491TIP3    H123032   0.668   2.027   7.332  0.3762 -0.5405 -1.1424
  491TIP3    H223033   0.609   2.134   7.242 -0.6211  0.1036  0.2305
  492TIP3   OH223034   3.572   2.770   6.741 -0.7055 -0.3019 -0.0021
  492TIP3    H123035   3.485   2.764   6.781 -0.5969  0.6426  0.4070
  492TIP3    H223036   3.580   2.862   6.717  1.5349  0.4713  3.1240
  493TIP3   OH223037   5.196   2.966   7.422 -0.1660 -0.8468  0.3072
  493TIP3    H123038   5.158   3.051   7.444 -0.1609 -0.5551 -0.7379
  493TIP3    H223039   5.128   2.902   7.445 -0.0185 -0.6088  1.4586
  494TIP3   OH223040   3.510   2.855   1.128  0.4423 -0.1097  0.9114
  494TIP3    H123041   3.440   2.890   1.183 -0.2799 -1.1627  0.6873
  494TIP3    H223042   3.523   2.923   1.061 -0.8052 -0.1589  0.5825
  495TIP3   OH223043   6.092   0.976   2.070 -0.0505 -0.1032 -0.2174
  495TIP3    H123044   6.057   1.027   2.143 -1.3124  0.8518 -1.4510
  495TIP3    H223045   6.088   1.035   1.995 -0.7701 -1.7296 -1.5254
  496TIP3   OH223046   3.403   5.798   1.371 -0.0783 -0.4693 -0.6026
  496TIP3    H123047   3.345   5.804   1.447  1.0430  2.7006  0.1983
  496TIP3    H223048   3.471   5.737   1.398 -0.6176 -0.7099  0.2781
  497TIP3   OH223049   0.978   2.061   8.300  0.3251  0.3802 -0.2682
  497TIP3    H123050   0.907   2.003   8.327 -0.0789  0.8587 -0.2750
  497TIP3    H223051   0.945   2.103   8.220  0.3159  1.1472  0.1356
  498TIP3   OH223052   5.068   3.300   8.235 -0.8243 -0.0078 -0.5338
  498TIP3    H123053   5.115   3.230   8.280 -0.7360  0.1293 -0.4121
  498TIP3    H223054   5.034   3.355   8.305 -1.0914 -0.0566 -0.6248
  499TIP3   OH223055   4.068   0.462   8.410  0.5546  0.5203 -0.3533
  499TIP3    H123056   4.009   0.435   8.480 -2.5546  0.6515 -2.7019
  499TIP3    H223057   4.107   0.543   8.443  1.1454 -0.6767  2.1379
  500TIP3   OH223058   6.789   5.956   0.613  0.2819  0.2617 -0.3262
  500TIP3    H123059   6.786   5.980   0.706  0.1097 -1.1105  0.0361
  500TIP3    H223060   6.707   5.909   0.597  0.5968 -0.0633 -1.0267
  501TIP3   OH223061   4.316   4.256   7.377  0.9187  0.2485  0.1282
  501TIP3    H123062   4.401   4.299   7.384  0.3258  1.9692 -1.9451
  501TIP3    H223063   4.330   4.183   7.317  1.5604 -1.5896  2.3590
  502TIP3   OH223064   0.822   2.300   1.845 -0.3374 -0.1045 -0.1807
  502TIP3    H123065   0.762   2.361   1.803  0.2890 -0.0240 -0.9822
  502TIP3    H223066   0.765   2.231   1.879 -0.9216  0.1743 -0.5657
  503TIP3   OH223067   1.732   5.028   2.167  0.5975 -0.3350 -0.5401
  503TIP3    H123068   1.790   5.097   2.200  1.4529 -0.7126 -1.2158
  503TIP3    H223069   1.779   4.990   2.093 -0.0411 -1.3689 -0.4419
  504TIP3   OH223070   4.395   3.180   1.735 -0.1509  0.2731 -0.5047
  504TIP3    H123071   4.316   3.166   1.786  0.8211 -1.7978  0.5580
  504TIP3    H223072   4.364   3.200   1.647 -1.9087 -2.2414 -0.5523
  505TIP3   OH223073   2.218   0.186   2.324  0.5116 -0.3650 -0.1316
  505TIP3    H123074   2.207   0.219   2.235  2.3994 -2.4506 -1.2472
  505TIP3    H223075   2.175   0.101   2.323 -0.6389  0.1524  1.4170
  506TIP3   OH223076   2.930   5.298   1.250 -0.3641 -0.1310 -0.2045
  506TIP3    H123077   2.929   5.281   1.344 -0.4454  0.3480 -0.1195
  506TIP3    H223078   2.860   5.361   1.235  1.0095  1.4649 -0.2519
  507TIP3   OH223079   4.640   2.399   2.059  0.0861  0.8246  0.8489
  507TIP3    H123080   4.605   2.369   2.143  0.0194  0.2572  0.6243
  507TIP3    H223081   4.730   2.424   2.077 -0.0517  1.0942  1.1717
  508TIP3   OH223082   0.329   0.525   0.638 -0.0192  0.4178 -0.0928
  508TIP3    H123083   0.269   0.523   0.712  1.8507 -2.9237  1.5718
  508TIP3    H223084   0.376   0.608   0.648 -1.0461  0.8630  1.3925
  509TIP3   OH223085   3.621   6.525   1.114  0.8662 -0.4767 -0.5492
  509TIP3    H123086   3.587   6.582   1.044  1.3547 -0.7552 -1.0270
  509TIP3    H223087   3.626   6.582   1.191  0.9515  0.0258 -0.9130
  510TIP3   OH223088   2.953   6.135   8.046 -0.4104  0.1319  0.3716
  510TIP3    H123089   2.936   6.104   8.135  0.8826  1.0640  0.9823
  510TIP3    H223090   2.944   6.230   8.052 -0.7774  0.1673 -0.6124
  511TIP3   OH223091   4.676   6.135   0.888  0.3676 -0.0730  0.6936
  511TIP3    H123092   4.685   6.168   0.977  2.3855  0.7187  0.2344
  511TIP3    H223093   4.765   6.113   0.861 -0.0843  0.5118 -1.4257
  512TIP3   OH223094   4.177   3.065   8.448 -0.3010  0.1684 -0.2494
  512TIP3    H123095   4.141   2.983   8.480  0.3035 -0.2936 -0.7185
  512TIP3    H223096   4.139   3.075   8.360 -0.7138  0.6150 -0.0224
  513TIP3   OH223097   3.143   6.732   2.351  0.0594 -0.5993  0.1509
  513TIP3    H123098   3.102   6.648   2.372 -2.8979  0.8290  0.6692
  513TIP3    H223099   3.217   6.738   2.412 -1.1078 -1.8249  1.7947
  514TIP3   OH223100   4.422   5.973   1.591 -0.6649  0.2365 -0.0533
  514TIP3    H123101   4.469   5.900   1.549 -0.2911  0.2589  0.3227
  514TIP3    H223102   4.371   6.012   1.520  0.4561  0.6730 -0.6476
  515TIP3   OH223103   3.836   3.013   7.596 -0.4436  0.3401 -0.1906
  515TIP3    H123104   3.909   2.972   7.549  1.4783  1.5385  1.5607
  515TIP3    H223105   3.760   2.962   7.571  1.2636 -2.0935 -0.7726
  516TIP3   OH223106   5.711   6.669   0.655 -0.2259 -0.0815 -0.2248
  516TIP3    H123107   5.801   6.651   0.626  0.0519  0.8762  0.0099
  516TIP3    H223108   5.694   6.602   0.721 -0.3149 -1.3249 -1.4577
  517TIP3   OH223109   1.043   2.114   0.392  0.0130 -0.4557 -0.5670
  517TIP3    H123110   1.093   2.034   0.379 -0.2023 -0.7915  0.5050
  517TIP3    H223111   0.970   2.087   0.448 -0.6582  0.2768 -1.0746
  518TIP3   OH223112   1.203   2.118   7.911  0.2614  0.1965 -0.3656
  518TIP3    H123113   1.163   2.032   7.898  1.4662  0.0094 -3.9889
  518TIP3    H223114   1.286   2.099   7.955 -1.4696  0.1585  3.2276
  519TIP3   OH223115   6.224   1.491   1.194  0.4210 -0.3851  0.0108
  519TIP3    H123116   6.318   1.505   1.200  0.3056  0.2549  0.3627
  519TIP3    H223117   6.208   1.470   1.102  0.8136  0.2070 -0.1940
  520TIP3   OH223118   6.769   3.403   0.969  0.3391  0.0770 -0.6216
  520TIP3    H123119   6.723   3.403   1.052 -1.8603  2.2435 -1.7179
  520TIP3    H223120   6.730   3.331   0.919  0.3565 -0.0594 -0.4369
  521TIP3   OH223121   3.092   3.457   6.896  0.3494 -0.3528 -0.2554
  521TIP3    H123122   3.131   3.529   6.847  0.4649 -0.8635 -0.9090
  521TIP3    H223123   3.160   3.429   6.957  0.4561 -0.2120 -0.3103
  522TIP3   OH223124   0.825   0.410   0.646 -0.5304 -0.2930  0.1890
  522TIP3    H123125   0.799   0.336   0.701  1.4295  0.2959  2.0587
  522TIP3    H223126   0.757   0.416   0.579 -1.9390 -2.3392  1.3446
  523TIP3   OH223127   2.964   1.326   0.294  0.0005  0.0611 -0.4374
  523TIP3    H123128   3.050   1.319   0.335 -0.3715  0.9089  0.5274
  523TIP3    H223129   2.912   1.256   0.332 -0.4338  1.0314  0.8108
  524TIP3   OH223130   1.551   3.262   0.073 -0.1733 -0.4686 -0.6168
  524TIP3    H123131   1.561   3.310   0.155 -1.5801 -2.1906  0.6640
  524TIP3    H223132   1.474   3.206   0.088 -0.4312 -0.8888 -3.1011
  525TIP3   OH223133   6.764   5.585   2.484 -0.3234  0.0923  0.2488
  525TIP3    H123134   6.721   5.565   2.400 -2.3513 -0.9171  1.4507
  525TIP3    H223135   6.699   5.636   2.533  1.2515  1.6581  0.8457
  526TIP3   OH223136   3.846   1.682   6.970 -0.2464  0.3930 -0.3002
  526TIP3    H123137   3.817   1.771   6.953 -0.0986  0.3748 -0.6558
  526TIP3    H223138   3.909   1.691   7.042 -0.8401  0.4745  0.2181
  527TIP3   OH223139   3.476   1.346   0.020  0.0232  0.7070 -0.6221
  527TIP3    H123140   3.531   1.268   0.027 -1.7250 -0.5764 -0.7803
  527TIP3    H223141   3.387   1.314   0.026 -0.8207  2.5024 -2.3134
  528TIP3   OH223142   4.394   3.425   1.260  0.0355 -0.0920  0.1797
  528TIP3    H123143   4.346   3.377   1.194 -0.4664  0.5219  0.0918
  528TIP3    H223144   4.433   3.358   1.316 -0.2012 -0.5968 -0.2609
  529TIP3   OH223145   1.947   1.012   7.503 -0.1831  0.2077 -0.0346
  529TIP3    H123146   1.965   0.980   7.415 -0.0769 -1.8880  0.7104
  529TIP3    H223147   2.000   0.958   7.560 -1.4482  0.4646  1.4494
  530TIP3   OH223148   1.161   0.655   7.528  0.0545 -0.0600 -0.0258
  530TIP3    H123149   1.083   0.609   7.557  0.0629 -0.1908 -0.2120
  530TIP3    H223150   1.233   0.594   7.544  0.1403  0.1144  0.2815
  531TIP3   OH223151   3.057   0.696   8.723  0.0952 -0.6612  0.6992
  531TIP3    H123152   3.032   0.660   8.808 -0.0280  1.4539  1.6330
  531TIP3    H223153   3.067   0.790   8.740 -1.2178  0.0241 -1.9221
  532TIP3   OH223154   4.707   4.627   7.249 -0.4061  0.0853  0.8872
  532TIP3    H123155   4.762   4.550   7.267  0.6398  0.8812  1.1387
  532TIP3    H223156   4.694   4.668   7.334 -0.5187  0.4916  0.6766
  533TIP3   OH223157   1.611   5.364   2.162  0.3166  0.8191 -0.0527
  533TIP3    H123158   1.671   5.395   2.094 -0.4868  0.4270 -0.9730
  533TIP3    H223159   1.663   5.364   2.242  1.9315 -0.7259 -1.0388
  534TIP3   OH223160   6.568   0.942   0.966  0.4977  0.4203  0.2367
  534TIP3    H123161   6.552   0.919   1.058 -0.2829 -0.4147 -0.0918
  534TIP3    H223162   6.482   0.968   0.934  0.3805 -1.0658 -0.7374
  535TIP3   OH223163   2.574   5.267   7.147 -0.8439 -0.0811  0.1655
  535TIP3    H123164   2.655   5.313   7.125 -0.5204 -0.9149 -0.4294
  535TIP3    H223165   2.516   5.335   7.182 -0.7461  0.9906 -1.6381
  536TIP3   OH223166   4.326   4.478   8.051  0.1514  0.0329  0.1844
  536TIP3    H123167   4.257   4.493   7.987 -0.2495 -0.1245  0.5756
  536TIP3    H223168   4.379   4.407   8.014 -0.2940 -0.3083  0.2046
  537TIP3   OH223169   0.223   3.516   1.922 -0.1958  0.0427  0.5594
  537TIP3    H123170   0.133   3.544   1.939 -0.4345  0.5840 -1.3594
  537TIP3    H223171   0.246   3.463   1.998 -1.6984  0.8882  1.6729
  538TIP3   OH223172   1.176   1.995   0.931  0.2266  0.9659 -0.4052
  538TIP3    H123173   1.088   2.032   0.930  1.0625  3.1215 -0.8014
  538TIP3    H223174   1.188   1.965   1.021 -0.6869  1.2136 -0.1888
  539TIP3   OH223175   5.165   0.361   2.374  0.3337  0.6629 -0.3873
  539TIP3    H123176   5.145   0.415   2.451 -0.1071  2.0574 -1.4466
  539TIP3    H223177   5.245   0.399   2.338 -0.8287  1.6642 -2.0417
  540TIP3   OH223178   6.430   4.951   1.219  0.1511  0.4844 -0.1627
  540TIP3    H123179   6.337   4.958   1.197 -0.1976 -1.5078  0.4618
  540TIP3    H223180   6.472   4.927   1.136  0.0161  0.6667 -0.2869
  541TIP3   OH223181   1.700   2.904   6.736 -0.4395  0.2561  0.3144
  541TIP3    H123182   1.644   2.981   6.735 -2.5643 -1.2099 -1.0178
  541TIP3    H223183   1.668   2.852   6.810  0.5467  0.3336  0.8082
  542TIP3   OH223184   3.308   1.451   1.090  0.4117 -0.1637  0.0236
  542TIP3    H123185   3.286   1.458   1.183  1.1348  1.4077  0.1094
  542TIP3    H223186   3.321   1.542   1.061  0.8813 -0.6647 -1.4403
  543TIP3   OH223187   1.016   6.389   1.309 -0.1762  0.2464  0.4795
  543TIP3    H123188   1.094   6.438   1.282 -0.4295 -0.2496 -1.2945
  543TIP3    H223189   0.945   6.453   1.306  0.1097  0.6809  2.0265
  544TIP3   OH223190   1.032   4.361   7.291 -0.1380  0.5671  0.2319
  544TIP3    H123191   1.086   4.355   7.212 -1.6088 -0.4288 -0.7592
  544TIP3    H223192   0.991   4.274   7.299 -0.3344  0.7713  1.8705
  545TIP3   OH223193   3.400   5.879   2.505 -0.3858  0.1882  0.2839
  545TIP3    H123194   3.494   5.885   2.522 -0.4089 -1.7296  1.4478
  545TIP3    H223195   3.394   5.838   2.419 -0.1218 -0.8228  0.7350
  546TIP3   OH223196   4.324   2.117   1.394  0.0571 -0.5544 -0.3869
  546TIP3    H123197   4.378   2.079   1.463  1.0800  0.2654 -0.7072
  546TIP3    H223198   4.247   2.062   1.390  0.9443 -1.8564 -0.0213
  547TIP3   OH223199   0.623   3.310   0.348  0.0791 -0.2428 -0.3658
  547TIP3    H123200   0.632   3.236   0.408  1.5603  0.3036  0.1200
  547TIP3    H223201   0.629   3.272   0.261  1.1179 -0.6611 -0.1162
  548TIP3   OH223202   4.415   6.504   7.586 -0.1819  0.2662  0.1283
  548TIP3    H123203   4.500   6.465   7.566 -0.1626  0.4491 -0.1482
  548TIP3    H223204   4.395   6.559   7.510 -0.2727  0.6829  0.4450
  549TIP3   OH223205   6.137   2.380   8.126  0.6137 -0.4022  0.1019
  549TIP3    H123206   6.124   2.448   8.059  0.3571  0.3265  0.8642
  549TIP3    H223207   6.050   2.344   8.139  0.3891  0.4380  1.0373
  550TIP3   OH223208   3.161   5.890   8.739 -0.2263 -0.0091 -0.6985
  550TIP3    H123209   3.105   5.830   8.689  0.2847  0.0374 -1.3490
  550TIP3    H223210   3.107   5.969   8.751 -0.0405  0.3649 -2.0542
  551TIP3   OH223211   1.263   2.605   8.518  0.1193  0.5003 -1.0283
  551TIP3    H123212   1.337   2.640   8.566 -0.3158 -0.9607  0.8105
  551TIP3    H223213   1.302   2.555   8.446  0.9068  0.0110 -0.2730
  552TIP3   OH223214   2.806   1.737   1.074  0.2425  0.3377 -0.8683
  552TIP3    H123215   2.811   1.832   1.059 -0.7116  0.7957  1.3257
  552TIP3    H223216   2.746   1.728   1.148  1.3769 -1.9069 -0.1498
  553TIP3   OH223217   4.052   0.887   1.290  0.3170 -0.4278  0.2547
  553TIP3    H123218   4.089   0.825   1.227  1.2127 -0.1809  0.5355
  553TIP3    H223219   4.113   0.961   1.291  0.0325 -0.1920  1.0301
  554TIP3   OH223220   5.996   5.466   2.315  0.2406 -0.3361 -0.3980
  554TIP3    H123221   6.032   5.488   2.229 -0.9618  0.9280 -0.6082
  554TIP3    H223222   5.915   5.420   2.296  0.3356 -0.7117  0.0764
  555TIP3   OH223223   2.805   2.159   2.073  0.6866 -0.0219 -0.1484
  555TIP3    H123224   2.746   2.129   2.004  0.2487 -1.0174  0.6216
  555TIP3    H223225   2.747   2.194   2.140  0.9789 -0.6473  0.4474
  556TIP3   OH223226   4.288   1.761   0.133  0.3412 -0.0059  0.6406
  556TIP3    H123227   4.379   1.789   0.147  0.2885  0.4371  0.1323
  556TIP3    H223228   4.247   1.836   0.090 -0.4078 -0.0001  1.3574
  557TIP3   OH223229   1.033   3.815   8.037  0.0462 -0.3741 -0.0995
  557TIP3    H123230   0.994   3.866   7.966  3.0917 -0.7473 -2.2322
  557TIP3    H223231   1.062   3.881   8.100 -1.5929  0.0506  0.2351
  558TIP3   OH223232   1.158   1.798   2.221 -0.1036  0.2388  0.5812
  558TIP3    H123233   1.090   1.842   2.270  0.3257  2.4262 -0.6414
  558TIP3    H223234   1.238   1.849   2.239  0.1876  0.7644 -1.7717
  559TIP3   OH223235   4.291   3.012   7.598  0.3175 -0.1860  0.4549
  559TIP3    H123236   4.292   3.092   7.651 -1.4077 -0.5685  1.1567
  559TIP3    H223237   4.300   3.042   7.508 -0.7607  0.8586  0.6736
  560TIP3   OH223238   0.973   0.282   7.621 -0.2606 -0.5814 -0.2366
  560TIP3    H123239   0.897   0.336   7.601 -1.1322 -1.8706 -0.5308
  560TIP3    H223240   1.039   0.308   7.556 -0.7842 -0.1262 -0.5899
  561TIP3   OH223241   1.609   4.313   7.796 -0.8200  0.0018 -0.7161
  561TIP3    H123242   1.585   4.390   7.848  1.8537  0.5064 -0.0918
  561TIP3    H223243   1.626   4.245   7.861 -0.2907 -0.2350 -1.0985
  562TIP3   OH223244   2.473   3.486   0.872 -0.2566  0.2841  0.1356
  562TIP3    H123245   2.450   3.476   0.780 -3.7686  0.5053  0.8646
  562TIP3    H223246   2.497   3.579   0.880 -3.6269  1.2969  0.0023
  563TIP3   OH223247   1.988   0.384   8.695  0.0306 -0.4600  0.4943
  563TIP3    H123248   1.988   0.480   8.704  0.0612 -0.3763 -0.2933
  563TIP3    H223249   1.987   0.369   8.601  0.3901 -1.2393  0.6048
  564TIP3   OH223250   3.953   3.406   2.120 -0.5570 -0.0514 -0.2385
  564TIP3    H123251   3.959   3.315   2.092 -2.0377 -0.3146  0.2063
  564TIP3    H223252   3.864   3.415   2.155 -0.1782  1.3612  0.4576
  565TIP3   OH223253   3.762   2.862   8.235  0.4142 -0.5753  0.3455
  565TIP3    H123254   3.845   2.911   8.237  0.6014 -0.6785 -2.3296
  565TIP3    H223255   3.787   2.773   8.262  1.0018 -0.4082  0.3798
  566TIP3   OH223256   1.255   5.922   2.234 -0.6321  0.0223 -0.2113
  566TIP3    H123257   1.223   5.832   2.245 -0.4028 -0.0378 -0.0298
  566TIP3    H223258   1.319   5.915   2.163  0.8905 -0.3403  1.1438
  567TIP3   OH223259   4.127   0.598   0.413 -0.3542  0.1218  0.1377
  567TIP3    H123260   4.079   0.539   0.355  0.7551 -0.5294 -0.1415
  567TIP3    H223261   4.149   0.673   0.359 -0.8350  0.3187  0.2056
  568TIP3   OH223262   2.532   1.695   2.946  0.1126 -0.0062 -0.2428
  568TIP3    H123263   2.500   1.611   2.913 -0.6925  0.4845 -0.7514
  568TIP3    H223264   2.461   1.728   3.002  1.1965 -0.5325  1.5350
  569TIP3   OH223265   5.916   4.416   0.232  0.6145  0.0670  0.7991
  569TIP3    H123266   5.893   4.458   0.315 -0.9506  0.6923  0.0783
  569TIP3    H223267   5.887   4.478   0.165 -0.2801 -1.4452 -0.2611
  570TIP3   OH223268   4.731   3.548   1.350  0.5648 -0.1936 -0.1385
  570TIP3    H123269   4.684   3.491   1.412  1.3026 -1.1989 -0.4728
  570TIP3    H223270   4.663   3.603   1.312 -0.0470 -0.2555  0.8293
  571TIP3   OH223271   2.288   5.238   8.842 -0.0996  0.1031 -0.4932
  571TIP3    H123272   2.347   5.289   8.898 -0.6437  1.5408 -1.1761
  571TIP3    H223273   2.206   5.233   8.892 -0.4333  0.9783 -0.9272
  572TIP3   OH223274   1.782   6.059   0.898  0.2380 -0.3768 -0.6304
  572TIP3    H123275   1.796   5.984   0.956  0.6697 -0.3573 -0.7121
  572TIP3    H223276   1.828   6.131   0.941 -2.5755  0.6108  1.0138
  573TIP3   OH223277   2.197   0.932   8.662  0.2727 -0.2215 -0.5200
  573TIP3    H123278   2.168   0.841   8.671  0.2859 -0.2712 -0.9428
  573TIP3    H223279   2.279   0.936   8.712  0.7278 -0.6671 -1.2063
  574TIP3   OH223280   6.687   6.066   2.547 -0.9465 -0.6011  0.4224
  574TIP3    H123281   6.592   6.050   2.542 -1.0886 -0.2365  1.6366
  574TIP3    H223282   6.695   6.160   2.564 -0.4106 -0.7993  1.3224
  575TIP3   OH223283   4.849   2.927   8.821 -0.0703 -0.2908 -0.3620
  575TIP3    H123284   4.858   2.834   8.799  0.9446 -0.3893  0.4187
  575TIP3    H223285   4.872   2.932   8.913 -2.3399  0.4177  0.2277
  576TIP3   OH223286   4.372   3.176   7.365  0.4680 -0.1272 -0.5213
  576TIP3    H123287   4.380   3.247   7.301 -0.8629  0.2598 -0.2962
  576TIP3    H223288   4.419   3.103   7.326 -0.1569  0.1608 -1.8646
  577TIP3   OH223289   5.570   2.808   8.485  0.2085 -0.4210 -0.6355
  577TIP3    H123290   5.518   2.876   8.442 -0.3060 -0.0859  0.4775
  577TIP3    H223291   5.656   2.848   8.497  0.0041 -0.0768 -0.2825
  578TIP3   OH223292   4.020   0.842   7.281 -0.2073 -0.0553 -0.2067
  578TIP3    H123293   3.953   0.907   7.260 -0.5272 -0.0708  0.6974
  578TIP3    H223294   4.007   0.772   7.218  0.4086  0.9224 -1.4690
  579TIP3   OH223295   2.677   1.713   1.309 -0.2735 -0.2032 -0.0273
  579TIP3    H123296   2.740   1.670   1.368 -0.1778  1.0100  0.7881
  579TIP3    H223297   2.591   1.687   1.342 -0.2197  0.5076  0.7014
  580TIP3   OH223298   5.062   6.460   2.173 -0.0331  0.4121 -0.0530
  580TIP3    H123299   5.003   6.532   2.149 -1.2091 -0.0605  1.2922
  580TIP3    H223300   5.027   6.385   2.126 -0.1464  0.2617  0.2691
  581TIP3   OH223301   0.031   4.055   8.584  0.3214  0.6448 -0.5697
  581TIP3    H123302  -0.056   4.017   8.580 -1.0330  3.2967  0.8002
  581TIP3    H223303   0.043   4.078   8.676  2.7361 -0.1316 -0.6170
  582TIP3   OH223304   2.519   5.510   0.870  0.0296  0.6981  0.0166
  582TIP3    H123305   2.496   5.466   0.951  1.0656  1.0792  0.5407
  582TIP3    H223306   2.441   5.561   0.847  0.0531  1.3674  1.3223
  583TIP3   OH223307   3.877   5.420   8.747  0.0287  0.3815  0.2174
  583TIP3    H123308   3.791   5.460   8.734 -0.2476 -0.6005 -1.1706
  583TIP3    H223309   3.858   5.338   8.792  0.2989  0.4216  0.4052
  584TIP3   OH223310   6.598   3.657   0.960  0.7706  0.4074  0.1875
  584TIP3    H123311   6.569   3.627   0.874  0.6598 -1.1808  0.7273
  584TIP3    H223312   6.678   3.606   0.977  1.1352  1.1530  0.7681
  585TIP3   OH223313   4.079   4.454   7.464  0.2100 -0.4672 -0.3543
  585TIP3    H123314   4.082   4.530   7.405 -0.6659  0.0712  0.2774
  585TIP3    H223315   4.150   4.398   7.433 -1.0019 -0.8211 -2.7696
  586TIP3   OH223316   4.434   1.562   8.275  0.1642  0.1207  0.2136
  586TIP3    H123317   4.500   1.560   8.345  0.4055  0.9181  0.0161
  586TIP3    H223318   4.456   1.640   8.224 -0.7478  0.2252 -0.0312
  587TIP3   OH223319   3.502   3.707   0.865 -0.0206  0.5676  0.2115
  587TIP3    H123320   3.543   3.635   0.912  0.7292  1.2488  0.6443
  587TIP3    H223321   3.409   3.698   0.882 -0.1825 -1.4552 -1.3962
  588TIP3   OH223322   0.760   2.543   7.326  0.7414  0.0944  0.5079
  588TIP3    H123323   0.776   2.630   7.289  0.7328  0.3791  1.1681
  588TIP3    H223324   0.697   2.503   7.267  1.9507 -0.0895 -0.7154
  589TIP3   OH223325   0.081   3.971   7.820 -0.0285 -0.4058 -0.1222
  589TIP3    H123326  -0.012   3.993   7.832 -0.2020 -0.8309 -0.6167
  589TIP3    H223327   0.120   3.984   7.906 -0.5608 -0.2784  0.1078
  590TIP3   OH223328   3.434   4.939   0.212  0.2695  0.0608 -0.4176
  590TIP3    H123329   3.515   4.984   0.234 -0.6806  1.0018  1.3791
  590TIP3    H223330   3.402   4.984   0.133  2.0793 -1.1724 -1.9248
  591TIP3   OH223331   6.173   2.178   0.739 -0.6257 -0.1845 -0.0638
  591TIP3    H123332   6.240   2.245   0.753 -0.1986 -1.0189  2.2825
  591TIP3    H223333   6.137   2.198   0.653  1.3573  1.4073 -0.6029
  592TIP3   OH223334   4.459   3.945   0.331 -0.3785 -0.8593 -0.0616
  592TIP3    H123335   4.410   3.880   0.281 -2.8341  0.0808  0.9519
  592TIP3    H223336   4.430   3.933   0.421 -1.6535  2.1138  0.0692
  593TIP3   OH223337   5.439   0.222   8.052 -0.4304  0.5218 -0.2447
  593TIP3    H123338   5.418   0.209   8.145  1.4204 -0.7878  0.0579
  593TIP3    H223339   5.378   0.165   8.005  0.5194 -1.0820  0.4003
  594TIP3   OH223340   0.168   1.364   2.073  0.1288  0.0503  0.2664
  594TIP3    H123341   0.200   1.278   2.049 -0.0697 -0.1173  0.5954
  594TIP3    H223342   0.078   1.349   2.103  0.6933  0.0978  2.0939
  595TIP3   OH223343   3.381   1.403   2.289  0.5347 -0.0141  0.0849
  595TIP3    H123344   3.373   1.307   2.295  1.6091 -0.0859  0.7355
  595TIP3    H223345   3.388   1.420   2.195  2.0561 -0.7603  0.0296
  596TIP3   OH223346   4.230   1.387   2.587  0.2411 -0.0949  0.4247
  596TIP3    H123347   4.183   1.304   2.594 -1.9789  0.7762 -2.3402
  596TIP3    H223348   4.294   1.372   2.518  0.4894  0.2250  0.5858
  597TIP3   OH223349   1.517   2.742   0.126  0.1675 -0.6254 -0.2204
  597TIP3    H123350   1.468   2.756   0.208  0.9111  0.2478  0.0847
  597TIP3    H223351   1.556   2.655   0.137 -0.3935 -0.8558  0.0079
  598TIP3   OH223352   0.335   0.830   7.674 -0.3713  0.3727  0.0236
  598TIP3    H123353   0.293   0.786   7.748 -1.4908 -1.9584 -1.8464
  598TIP3    H223354   0.307   0.779   7.598  2.9133  0.9657 -1.7419
  599TIP3   OH223355   4.490   3.006   8.315  0.3929  0.1232  0.9282
  599TIP3    H123356   4.489   3.082   8.256 -1.4579 -0.6115 -0.0535
  599TIP3    H223357   4.493   3.044   8.403 -2.2739  1.4333  0.5305
  600TIP3   OH223358   5.688   1.065   0.508  0.7332  0.0092  0.4641
  600TIP3    H123359   5.652   0.977   0.516  0.5444 -0.0723 -0.9764
  600TIP3    H223360   5.638   1.104   0.436  0.8067  1.2996  1.0911
  601TIP3   OH223361   3.120   5.227   7.103  0.2621  0.2774  0.3658
  601TIP3    H123362   3.120   5.167   7.029  0.1091 -0.3119  0.8337
  601TIP3    H223363   3.209   5.262   7.106  0.4355 -0.1558  0.2682
  602TIP3   OH223364   0.711   4.230   7.159  0.0913  0.1546  0.5836
  602TIP3    H123365   0.646   4.162   7.140  0.6455  0.3730 -2.7756
  602TIP3    H223366   0.781   4.184   7.205 -0.7863 -0.9114  0.9024
  603TIP3   OH223367   6.207   2.013   0.948 -0.0983 -0.5021 -0.2625
  603TIP3    H123368   6.164   2.046   0.869 -1.9331 -0.5266  0.6889
  603TIP3    H223369   6.262   2.085   0.978 -1.9533  0.7292  0.2738
  604TIP3   OH223370   1.176   1.536   7.619 -0.2294 -0.2587 -0.1108
  604TIP3    H123371   1.088   1.515   7.589 -1.2032  1.5577  1.2777
  604TIP3    H223372   1.167   1.622   7.660  2.1024 -0.2580  0.5214
  605TIP3   OH223373   3.755   0.802   7.673 -0.1873 -0.3137  0.2571
  605TIP3    H123374   3.720   0.873   7.618  2.3395 -0.0165 -1.1229
  605TIP3    H223375   3.715   0.723   7.637  0.6029 -0.0120 -1.4098
  606TIP3   OH223376   4.592   6.344   0.182 -0.1829  0.2368 -0.2855
  606TIP3    H123377   4.672   6.391   0.204  0.5920 -0.9190 -0.5094
  606TIP3    H223378   4.527   6.376   0.244  0.3602  1.4204 -0.2997
  607TIP3   OH223379   2.866   1.124   0.569 -0.0390  0.0710 -0.3218
  607TIP3    H123380   2.930   1.070   0.523 -1.8563 -0.3970 -2.4558
  607TIP3    H223381   2.820   1.063   0.627  0.4851  0.1199  0.1474
  608TIP3   OH223382   1.192   0.998   0.345 -0.1678 -0.1402 -0.0250
  608TIP3    H123383   1.242   0.921   0.319  1.3334  0.7573  0.1131
  608TIP3    H223384   1.174   0.985   0.438  0.9259  0.1197  0.2293
  609TIP3   OH223385   4.575   3.746   1.248  0.5651  0.4476  0.0835
  609TIP3    H123386   4.627   3.824   1.266 -0.1574  0.8035  0.6794
  609TIP3    H223387   4.505   3.775   1.190  1.3111 -0.1442 -1.1599
  610TIP3   OH223388   1.478   0.838   1.247 -0.0098 -0.4963  0.3901
  610TIP3    H123389   1.506   0.847   1.155 -1.0157 -2.8827 -0.2258
  610TIP3    H223390   1.449   0.926   1.271 -1.3474 -0.1209 -2.1688
  611TIP3   OH223391   4.595   5.242   2.196 -0.1261 -0.0389  0.3087
  611TIP3    H123392   4.535   5.275   2.263  0.1194  1.5874 -0.2168
  611TIP3    H223393   4.681   5.273   2.225  0.1775 -0.5760 -0.0179
  612TIP3   OH223394   1.285   2.975   7.916 -0.6958  0.1633  0.5925
  612TIP3    H123395   1.225   2.924   7.970 -0.8048 -0.9577 -0.5421
  612TIP3    H223396   1.235   3.052   7.890 -1.8433 -0.9360 -0.6500
  613TIP3   OH223397   1.995   6.402   8.689  0.1750  0.1990  0.2839
  613TIP3    H123398   2.062   6.462   8.658  0.1363  0.3846  0.5552
  613TIP3    H223399   1.949   6.373   8.610  0.1528  0.5768  0.1595
  614TIP3   OH223400   3.097   4.530   8.301  0.2449 -0.2356  0.5591
  614TIP3    H123401   3.068   4.446   8.336  0.6880 -0.2850  0.8215
  614TIP3    H223402   3.181   4.510   8.258 -1.1443 -0.5498 -2.2023
  615TIP3   OH223403   6.771   4.312   0.345  0.3162 -0.1250  0.1137
  615TIP3    H123404   6.781   4.343   0.255  2.3248 -0.7943  0.0466
  615TIP3    H223405   6.787   4.389   0.399 -1.8446  0.5093 -0.0415
  616TIP3   OH223406   4.282   5.074   8.665  1.0379  0.3929 -0.2544
  616TIP3    H123407   4.205   5.131   8.667  1.0095  0.3549 -0.2878
  616TIP3    H223408   4.324   5.093   8.581  0.3942 -0.4833 -0.7964
  617TIP3   OH223409   0.940   0.495   2.072  0.4195 -1.1034 -0.5224
  617TIP3    H123410   0.888   0.489   2.152  0.2512 -0.1869 -0.5469
  617TIP3    H223411   1.030   0.478   2.101  0.1633 -2.3594 -0.4255
  618TIP3   OH223412   1.708   3.413   8.488  0.0673 -0.0465  0.0454
  618TIP3    H123413   1.754   3.331   8.470 -1.3385 -1.2916  1.7090
  618TIP3    H223414   1.759   3.455   8.558 -0.2462 -0.4762  0.5405
  619TIP3   OH223415   6.141   4.614   0.502  0.4756  0.1497 -0.3931
  619TIP3    H123416   6.053   4.609   0.539 -0.1072 -2.2878 -1.8892
  619TIP3    H223417   6.194   4.651   0.573 -1.5374  0.7216  0.9077
  620TIP3   OH223418   1.782   4.537   1.612  0.5264 -0.5589  0.0202
  620TIP3    H123419   1.747   4.581   1.535 -1.3852 -1.0508  0.5596
  620TIP3    H223420   1.816   4.454   1.579 -0.1923 -0.7275 -0.3029
  621TIP3   OH223421   0.125   3.975   7.515 -0.4582 -0.5120 -0.3682
  621TIP3    H123422   0.140   4.060   7.475  1.0635 -1.1689 -1.2877
  621TIP3    H223423   0.124   3.992   7.609  0.1641  0.4807 -0.5283
  622TIP3   OH223424   1.291   5.819   8.059 -0.0675  0.1073  0.5892
  622TIP3    H123425   1.306   5.903   8.103  0.6633  0.8021 -0.8929
  622TIP3    H223426   1.234   5.841   7.985 -1.1705 -1.0019  1.0903
  623TIP3   OH223427   1.689   5.508   7.916  0.1759 -0.4353  0.4310
  623TIP3    H123428   1.598   5.533   7.935  0.6377  1.3559  0.4724
  623TIP3    H223429   1.705   5.539   7.827  0.6131 -1.1862  0.2361
  624TIP3   OH223430   0.657   6.662   1.637 -0.0931 -0.1195  0.8200
  624TIP3    H123431   0.581   6.615   1.672 -3.1466  1.6665 -2.6663
  624TIP3    H223432   0.659   6.744   1.685 -1.2536  0.3307  0.1546
  625TIP3   OH223433   2.128   2.702   8.270 -0.8212 -0.0419 -0.0223
  625TIP3    H123434   2.196   2.749   8.221 -1.5482  0.7791 -0.2862
  625TIP3    H223435   2.129   2.742   8.357  0.5566 -1.5894  0.7197
  626TIP3   OH223436   5.543   5.583   6.456  0.0139  0.2857  0.1360
  626TIP3    H123437   5.480   5.653   6.439  0.9126  1.7805  2.4875
  626TIP3    H223438   5.504   5.531   6.526  0.4119 -0.1125  0.0721
  627TIP3   OH223439   2.997   5.050   2.819  1.0869  0.2322  0.0463
  627TIP3    H123440   3.057   5.111   2.860 -1.0943  1.4080  1.7440
  627TIP3    H223441   3.013   4.967   2.864  0.9848  0.7086  0.9836
  628TIP3   OH223442   1.933   0.927   0.041 -0.1134  0.0658  0.3221
  628TIP3    H123443   2.006   0.972   0.083 -1.3146  0.4021  2.1826
  628TIP3    H223444   1.894   0.874   0.111 -1.0274 -0.9286 -0.8847
  629TIP3   OH223445   6.282   5.849   1.118  0.3055  0.4521 -0.2994
  629TIP3    H123446   6.342   5.907   1.164 -0.2602  0.7203  0.1104
  629TIP3    H223447   6.335   5.811   1.047  0.3880  2.3854 -1.3362
  630TIP3   OH223448   1.230   2.923   2.497  0.3226  0.0237  0.3835
  630TIP3    H123449   1.230   3.017   2.513 -1.5311  0.6576 -2.5650
  630TIP3    H223450   1.227   2.884   2.584 -1.4030  2.7507  1.6819
  631TIP3   OH223451   2.012   5.295   0.427 -0.2861 -0.0345  0.1858
  631TIP3    H123452   1.994   5.387   0.408  0.3695  0.0446 -0.0490
  631TIP3    H223453   1.949   5.272   0.495 -1.4314  0.1853 -0.7591
  632TIP3   OH223454   4.253   2.730   1.779  0.2743  0.0148 -0.2158
  632TIP3    H123455   4.248   2.796   1.710 -0.5026 -0.8783 -1.0240
  632TIP3    H223456   4.212   2.772   1.855 -1.8788 -0.1561 -1.2277
  633TIP3   OH223457   3.361   2.926   1.326  0.0214 -0.7357 -0.4205
  633TIP3    H123458   3.317   2.848   1.359 -0.5009 -0.9507 -1.5542
  633TIP3    H223459   3.427   2.947   1.392  1.0625 -2.9032 -0.7041
  634TIP3   OH223460   3.175   5.028   1.449  0.2830 -0.0362  0.0803
  634TIP3    H123461   3.116   5.024   1.374 -0.2486  2.6754  0.2349
  634TIP3    H223462   3.146   4.958   1.507 -1.7457  0.2056 -0.5875
  635TIP3   OH223463   0.399   4.619   8.458 -0.6905 -0.2946 -0.3974
  635TIP3    H123464   0.402   4.625   8.554 -0.3290  0.5643 -0.4532
  635TIP3    H223465   0.310   4.646   8.435 -0.7633 -0.4579 -0.3170
  636TIP3   OH223466   2.402   3.799   0.219 -0.2610  0.1696 -0.0495
  636TIP3    H123467   2.370   3.790   0.309 -1.4957  4.0574  0.1066
  636TIP3    H223468   2.458   3.723   0.206 -2.3905 -2.1647  2.9135
  637TIP3   OH223469   5.981   2.823   1.291  0.4969 -0.8081  0.4217
  637TIP3    H123470   6.011   2.769   1.217 -0.7029 -0.4906 -0.3269
  637TIP3    H223471   5.961   2.760   1.360  1.4274 -1.1236  0.4240
  638TIP3   OH223472   3.583   4.539   1.476 -0.6391  0.0323  0.0734
  638TIP3    H123473   3.579   4.472   1.544  1.2759  0.7007  0.9096
  638TIP3    H223474   3.543   4.616   1.516  0.7579  0.5133  0.5975
  639TIP3   OH223475   1.180   0.600   7.849 -0.0744 -0.4612 -0.0104
  639TIP3    H123476   1.109   0.536   7.847 -0.5677  0.0353  1.0700
  639TIP3    H223477   1.239   0.572   7.779  0.6525 -3.1443  1.5339
  640TIP3   OH223478   4.480   5.048   7.993 -0.4134  0.5315  0.4431
  640TIP3    H123479   4.414   5.000   7.942  1.0785  0.1591 -1.2299
  640TIP3    H223480   4.521   5.107   7.930 -0.7983  2.5817  2.0202
  641TIP3   OH223481   5.696   1.740   0.123 -0.5455  0.2750 -0.6855
  641TIP3    H123482   5.765   1.679   0.147 -0.1918  0.6045 -0.8628
  641TIP3    H223483   5.621   1.713   0.176  0.5306  1.6957  1.6905
  642TIP3   OH223484   6.265   3.580   0.176 -0.2037 -0.6222  0.0572
  642TIP3    H123485   6.249   3.513   0.242 -0.2614  0.2313  0.9266
  642TIP3    H223486   6.225   3.660   0.212  1.0554  0.2109 -0.3245
  643TIP3   OH223487   6.097   1.370   8.259 -0.8561 -0.0450  0.4425
  643TIP3    H123488   6.166   1.303   8.263 -1.0079 -0.4120 -1.7559
  643TIP3    H223489   6.091   1.404   8.349  1.2339 -0.9395  0.9809
  644TIP3   OH223490   6.510   4.056   2.039  0.6819  0.5818 -0.1733
  644TIP3    H123491   6.549   4.125   1.985  0.4015  0.3848 -0.6384
  644TIP3    H223492   6.578   3.989   2.046  0.3365  0.1044 -1.2327
  645TIP3   OH223493   0.369   4.628   0.537 -0.9924  0.3254  0.4712
  645TIP3    H123494   0.410   4.577   0.468  2.4417  1.8898  1.0971
  645TIP3    H223495   0.416   4.602   0.617 -1.9164  1.5377  1.4517
  646TIP3   OH223496   3.342   5.913   1.139 -0.2378 -0.0858  0.0680
  646TIP3    H123497   3.335   5.887   1.231  0.1580 -1.6682 -0.3353
  646TIP3    H223498   3.341   5.831   1.090 -2.5453  0.7830 -1.5123
  647TIP3   OH223499   1.838   2.715   0.403 -0.1435  0.0626  0.6369
  647TIP3    H123500   1.824   2.782   0.335  2.2070 -0.9932 -1.0313
  647TIP3    H223501   1.794   2.637   0.369  2.4837 -0.9748 -0.6999
  648TIP3   OH223502   5.678   4.758   0.644  0.2727  0.0294 -0.6664
  648TIP3    H123503   5.668   4.813   0.722 -0.1893  0.9406 -1.3460
  648TIP3    H223504   5.644   4.812   0.573 -0.1476 -1.1345 -1.3677
  649TIP3   OH223505   0.424   2.044   1.866  0.1326 -0.3159  0.2213
  649TIP3    H123506   0.350   2.055   1.925  0.1259 -0.1468  0.1828
  649TIP3    H223507   0.385   2.020   1.782 -0.1193  2.6818 -0.6127
  650TIP3   OH223508   1.563   2.811   1.644 -0.3713 -0.3738  0.3110
  650TIP3    H123509   1.599   2.761   1.570 -0.0070  0.0885  0.1744
  650TIP3    H223510   1.586   2.902   1.626  0.2879 -0.3207  1.3082
  651TIP3   OH223511   2.692   6.674   1.424  0.1373 -0.1450  0.1406
  651TIP3    H123512   2.694   6.579   1.432  0.7599 -0.2916 -1.4748
  651TIP3    H223513   2.729   6.706   1.506 -0.8833 -1.2485  1.0767
  652TIP3   OH223514   0.264   0.734   0.251  0.3927  0.4426 -0.0338
  652TIP3    H123515   0.224   0.717   0.336  1.9304  1.9279  1.0732
  652TIP3    H223516   0.196   0.778   0.201 -0.4266 -0.1150  0.5656
  653TIP3   OH223517   5.428   1.777   2.576 -0.0138  0.2873 -0.2679
  653TIP3    H123518   5.497   1.758   2.512 -0.9574 -0.6323 -1.0392
  653TIP3    H223519   5.424   1.873   2.578  2.3410  0.4249  0.9800
  654TIP3   OH223520   0.452   0.310   7.339  0.2129  0.8070  0.3397
  654TIP3    H123521   0.532   0.352   7.308  0.7390  0.6091  1.3894
  654TIP3    H223522   0.382   0.372   7.317  0.6344  0.9454 -0.6450
  655TIP3   OH223523   0.792   2.801   7.183  0.7425  0.2738 -0.2028
  655TIP3    H123524   0.885   2.808   7.161  1.0013  0.9741  1.0066
  655TIP3    H223525   0.746   2.832   7.105  1.5798  1.4696 -0.2474
  656TIP3   OH223526   6.803   5.690   8.175 -0.2650  0.2990  0.2481
  656TIP3    H123527   6.778   5.616   8.231  0.9563  0.1853  0.6855
  656TIP3    H223528   6.747   5.762   8.204 -2.2436 -0.7002 -0.9178
  657TIP3   OH223529   3.159   5.200   2.095  0.0523  0.3167 -0.4326
  657TIP3    H123530   3.160   5.260   2.021 -1.1651  2.7079  1.3406
  657TIP3    H223531   3.098   5.240   2.158  1.1765 -1.4512  1.9604
  658TIP3   OH223532   1.135   3.385   7.600 -0.0618  0.3156  0.1140
  658TIP3    H123533   1.084   3.456   7.638 -1.5792 -0.0398 -1.1161
  658TIP3    H223534   1.150   3.412   7.509  0.5093 -0.3258  0.0082
  659TIP3   OH223535   2.767   0.638   8.093  0.3188 -0.2223 -0.4469
  659TIP3    H123536   2.790   0.728   8.070  1.4882 -0.2909  0.3764
  659TIP3    H223537   2.799   0.628   8.183  0.2686 -1.4949 -0.5608
  660TIP3   OH223538   2.739   2.702   1.204 -0.2121  0.4458  0.2675
  660TIP3    H123539   2.752   2.794   1.226 -0.6024  0.6142 -0.1985
  660TIP3    H223540   2.695   2.665   1.281  2.3103  0.0056  1.6164
  661TIP3   OH223541   5.651   3.184   8.713  0.6082  0.3253  0.7915
  661TIP3    H123542   5.732   3.146   8.745  0.4021 -0.2134  0.6784
  661TIP3    H223543   5.655   3.174   8.618 -0.6986 -2.0039  0.9226
  662TIP3   OH223544   3.241   6.528   8.550 -0.3557 -0.0080  0.0110
  662TIP3    H123545   3.173   6.554   8.488  1.2115  0.8287 -1.4435
  662TIP3    H223546   3.275   6.611   8.584 -1.1932 -0.4518  2.0576
  663TIP3   OH223547   3.651   1.876   6.928  0.0420 -0.2144  0.0135
  663TIP3    H123548   3.573   1.860   6.875  0.8605 -0.0326 -1.3058
  663TIP3    H223549   3.618   1.910   7.011 -1.2236  1.2093 -1.0346
  664TIP3   OH223550   0.621   4.277   0.111 -0.0289  0.4950  0.0790
  664TIP3    H123551   0.594   4.321   0.191 -0.4364  0.2063  0.0995
  664TIP3    H223552   0.563   4.312   0.043 -1.2519 -0.9606  0.3226
  665TIP3   OH223553   1.372   1.848   1.864 -0.1225  0.2882  0.0112
  665TIP3    H123554   1.296   1.902   1.884  1.0544  2.0554 -0.0885
  665TIP3    H223555   1.447   1.907   1.873  1.4051 -1.7280  1.5878
  666TIP3   OH223556   1.689   1.187   7.974  0.0006  0.1260 -0.0728
  666TIP3    H123557   1.625   1.119   7.995  0.2151  0.3385  1.3657
  666TIP3    H223558   1.685   1.195   7.879 -2.5599  0.5933  0.0175
  667TIP3   OH223559   0.983   2.247   8.507  0.3185  0.7591 -0.0359
  667TIP3    H123560   1.007   2.336   8.480  0.2488  0.4827 -1.0212
  667TIP3    H223561   1.004   2.192   8.432  0.0054 -0.0094  0.4275
  668TIP3   OH223562   0.111   4.642   1.783  0.0914  0.4028  0.0428
  668TIP3    H123563   0.133   4.614   1.872  1.6361  1.5565  0.0690
  668TIP3    H223564   0.066   4.567   1.745  1.9471 -1.2296  0.8587
  669TIP3   OH223565   0.227   0.120   0.706 -0.5815  0.1275  0.0458
  669TIP3    H123566   0.209   0.162   0.622  0.4985  1.1777  0.3127
  669TIP3    H223567   0.228   0.192   0.769  1.0559 -0.3078  0.5585
  670TIP3   OH223568   2.873   3.517   8.170 -0.5070  0.2589 -0.0947
  670TIP3    H123569   2.878   3.573   8.092  0.0633  0.0217 -0.2346
  670TIP3    H223570   2.794   3.547   8.216 -0.2993  1.0691 -0.2490
  671TIP3   OH223571   2.132   3.274   1.751 -0.3689  0.1675  0.2378
  671TIP3    H123572   2.145   3.251   1.843 -1.2327  2.2663  0.9558
  671TIP3    H223573   2.207   3.330   1.730 -1.3541  1.5955  0.4092
  672TIP3   OH223574   1.251   0.480   8.395 -0.5762  0.6440  0.2521
  672TIP3    H123575   1.305   0.559   8.393  0.3658  0.0258  0.8226
  672TIP3    H223576   1.175   0.505   8.447  0.3018  0.8278  1.4889
  673TIP3   OH223577   6.099   1.343   2.857  0.3047 -1.0090  0.3159
  673TIP3    H123578   6.084   1.402   2.783 -0.3340 -0.9135  0.5142
  673TIP3    H223579   6.039   1.270   2.842  0.9844 -1.5391  0.1548
  674TIP3   OH223580   3.104   2.508   1.660  0.0588 -0.0289  0.4263
  674TIP3    H123581   3.066   2.466   1.737 -0.3400  1.0421  0.8338
  674TIP3    H223582   3.100   2.601   1.679 -0.5885  0.3005 -1.1363
  675TIP3   OH223583   2.381   6.333   0.332  0.1830 -0.3471 -0.4136
  675TIP3    H123584   2.457   6.388   0.312 -0.7391  1.8441  1.6886
  675TIP3    H223585   2.305   6.388   0.310 -0.7981 -1.3853  0.2752
  676TIP3   OH223586   5.307   0.272   0.114  0.1256 -0.1956  0.2808
  676TIP3    H123587   5.315   0.216   0.191 -2.6989 -0.3316  0.5877
  676TIP3    H223588   5.272   0.214   0.046 -0.3738  0.6174 -0.1755
  677TIP3   OH223589   1.492   1.712   7.555 -0.2134  0.4938 -0.0754
  677TIP3    H123590   1.478   1.695   7.462  0.9272  0.8715 -0.3226
  677TIP3    H223591   1.423   1.661   7.599 -1.8122  1.6019 -1.1782
  678TIP3   OH223592   6.241   3.360   0.328 -0.7788  0.5098 -0.2530
  678TIP3    H123593   6.224   3.265   0.326  0.3052  0.3151 -1.7758
  678TIP3    H223594   6.335   3.367   0.343 -0.7108  1.3124 -0.9979
  679TIP3   OH223595   3.185   0.856   1.971 -0.3254 -0.8546 -0.6159
  679TIP3    H123596   3.222   0.821   2.053  0.2084  0.0616 -0.4516
  679TIP3    H223597   3.213   0.948   1.970 -2.5684 -0.1130 -0.4960
  680TIP3   OH223598   6.313   5.054   8.248  0.3812 -0.3407 -0.6792
  680TIP3    H123599   6.393   5.107   8.248 -0.5095  1.1080  0.7652
  680TIP3    H223600   6.251   5.103   8.194 -0.8953  0.9399  1.7826
  681TIP3   OH223601   2.413   4.160   0.491 -0.4028 -0.1460  0.2255
  681TIP3    H123602   2.391   4.226   0.425 -1.1300 -1.0218 -0.4416
  681TIP3    H223603   2.471   4.099   0.445 -0.1583 -0.2551  0.6737
  682TIP3   OH223604   2.444   4.605   0.177  0.5066  0.1033  0.0798
  682TIP3    H123605   2.410   4.515   0.173 -1.7987  0.9153  0.0567
  682TIP3    H223606   2.367   4.659   0.194  1.6887  2.1853 -0.7896
  683TIP3   OH223607   0.507   2.418   1.982  0.0710  0.0715 -0.1393
  683TIP3    H123608   0.470   2.439   1.897  1.2925  0.9474 -0.4834
  683TIP3    H223609   0.542   2.329   1.972 -0.3672 -0.0828 -0.3313
  684TIP3   OH223610   0.559   2.754   0.593 -0.0020 -0.2118  0.2229
  684TIP3    H123611   0.517   2.818   0.651  0.3304 -0.0749  0.3110
  684TIP3    H223612   0.552   2.671   0.641  0.6403 -0.0270  0.6476
  685TIP3   OH223613   3.206   1.754   2.376  0.2083  0.5520 -0.1649
  685TIP3    H123614   3.158   1.833   2.403 -1.7135 -0.3588 -0.7771
  685TIP3    H223615   3.291   1.762   2.420 -0.1783  2.6294  0.3171
  686TIP3   OH223616   2.612   5.387   1.385  0.1801  0.8604  0.0340
  686TIP3    H123617   2.658   5.470   1.389 -1.1327  1.6051  0.4276
  686TIP3    H223618   2.583   5.371   1.475  2.1868 -1.1080  0.4227
  687TIP3   OH223619   5.721   5.048   2.748 -0.0001 -0.1471 -0.1062
  687TIP3    H123620   5.744   5.088   2.664  0.4708 -0.8217 -0.3050
  687TIP3    H223621   5.696   5.122   2.804  0.0435  0.3411 -0.7260
  688TIP3   OH223622   0.245   2.167   2.056  0.1626  0.2429  0.1048
  688TIP3    H123623   0.268   2.201   2.142  2.4012 -0.7171 -0.0438
  688TIP3    H223624   0.164   2.117   2.070 -0.1093  1.0236  1.4084
  689TIP3   OH223625   0.652   1.263   7.728  0.0950  0.9207 -0.2747
  689TIP3    H123626   0.631   1.207   7.653 -0.9406  1.7720 -0.6508
  689TIP3    H223627   0.595   1.339   7.718  0.0893  1.1620  1.2667
  690TIP3   OH223628   5.807   0.373   2.543  0.5994 -0.3414 -0.0029
  690TIP3    H123629   5.721   0.353   2.581  0.3711 -0.6431 -0.6507
  690TIP3    H223630   5.802   0.466   2.521  1.6880  0.5668  3.0882
  691TIP3   OH223631   1.048   4.353   2.423 -0.0221 -0.1937 -0.6930
  691TIP3    H123632   1.049   4.272   2.373  0.8405 -1.1299  0.7343
  691TIP3    H223633   0.956   4.368   2.444 -0.0509 -2.1115  0.9288
  692TIP3   OH223634   2.946   3.324   2.402 -0.5792 -0.5680  0.3308
  692TIP3    H123635   2.963   3.258   2.469  0.0477 -1.3466 -0.5592
  692TIP3    H223636   3.021   3.318   2.343 -0.8089  0.5377 -0.0898
  693TIP3   OH223637   2.350   6.350   2.181 -0.0403 -0.1832  0.6548
  693TIP3    H123638   2.358   6.260   2.212  2.2121  0.0504  0.9256
  693TIP3    H223639   2.433   6.367   2.136 -0.8197  1.4458 -0.2557
  694TIP3   OH223640   3.744   4.052   8.698 -0.1135 -0.2957 -0.1241
  694TIP3    H123641   3.681   4.124   8.708  0.0312 -0.2395  0.4070
  694TIP3    H223642   3.706   3.997   8.630 -1.8345 -1.3812  1.5893
  695TIP3   OH223643   4.386   1.141   7.820 -0.1877  0.7039 -0.5325
  695TIP3    H123644   4.448   1.177   7.757 -0.9707  2.3731 -0.4116
  695TIP3    H223645   4.436   1.133   7.901  0.6237 -0.7370 -1.1523
  696TIP3   OH223646   2.669   4.971   1.308 -0.2400  0.3671  0.3768
  696TIP3    H123647   2.597   5.032   1.323 -0.9632  0.2275 -2.1285
  696TIP3    H223648   2.633   4.885   1.328 -0.8176  0.2976 -0.8729
  697TIP3   OH223649   4.896   3.483   8.354 -0.1014 -1.1966  0.3413
  697TIP3    H123650   4.905   3.503   8.447 -2.1340  0.9966  0.1442
  697TIP3    H223651   4.812   3.438   8.347 -0.9613  0.4703 -0.6253
  698TIP3   OH223652   4.724   2.223   7.952  0.0677 -0.5188 -0.2650
  698TIP3    H123653   4.808   2.228   7.997  1.1696 -0.5746 -2.2071
  698TIP3    H223654   4.711   2.310   7.914 -0.7841 -0.4942  0.0603
  699TIP3   OH223655   1.360   3.411   8.131  0.2523 -0.6889  0.0205
  699TIP3    H123656   1.384   3.446   8.045  1.5823 -0.1643  0.5895
  699TIP3    H223657   1.378   3.482   8.192  0.6834 -1.5319  0.8973
  700TIP3   OH223658   4.911   5.563   7.853  0.2471 -0.3528  0.0521
  700TIP3    H123659   4.890   5.472   7.834  1.7992 -0.5360 -0.9887
  700TIP3    H223660   4.998   5.560   7.892  0.3929  0.6898 -0.1704
  701TIP3   OH223661   0.353   3.423   0.365 -0.0796 -0.1184 -0.6854
  701TIP3    H123662   0.378   3.515   0.364  0.1098 -0.1488  0.2145
  701TIP3    H223663   0.434   3.376   0.345  0.2784 -0.1561  0.7617
  702TIP3   OH223664   3.865   5.707   0.879  0.3907 -0.0927 -0.6214
  702TIP3    H123665   3.812   5.627   0.885  0.9916 -0.4824 -0.4512
  702TIP3    H223666   3.848   5.753   0.961  1.1884 -0.7718 -0.0598
  703TIP3   OH223667   6.209   0.508   1.772  0.3645 -0.3488 -0.6400
  703TIP3    H123668   6.157   0.587   1.759  0.2499 -0.3247 -0.0575
  703TIP3    H223669   6.300   0.537   1.769  0.3681 -0.4050 -1.7614
  704TIP3   OH223670   3.878   3.471   0.257 -0.3151  0.0991  0.1722
  704TIP3    H123671   3.960   3.513   0.230 -1.6739  1.7783 -1.6417
  704TIP3    H223672   3.886   3.380   0.227  0.9702  0.1565  0.2827
  705TIP3   OH223673   2.355   3.720   0.490 -0.6322  0.4095  0.2751
  705TIP3    H123674   2.331   3.636   0.530  0.3013 -0.7137 -1.4215
  705TIP3    H223675   2.287   3.781   0.521 -1.7297 -1.0962  1.0024
  706TIP3   OH223676   2.869   4.814   7.446  0.0443 -0.2203 -0.2582
  706TIP3    H123677   2.786   4.773   7.420  0.1227 -1.0779  0.7846
  706TIP3    H223678   2.863   4.822   7.541  1.1546 -0.2919 -0.1704
  707TIP3   OH223679   0.375   5.746   8.422  0.2193 -0.1342  0.1558
  707TIP3    H123680   0.308   5.798   8.377  1.7996 -0.6959 -3.2252
  707TIP3    H223681   0.379   5.664   8.372  1.8464 -1.0477  1.6627
  708TIP3   OH223682   2.997   2.539   8.202 -0.2953  0.6078 -0.0678
  708TIP3    H123683   2.904   2.547   8.226  0.1205  1.2885  1.4798
  708TIP3    H223684   3.028   2.463   8.252 -0.0518  0.2749 -0.7172
  709TIP3   OH223685   0.019   1.042   8.530 -0.4242  0.2089  0.4696
  709TIP3    H123686   0.106   1.024   8.566  0.5098 -0.1466 -1.8530
  709TIP3    H223687  -0.040   0.985   8.580  0.7970 -0.2586  1.4271
  710TIP3   OH223688   4.801   3.058   8.415 -0.0414 -0.2812  0.9385
  710TIP3    H123689   4.815   3.055   8.320  0.9435  1.0910  1.0064
  710TIP3    H223690   4.844   2.979   8.447  0.1464 -0.4510  0.2985
  711TIP3   OH223691   3.093   2.769   2.928 -0.0722  0.0176 -0.2258
  711TIP3    H123692   3.097   2.692   2.872 -1.4548  0.1953 -0.5994
  711TIP3    H223693   3.172   2.764   2.981 -1.5672 -3.3658  1.9966
  712TIP3   OH223694   3.633   6.707   2.122 -0.8657  0.0504  0.0207
  712TIP3    H123695   3.552   6.662   2.146 -1.0018  0.4263  0.2700
  712TIP3    H223696   3.703   6.645   2.144 -1.0588 -0.0806  0.2645
  713TIP3   OH223697   1.344   1.981   2.285 -0.2718 -0.2658  0.3812
  713TIP3    H123698   1.414   2.021   2.234  1.7971 -1.2968  2.2206
  713TIP3    H223699   1.305   2.054   2.333  1.5948 -0.0029  1.5871
  714TIP3   OH223700   4.479   3.311   0.059 -0.4037  0.8699 -0.0266
  714TIP3    H123701   4.518   3.225   0.042 -0.3786  0.2871  2.5704
  714TIP3    H223702   4.554   3.368   0.080 -0.4987  1.3120 -0.8384
  715TIP3   OH223703   3.063   2.515   2.160  0.5264  0.0387  0.0607
  715TIP3    H123704   3.066   2.599   2.115 -1.2941 -0.0792 -0.3710
  715TIP3    H223705   3.030   2.453   2.094 -0.7217 -0.4480  1.0882
  716TIP3   OH223706   1.112   4.423   7.876  0.2528  0.1715 -0.5828
  716TIP3    H123707   1.199   4.385   7.889 -0.4278 -2.1434 -2.2604
  716TIP3    H223708   1.119   4.511   7.914  3.0678 -0.2113  0.0225
  717TIP3   OH223709   6.581   3.484   0.720 -0.0675  0.0911  0.1163
  717TIP3    H123710   6.575   3.400   0.765  0.8113 -2.3103 -3.8497
  717TIP3    H223711   6.505   3.487   0.663  0.0186  1.9511  0.0353
  718TIP3   OH223712   3.073   0.974   8.782  0.1224 -0.1447 -0.0955
  718TIP3    H123713   3.023   1.043   8.826 -0.0474 -1.5240  2.0009
  718TIP3    H223714   3.164   0.992   8.806  0.0282 -0.9084  0.8852
  719TIP3   OH223715   6.264   2.787   1.537  0.0647  0.3669 -0.7113
  719TIP3    H123716   6.203   2.718   1.510 -1.2846  0.8272  0.9631
  719TIP3    H223717   6.348   2.743   1.546 -0.5964 -0.9074 -0.4545
  720TIP3   OH223718   5.706   1.093   0.074  0.3906 -0.0094 -0.2582
  720TIP3    H123719   5.747   1.008   0.059 -0.4821 -1.3250  3.7622
  720TIP3    H223720   5.746   1.125   0.155 -4.2185 -0.0551  2.3502
  721TIP3   OH223721   2.408   1.592   1.997  0.1544  0.4620  0.1123
  721TIP3    H123722   2.436   1.626   1.912 -1.5720 -0.1262 -0.7357
  721TIP3    H223723   2.475   1.527   2.020  1.2625  1.4596 -0.2073
  722TIP3   OH223724   2.016   5.378   8.226  0.2091 -0.7315 -0.0225
  722TIP3    H123725   2.097   5.328   8.232  0.5548 -0.2173 -0.3857
  722TIP3    H223726   1.971   5.361   8.309  1.4778  0.3579  0.9320
  723TIP3   OH223727   6.343   5.866   1.791  0.2515  0.1777  0.1409
  723TIP3    H123728   6.375   5.890   1.877 -0.0705  2.4189 -0.3199
  723TIP3    H223729   6.275   5.930   1.770 -0.7375 -1.1937 -1.1836
  724TIP3   OH223730   3.033   6.029   0.107  0.1242 -0.3899 -0.2132
  724TIP3    H123731   2.944   6.011   0.137  1.0042 -3.1979  1.1139
  724TIP3    H223732   3.055   6.114   0.146 -1.2454 -0.6373  1.2216
  725TIP3   OH223733   5.035   4.874   0.319 -0.0852  0.1839 -0.6288
  725TIP3    H123734   5.106   4.811   0.332  0.3891  0.3996 -2.0005
  725TIP3    H223735   4.983   4.869   0.399  1.1507 -0.3992  0.1582
  726TIP3   OH223736   1.525   6.353   2.461  0.0049 -0.2440 -0.0751
  726TIP3    H123737   1.483   6.303   2.391  0.4011 -0.9205  0.1704
  726TIP3    H223738   1.576   6.289   2.510 -0.5269  0.1564  1.0355
  727TIP3   OH223739   0.799   2.516   8.176 -0.4868  0.5201  0.1869
  727TIP3    H123740   0.823   2.553   8.091 -0.2736  0.5136  0.2422
  727TIP3    H223741   0.713   2.476   8.163 -0.4742  0.5595 -0.0120
  728TIP3   OH223742   5.857   4.418   0.790 -0.7853  0.1062 -0.1069
  728TIP3    H123743   5.874   4.373   0.707 -0.7575 -0.2504  0.0899
  728TIP3    H223744   5.792   4.364   0.835 -0.2813 -0.0837  0.4104
  729TIP3   OH223745   1.002   0.346   0.174 -0.8643  0.3599  0.2651
  729TIP3    H123746   0.940   0.275   0.158 -2.1795  0.9049  2.4980
  729TIP3    H223747   0.962   0.423   0.134 -1.1307  0.4983  0.7860
  730TIP3   OH223748   3.057   4.336   1.997  0.7892  0.1502 -0.7408
  730TIP3    H123749   3.044   4.280   2.073  1.1582 -0.1057 -0.8591
  730TIP3    H223750   3.146   4.371   2.008  0.8049  0.1944 -0.9950
  731TIP3   OH223751   1.506   3.708   1.913 -0.0269 -0.6109  1.1436
  731TIP3    H123752   1.458   3.628   1.936 -1.8492 -0.0598 -0.4815
  731TIP3    H223753   1.570   3.679   1.848 -1.3235 -0.6847 -0.1773
  732TIP3   OH223754   2.162   0.750   0.264  0.2228 -0.0525 -0.2898
  732TIP3    H123755   2.183   0.842   0.276 -0.3705  0.0390  0.0988
  732TIP3    H223756   2.066   0.748   0.257  0.3449 -0.2098 -3.9283
  733TIP3   OH223757   1.202   3.038   1.619 -0.0839 -0.2725 -0.5337
  733TIP3    H123758   1.139   3.004   1.556 -0.3115 -1.7143  0.4134
  733TIP3    H223759   1.164   3.121   1.648 -1.0468 -0.6277 -0.7263
  734TIP3   OH223760   3.481   3.052   6.708  0.0699 -0.5189 -0.1475
  734TIP3    H123761   3.487   3.126   6.647 -0.8819  2.5330  3.0878
  734TIP3    H223762   3.401   3.070   6.759  0.2487 -3.3767  1.3397
  735TIP3   OH223763   6.331   0.024   7.523 -0.1947 -0.4664  0.0570
  735TIP3    H123764   6.340   0.106   7.475 -0.3640 -0.7470 -0.4569
  735TIP3    H223765   6.413  -0.023   7.506  0.9864  0.6109  2.3323
  736TIP3   OH223766   0.988   5.928   8.267  0.2836 -0.4759 -0.4456
  736TIP3    H123767   0.997   6.014   8.306  0.4267 -1.2215  1.2216
  736TIP3    H223768   1.052   5.873   8.312 -1.7564 -2.1365  0.6016
  737TIP3   OH223769   0.269   6.768   8.501 -0.3001  0.1550  0.1283
  737TIP3    H123770   0.322   6.826   8.448 -1.0013  0.9505  0.2777
  737TIP3    H223771   0.332   6.722   8.557  0.3017  0.4081 -0.3358
  738TIP3   OH223772   1.393   2.702   7.953 -0.3970 -0.6171  0.7458
  738TIP3    H123773   1.487   2.707   7.933 -0.6288  3.4205 -0.2667
  738TIP3    H223774   1.381   2.763   8.026 -2.3940 -0.1587  0.0964
  739TIP3   OH223775   2.292   5.626   2.113  0.1248  0.1017  0.3381
  739TIP3    H123776   2.338   5.592   2.037  1.1340  0.6723  0.6723
  739TIP3    H223777   2.254   5.549   2.155  0.0122 -0.2729 -0.4474
  740TIP3   OH223778   0.186   3.020   0.134  0.2253 -0.1171 -0.4808
  740TIP3    H123779   0.130   2.943   0.118 -0.2447 -0.2095  1.3491
  740TIP3    H223780   0.270   2.983   0.161 -0.1632 -0.0160  0.9182
  741TIP3   OH223781   5.664   3.198   1.675  0.7242 -0.1328 -0.3571
  741TIP3    H123782   5.595   3.132   1.684 -1.5432  2.2275  0.8556
  741TIP3    H223783   5.664   3.244   1.758  3.5315  0.2767 -0.4952
  742TIP3   OH223784   1.168   3.311   1.677 -0.7630  0.3962 -0.6004
  742TIP3    H123785   1.085   3.301   1.631  0.7977 -0.5573 -3.4164
  742TIP3    H223786   1.203   3.395   1.646 -0.9676  1.1677  1.1480
  743TIP3   OH223787   5.511   1.959   2.847 -0.3311  0.0730 -0.4459
  743TIP3    H123788   5.477   2.002   2.769 -1.1410  1.5698  0.6816
  743TIP3    H223789   5.444   1.895   2.871 -0.0116 -0.4951 -1.0429
  744TIP3   OH223790   1.053   3.613   8.334 -0.4196  0.3545 -0.0465
  744TIP3    H123791   0.993   3.547   8.371  0.1174 -0.1591 -0.0733
  744TIP3    H223792   1.054   3.594   8.240  1.6284 -1.2227  0.2227
  745TIP3   OH223793   3.375   4.510   7.166  0.3452  0.2874  0.1465
  745TIP3    H123794   3.305   4.570   7.191  1.2506  0.6776  1.8393
  745TIP3    H223795   3.450   4.566   7.146  0.5016 -0.1788 -0.6664
  746TIP3   OH223796   0.732   6.175   2.244 -0.4681 -0.4141 -0.1347
  746TIP3    H123797   0.792   6.226   2.298 -0.0487  0.2664 -1.2030
  746TIP3    H223798   0.790   6.114   2.196 -0.8419 -1.0905  0.2584
  747TIP3   OH223799   2.300   6.480   0.026  0.0221  0.6527 -0.2906
  747TIP3    H123800   2.305   6.387   0.046 -2.2946  0.8808  1.7827
  747TIP3    H223801   2.313   6.523   0.110 -1.2778  2.0995 -0.7912
  748TIP3   OH223802   5.677   2.724   7.870  0.7753  0.0160 -0.4087
  748TIP3    H123803   5.609   2.724   7.936  0.9528 -0.6587 -0.2175
  748TIP3    H223804   5.673   2.811   7.831  0.7073  0.4383  0.5276
  749TIP3   OH223805   6.133   6.573   0.709  0.2149  0.1389  0.0434
  749TIP3    H123806   6.089   6.488   0.700 -0.3348  0.2679  1.3271
  749TIP3    H223807   6.145   6.584   0.803  0.7559  1.2561 -0.1408
  750TIP3   OH223808   2.401   4.968   8.784  0.5012 -0.0793 -0.3116
  750TIP3    H123809   2.343   5.044   8.787  1.6550  0.9142 -1.7910
  750TIP3    H223810   2.487   5.003   8.807  1.0481 -0.9298 -1.0172
  751TIP3   OH223811   1.726   2.259   0.285  0.0756  0.5106  0.3364
  751TIP3    H123812   1.641   2.258   0.241  0.5484 -1.3963 -0.6288
  751TIP3    H223813   1.787   2.219   0.222  1.4969  0.9328  1.3807
  752TIP3   OH223814   0.663   4.151   7.560 -0.2853 -0.4561 -0.4361
  752TIP3    H123815   0.603   4.089   7.519 -0.9978 -0.0539 -0.0128
  752TIP3    H223816   0.611   4.230   7.573  0.6012  0.2378 -0.9467
  753TIP3   OH223817   6.169   0.474   7.849  0.1467  0.0415  0.0564
  753TIP3    H123818   6.166   0.565   7.880  0.0428  0.3500 -0.8258
  753TIP3    H223819   6.103   0.429   7.901 -1.2957  0.9393 -0.9521
  754TIP3   OH223820   0.378   1.966   2.672  0.7004  0.5958  0.0609
  754TIP3    H123821   0.293   1.932   2.701  0.7966  0.6924  0.4547
  754TIP3    H223822   0.442   1.907   2.712  0.8154  0.4362 -0.3533
  755TIP3   OH223823   3.235   3.693   1.542 -0.1959  0.3658 -1.3010
  755TIP3    H123824   3.315   3.746   1.538  0.3481 -0.2800  0.1539
  755TIP3    H223825   3.181   3.737   1.607  0.0398 -0.5227 -0.4691
  756TIP3   OH223826   1.454   1.417   7.851 -0.0794  0.1374  0.1914
  756TIP3    H123827   1.446   1.334   7.805  2.0157 -0.1542  0.2405
  756TIP3    H223828   1.437   1.395   7.943 -0.9677  0.0647  0.0163
  757TIP3   OH223829   2.716   0.094   2.308  0.3859 -0.0464  0.2296
  757TIP3    H123830   2.626   0.079   2.336  0.0308  1.2626 -0.1508
  757TIP3    H223831   2.749   0.162   2.367  2.0525 -2.3238  2.1157
  758TIP3   OH223832   3.192   1.260   0.415  0.1842 -0.1300 -0.4324
  758TIP3    H123833   3.282   1.291   0.419 -1.2953  5.1568 -0.9856
  758TIP3    H223834   3.167   1.248   0.507  0.9784 -0.1139 -0.2081
  759TIP3   OH223835   6.223   6.422   1.927 -0.3303  0.1468  0.2090
  759TIP3    H123836   6.263   6.348   1.882 -1.1906 -0.0747 -0.2077
  759TIP3    H223837   6.148   6.446   1.872 -2.2003 -0.9537  2.1486
  760TIP3   OH223838   0.304   4.304   0.605 -0.2858  0.1784  0.1914
  760TIP3    H123839   0.287   4.271   0.693 -0.6464  0.2524  0.1509
  760TIP3    H223840   0.399   4.300   0.595 -0.1402  1.2038  0.9921
  761TIP3   OH223841   0.767   5.236   0.771  0.1613  0.4469  0.1708
  761TIP3    H123842   0.687   5.184   0.768  1.0631 -1.0565  0.8026
  761TIP3    H223843   0.793   5.245   0.679  0.1711 -0.5747  0.0560
  762TIP3   OH223844   4.265   5.606   2.025 -0.0683 -0.7120  0.2849
  762TIP3    H123845   4.352   5.575   2.053 -0.0424 -0.0004  1.0224
  762TIP3    H223846   4.206   5.580   2.096 -0.0700  0.7507  0.8575
  763TIP3   OH223847   1.270   5.528   8.743  0.2315  0.4546  0.5713
  763TIP3    H123848   1.203   5.493   8.802  0.5344  0.0013  0.6509
  763TIP3    H223849   1.274   5.463   8.672 -0.5721  1.3008 -0.2739
  764TIP3   OH223850   4.659   0.628   8.014 -0.2804 -0.1646 -0.4950
  764TIP3    H123851   4.564   0.625   8.006 -0.3068  1.0301 -0.7908
  764TIP3    H223852   4.684   0.710   7.973  0.9188 -0.6351 -0.7405
  765TIP3   OH223853   0.085   1.735   8.684 -0.0318 -0.1712 -0.4932
  765TIP3    H123854   0.053   1.825   8.690 -0.8791 -0.5687  1.8246
  765TIP3    H223855   0.180   1.743   8.695 -0.2016  0.3747  0.7014
  766TIP3   OH223856   0.482   3.619   7.819 -0.3429 -0.5889  0.2844
  766TIP3    H123857   0.417   3.663   7.873 -0.7883 -0.2407 -0.5066
  766TIP3    H223858   0.433   3.588   7.743  0.2028 -1.3529  0.2298
  767TIP3   OH223859   2.822   6.578   0.636 -0.3784 -0.0030 -0.2226
  767TIP3    H123860   2.750   6.637   0.659 -1.5770 -0.8592 -1.5401
  767TIP3    H223861   2.846   6.603   0.547 -0.8833 -1.4309 -0.7922
  768TIP3   OH223862   6.314   2.385   2.428  0.2431  0.1930  0.0135
  768TIP3    H123863   6.387   2.420   2.481 -1.4480 -0.7152  3.2285
  768TIP3    H223864   6.330   2.291   2.423  1.4937  0.4520 -3.1870
  769TIP3   OH223865   1.266   3.577   1.663 -0.0938 -0.5049 -0.2659
  769TIP3    H123866   1.183   3.626   1.668 -0.0068 -0.2472 -1.1958
  769TIP3    H223867   1.316   3.608   1.739 -1.0082 -0.9785  0.5519
  770TIP3   OH223868   0.643   5.412   0.337  0.5882  0.6329 -0.1553
  770TIP3    H123869   0.652   5.400   0.431  1.7911  1.6721 -0.1106
  770TIP3    H223870   0.723   5.458   0.311 -1.2695  3.6126 -1.1059
  771TIP3   OH223871   3.195   2.796   1.607 -0.3247  0.0968  0.0613
  771TIP3    H123872   3.226   2.731   1.544  0.0254 -1.2350  1.5636
  771TIP3    H223873   3.274   2.828   1.649 -0.4491  1.8578 -0.9313
  772TIP3   OH223874   3.168   6.107   2.587  0.0722  0.0734 -0.3424
  772TIP3    H123875   3.215   6.151   2.658 -0.2262 -0.1585  0.0054
  772TIP3    H223876   3.225   6.116   2.511  0.5911 -0.0348  0.0274
  773TIP3   OH223877   0.626   5.202   0.077 -0.1994 -0.5097 -0.2956
  773TIP3    H123878   0.653   5.231   0.164 -0.3374 -2.4435  0.4438
  773TIP3    H223879   0.547   5.253   0.059 -0.2341 -0.1475  0.7673
  774TIP3   OH223880   4.235   2.266   2.193  1.1573 -0.0788 -0.2874
  774TIP3    H123881   4.162   2.307   2.240  0.1321 -1.0267 -1.0190
  774TIP3    H223882   4.219   2.172   2.201  0.8997 -0.2816 -2.5850
  775TIP3   OH223883   2.291   4.662   7.876 -0.2273 -0.1689 -0.1387
  775TIP3    H123884   2.288   4.578   7.830  3.1285 -0.6251  0.2449
  775TIP3    H223885   2.267   4.641   7.966  0.7994 -0.7986  0.0005
  776TIP3   OH223886   4.072   5.562   0.041  0.1200  0.1847 -0.0526
  776TIP3    H123887   4.087   5.620  -0.035 -0.0113  1.3195  0.7623
  776TIP3    H223888   4.005   5.501   0.011 -2.2852  2.5844  0.1103
  777TIP3   OH223889   0.510   1.763   0.581  0.3196 -0.7805  0.1219
  777TIP3    H123890   0.463   1.782   0.662  0.3669  1.2861 -0.2945
  777TIP3    H223891   0.590   1.719   0.609 -0.3412 -1.3918  1.0742
  778TIP3   OH223892   2.312   0.736   0.946  0.4682 -0.3015  0.5368
  778TIP3    H123893   2.289   0.801   1.013 -0.0638  0.1571 -0.0770
  778TIP3    H223894   2.294   0.652   0.988 -2.1810  0.0062  0.2315
  779TIP3   OH223895   6.781   1.600   7.506  0.2245 -0.0920  0.0903
  779TIP3    H123896   6.743   1.687   7.516  2.9698  1.4808 -1.8477
  779TIP3    H223897   6.781   1.584   7.412  2.0251 -1.0725  0.2098
  780TIP3   OH223898   6.517   1.292   0.564 -0.2754  0.1445 -0.4893
  780TIP3    H123899   6.473   1.369   0.527  2.7808  2.2666 -0.1078
  780TIP3    H223900   6.551   1.246   0.488 -0.9239 -0.0714 -0.6553
  781TIP3   OH223901   2.004   0.638   2.163 -0.3924  0.1234 -0.0110
  781TIP3    H123902   1.997   0.558   2.214  1.3977 -1.0487 -1.4713
  781TIP3    H223903   2.075   0.688   2.204 -1.5420  1.0385  0.9314
  782TIP3   OH223904   3.810   3.260   0.705 -0.3764 -0.4245 -0.0194
  782TIP3    H123905   3.760   3.182   0.682 -0.1096 -0.5887 -0.0357
  782TIP3    H223906   3.743   3.322   0.737 -0.3871 -1.3592  1.8906
  783TIP3   OH223907   3.907   2.740   8.623 -0.7018 -0.0639  0.2057
  783TIP3    H123908   3.820   2.706   8.646  1.0742 -4.8988  1.0213
  783TIP3    H223909   3.959   2.729   8.703  1.0775  1.2242 -0.7139
  784TIP3   OH223910   3.532   2.632   7.901 -0.6887  0.5121 -0.1622
  784TIP3    H123911   3.550   2.612   7.993  1.0772  0.2048 -0.5283
  784TIP3    H223912   3.484   2.715   7.903 -1.7250 -0.0724  1.0638
  785TIP3   OH223913   1.301   1.496   8.451 -0.5570 -0.1368  0.5196
  785TIP3    H123914   1.328   1.405   8.465 -0.6510  0.0222  1.8637
  785TIP3    H223915   1.235   1.512   8.519 -1.5389  0.5250 -0.5608
  786TIP3   OH223916   0.697   6.248   1.973  0.1003  0.3615 -0.0060
  786TIP3    H123917   0.692   6.335   1.935 -2.0475  0.8962  1.3083
  786TIP3    H223918   0.721   6.262   2.064 -0.4544 -0.3947  0.2695
  787TIP3   OH223919   0.162   5.722   2.723 -0.7342  0.1100  0.2892
  787TIP3    H123920   0.105   5.681   2.658  0.4426 -0.8735 -0.1682
  787TIP3    H223921   0.153   5.816   2.707 -2.1647 -0.0249  0.2057
  788TIP3   OH223922   4.086   6.340   0.931  0.5832 -0.4395  0.1956
  788TIP3    H123923   4.100   6.365   0.840  1.5302 -0.4248  0.3388
  788TIP3    H223924   3.992   6.353   0.945  0.5515  0.2217 -0.5709
  789TIP3   OH223925   5.490   2.620   8.681 -0.3176 -0.5658 -0.1214
  789TIP3    H123926   5.428   2.683   8.718  1.3446  0.9726  0.1824
  789TIP3    H223927   5.545   2.671   8.622  0.4620 -1.9406 -0.6411
  790TIP3   OH223928   4.094   1.644   2.590 -0.1262 -0.6511 -0.5303
  790TIP3    H123929   4.158   1.574   2.602  1.3015  0.3495 -1.8461
  790TIP3    H223930   4.086   1.684   2.677  1.3067 -0.6157 -0.3775
  791TIP3   OH223931   3.287   4.321   7.354  0.5174  0.0740 -0.1058
  791TIP3    H123932   3.347   4.374   7.301  0.2650 -0.7192 -1.2223
  791TIP3    H223933   3.294   4.233   7.318  1.9176 -1.0102  2.5766
  792TIP3   OH223934   4.733   0.266   0.741 -0.0663 -0.2374  0.3096
  792TIP3    H123935   4.774   0.280   0.656 -0.7999 -1.4876 -0.2887
  792TIP3    H223936   4.804   0.277   0.805  0.6044  0.1936 -0.4976
  793TIP3   OH223937   1.583   2.423   1.280 -0.3219  0.1832 -0.4277
  793TIP3    H123938   1.634   2.342   1.290 -0.4287  0.2481  0.9338
  793TIP3    H223939   1.625   2.485   1.340 -1.6928  0.3778  0.3805
  794TIP3   OH223940   2.452   5.325   2.195  0.4541  0.1230 -0.1579
  794TIP3    H123941   2.370   5.373   2.204  1.3448  1.7600 -0.3537
  794TIP3    H223942   2.458   5.272   2.274 -0.6669  0.1682 -0.0326
  795TIP3   OH223943   3.611   1.064   0.763  0.3639 -0.6799 -0.2026
  795TIP3    H123944   3.525   1.050   0.722  0.5097  1.2180 -1.2995
  795TIP3    H223945   3.602   1.145   0.812  1.3566 -0.8162  0.2431
  796TIP3   OH223946   4.263   4.540   2.126 -0.0328  0.2318  0.0994
  796TIP3    H123947   4.287   4.500   2.210  0.5323  0.6286  0.1355
  796TIP3    H223948   4.173   4.571   2.138 -0.4561 -0.9646  0.0871
  797TIP3   OH223949   4.053   2.318   1.373  0.5132 -0.5963 -0.4395
  797TIP3    H123950   3.977   2.284   1.419 -0.8308  0.7417 -1.5568
  797TIP3    H223951   4.121   2.327   1.440 -0.7753 -0.4595  0.8731
  798TIP3   OH223952   5.698   3.931   8.446  0.2888  0.4116  0.6172
  798TIP3    H123953   5.762   3.882   8.394  0.7170  2.2094 -0.6608
  798TIP3    H223954   5.622   3.873   8.452  1.6477 -1.3663  1.3125
  799TIP3   OH223955   2.471   4.937   0.623 -0.0801  0.6402 -0.3812
  799TIP3    H123956   2.478   5.026   0.590  0.3081  0.3659 -1.0567
  799TIP3    H223957   2.382   4.910   0.602 -0.2017  0.8660 -0.1651
  800TIP3   OH223958   5.867   2.636   2.697 -0.0947 -0.9273  0.5083
  800TIP3    H123959   5.888   2.635   2.790  0.2476  1.7253  0.5445
  800TIP3    H223960   5.934   2.582   2.656  1.0401 -0.3858  1.6080
  801TIP3   OH223961   5.783   2.396   7.299 -0.1656  0.3327 -0.0574
  801TIP3    H123962   5.784   2.309   7.261 -1.4415  0.8311 -1.3121
  801TIP3    H223963   5.704   2.398   7.353 -0.4752  0.8958 -0.5212
  802TIP3   OH223964   0.158   4.767   2.988 -0.3203 -0.3367 -1.0790
  802TIP3    H123965   0.184   4.713   3.063 -0.6324 -0.3304 -0.9640
  802TIP3    H223966   0.213   4.846   2.995 -2.8158  1.3715  1.2634
  803TIP3   OH223967   1.068   2.840   7.094  0.0017  0.2874 -0.2171
  803TIP3    H123968   1.081   2.797   7.010  1.9959 -1.0933  0.7379
  803TIP3    H223969   1.079   2.771   7.159 -3.2932  0.8867  1.2314
  804TIP3   OH223970   1.672   1.682   3.611 -0.1618 -0.0328 -0.4691
  804TIP3    H123971   1.740   1.747   3.630  0.3674 -0.4588 -0.8861
  804TIP3    H223972   1.594   1.734   3.591 -0.8263  0.4989  2.8496
  805TIP3   OH223973   2.345   3.554   8.629  0.3796  0.2472 -0.2849
  805TIP3    H123974   2.268   3.541   8.573  0.3134  2.0794 -0.6693
  805TIP3    H223975   2.314   3.612   8.699  0.9483 -0.5139  0.6282
  806TIP3   OH223976   6.117   0.273   6.557  0.3180 -0.3996 -0.2123
  806TIP3    H123977   6.124   0.254   6.651  1.1853 -0.7629 -0.3467
  806TIP3    H223978   6.131   0.368   6.551 -0.9498 -0.1742  0.1398
  807TIP3   OH223979   4.832   0.322   2.496 -0.1414 -0.1684 -0.3669
  807TIP3    H123980   4.848   0.307   2.590  0.2901  1.3237 -0.1802
  807TIP3    H223981   4.916   0.352   2.462  0.2802 -2.6434 -1.7037
  808TIP3   OH223982   4.507   2.496   8.379  0.3127 -0.1232 -0.6101
  808TIP3    H123983   4.532   2.448   8.300  1.6231 -0.2647 -0.1260
  808TIP3    H223984   4.506   2.588   8.352 -1.8325 -0.3386 -1.4410
  809TIP3   OH223985   5.219   3.017   0.900  0.1780 -0.1042  0.0895
  809TIP3    H123986   5.272   3.058   0.832  1.1515  0.5688  1.2082
  809TIP3    H223987   5.266   3.035   0.981 -1.0529 -0.7055  0.9759
  810TIP3   OH223988   0.532   6.007   7.758  0.5240 -0.0166  0.4115
  810TIP3    H123989   0.536   5.941   7.689  2.4176  2.4027 -2.0108
  810TIP3    H223990   0.612   5.994   7.808  0.7163  0.2000  0.1622
  811TIP3   OH223991   3.024   4.372   7.608  0.1749  0.2403  0.1746
  811TIP3    H123992   2.995   4.378   7.699 -2.0488  1.2075 -0.5233
  811TIP3    H223993   3.054   4.460   7.587  0.7730 -0.0065 -0.0101
  812TIP3   OH223994   5.925   4.228   1.148 -0.1443 -0.2460  0.4472
  812TIP3    H123995   5.960   4.139   1.149  0.0964 -0.1531  1.1148
  812TIP3    H223996   5.999   4.284   1.125 -0.6696 -0.3455 -1.6544
  813TIP3   OH223997   2.703   5.637   7.822  0.2364 -0.4293 -0.7566
  813TIP3    H123998   2.682   5.620   7.731 -2.4920 -0.8713 -0.1377
  813TIP3    H223999   2.783   5.587   7.839  1.4820  0.6016 -3.1374
  814TIP3   OH224000   6.400   4.368   7.566 -0.4263 -0.4831 -0.2430
  814TIP3    H124001   6.315   4.408   7.545  0.7714  2.0796 -0.4676
  814TIP3    H224002   6.420   4.314   7.489 -0.2885  1.6698 -1.8047
  815TIP3   OH224003   5.422   0.737   1.319  0.4352 -0.3998  0.3069
  815TIP3    H124004   5.357   0.725   1.388 -0.5505 -0.0889 -0.5478
  815TIP3    H224005   5.382   0.798   1.258  1.6347 -0.0025 -0.1226
  816TIP3   OH224006   0.656   2.563   2.845 -0.2102 -0.4271 -0.3257
  816TIP3    H124007   0.682   2.652   2.866  0.7706 -0.6840 -0.3931
  816TIP3    H224008   0.590   2.541   2.911  2.0132 -0.8238  1.9368
  817TIP3   OH224009   4.453   5.358   8.551  0.2144 -0.6519 -0.1854
  817TIP3    H124010   4.398   5.323   8.480  1.6311  1.5285 -2.5299
  817TIP3    H224011   4.537   5.313   8.540  1.1711  1.3226 -1.4781
  818TIP3   OH224012   6.128   0.801   2.408 -0.2321 -0.2756  0.0958
  818TIP3    H124013   6.196   0.868   2.403  0.6494 -0.9741  1.8636
  818TIP3    H224014   6.175   0.720   2.428 -1.3737 -1.2604 -0.9916
  819TIP3   OH224015   2.135   3.566   8.440  0.1799  0.7219  0.0214
  819TIP3    H124016   2.136   3.518   8.357  0.8432  1.3767 -0.3703
  819TIP3    H224017   2.172   3.652   8.418  1.3531  0.5563  1.2059
  820TIP3   OH224018   5.287   2.292   8.812  0.2904  0.3592 -0.1040
  820TIP3    H124019   5.362   2.236   8.791 -1.3467 -1.4938 -1.2836
  820TIP3    H224020   5.292   2.302   8.907  0.6073 -1.9192  0.1888
  821TIP3   OH224021   5.470   6.020   1.905  0.1914 -0.4223 -0.0909
  821TIP3    H124022   5.520   6.005   1.985 -0.1351 -1.2656 -0.0361
  821TIP3    H224023   5.492   6.109   1.879  0.5799 -0.2714  0.7391
  822TIP3   OH224024   4.841   2.390   7.223  0.0868 -0.7015 -0.1059
  822TIP3    H124025   4.864   2.460   7.285  1.2975  0.1965 -1.4984
  822TIP3    H224026   4.878   2.311   7.261  0.1937 -0.2887  0.6680
  823TIP3   OH224027   4.920   2.679   8.777  0.0422  0.2329 -0.1655
  823TIP3    H124028   4.979   2.610   8.745  0.7839  1.2029 -0.9351
  823TIP3    H224029   4.931   2.678   8.872 -0.3653 -1.0609 -0.1057
  824TIP3   OH224030   5.828   4.665   1.085  0.2988  0.5344  0.4273
  824TIP3    H124031   5.892   4.692   1.020 -1.7005  1.2598 -1.3728
  824TIP3    H224032   5.802   4.577   1.058 -1.2061  1.1898 -0.3768
  825TIP3   OH224033   6.324   2.609   8.626  0.3198  0.5572  0.5763
  825TIP3    H124034   6.344   2.591   8.534 -0.0092  0.4351  0.5269
  825TIP3    H224035   6.242   2.659   8.623 -0.0245  0.0163  0.8323
  826TIP3   OH224036   0.518   0.847   8.568  0.4347  0.5859 -0.0975
  826TIP3    H124037   0.452   0.834   8.499 -0.7450  0.5798  0.9949
  826TIP3    H224038   0.546   0.758   8.591 -1.0973  0.3901  1.2003
  827TIP3   OH224039   3.193   0.092   1.349 -0.0491  0.3978  0.5108
  827TIP3    H124040   3.248   0.036   1.403  3.0602  2.1402 -0.5892
  827TIP3    H224041   3.137   0.139   1.411  0.6972 -0.4101  1.8374
  828TIP3   OH224042   0.387   6.056   1.394 -0.6159  0.2124 -0.0222
  828TIP3    H124043   0.372   5.965   1.370 -2.1517 -0.2136  2.2210
  828TIP3    H224044   0.458   6.085   1.337 -1.1076 -1.9064 -1.8486
  829TIP3   OH224045   1.432   4.319   8.841 -0.2177 -0.4281 -0.1281
  829TIP3    H124046   1.392   4.312   8.754  0.1689 -0.8768 -0.2715
  829TIP3    H224047   1.415   4.234   8.882 -0.7564 -0.0817  0.3960
  830TIP3   OH224048   0.668   2.462   0.467  0.0568  0.7511  0.1444
  830TIP3    H124049   0.657   2.473   0.561  1.3706 -0.4672  0.4754
  830TIP3    H224050   0.760   2.440   0.455 -0.6883 -2.4380 -1.0099
  831TIP3   OH224051   0.623   0.206   2.492  0.2694 -0.4374  0.4783
  831TIP3    H124052   0.552   0.226   2.554  0.3222 -1.7420  0.9839
  831TIP3    H224053   0.669   0.290   2.482 -0.6155  0.1436  1.0695
  832TIP3   OH224054   6.318   1.231   7.947 -0.7917  0.5003 -0.0750
  832TIP3    H124055   6.301   1.190   8.031 -1.5727  1.9809  0.5140
  832TIP3    H224056   6.336   1.322   7.967  2.0161  0.3047 -1.2404
  833TIP3   OH224057   6.724   4.423   2.919 -0.7670  0.2532 -0.5156
  833TIP3    H124058   6.661   4.399   2.852  0.7584 -0.5262 -1.7378
  833TIP3    H224059   6.767   4.502   2.886  1.1161 -1.0250 -1.3274
  834TIP3   OH224060   2.185   4.750   0.995 -0.3640 -0.3234  0.0243
  834TIP3    H124061   2.204   4.821   0.934  0.4636  0.4364  1.1109
  834TIP3    H224062   2.187   4.670   0.942 -2.0320  0.4939 -1.3663
  835TIP3   OH224063   1.690   1.805   3.363  0.1196  0.4876 -0.1753
  835TIP3    H124064   1.730   1.777   3.281  0.9895  1.0401  0.0393
  835TIP3    H224065   1.753   1.867   3.400 -0.0904 -0.0109  1.0799
  836TIP3   OH224066   6.601   1.536   0.071 -0.0032  0.4523  0.6084
  836TIP3    H124067   6.562   1.570   0.152 -0.9800  1.0741 -0.0923
  836TIP3    H224068   6.692   1.565   0.074  0.0793  0.1423  1.6530
  837TIP3   OH224069   1.556   3.406   2.552 -0.2208  0.2410  0.1519
  837TIP3    H124070   1.543   3.496   2.582 -0.2094  0.6245 -0.9740
  837TIP3    H224071   1.648   3.387   2.570 -0.5263 -0.0213  1.5939
  838TIP3   OH224072   0.226   4.487   0.155 -0.3587  0.3171  0.7220
  838TIP3    H124073   0.275   4.568   0.163 -0.6788  0.7467 -1.1329
  838TIP3    H224074   0.278   4.422   0.202  1.6208  0.8978 -0.5544
  839TIP3   OH224075   5.456   1.980   1.163  0.0552 -0.0519  0.2222
  839TIP3    H124076   5.381   2.033   1.188  1.1834  1.5436  0.3862
  839TIP3    H224077   5.532   2.028   1.197  1.0624 -3.1714  2.8512
  840TIP3   OH224078   5.264   2.455   1.962  0.1394  0.2979 -1.0420
  840TIP3    H124079   5.301   2.482   2.046 -1.2111 -1.7414  0.2818
  840TIP3    H224080   5.341   2.431   1.909  0.9289 -0.3452  0.3436
  841TIP3   OH224081   5.616   3.984   7.466 -0.1962  0.0329 -0.2736
  841TIP3    H124082   5.619   3.975   7.371  1.1697 -0.6847 -0.1789
  841TIP3    H224083   5.559   4.060   7.481 -1.0220 -0.2915 -1.6186
  842TIP3   OH224084   2.085   6.421   1.606 -0.4507 -0.0573 -0.0746
  842TIP3    H124085   2.026   6.442   1.533 -0.6249  0.0730  0.1010
  842TIP3    H224086   2.029   6.424   1.683  0.0298  1.3488  0.2535
  843TIP3   OH224087   6.738   6.552   1.389 -0.1722 -0.2072 -0.1940
  843TIP3    H124088   6.771   6.512   1.469 -0.3851  1.3401  0.7258
  843TIP3    H224089   6.745   6.646   1.405  1.0097  0.1738 -2.5185
  844TIP3   OH224090   6.592   4.483   7.771  0.0469  0.3736 -0.2621
  844TIP3    H124091   6.638   4.551   7.723 -1.9686  1.2412 -1.0795
  844TIP3    H224092   6.536   4.441   7.705 -1.2353  0.1895  0.8980
  845TIP3   OH224093   4.003   1.549   8.042  0.0485 -0.3218  0.0110
  845TIP3    H124094   3.916   1.543   8.083 -0.2174  0.1080 -0.4819
  845TIP3    H224095   3.993   1.500   7.960  0.4436 -0.7714  0.2252
  846TIP3   OH224096   6.290   1.061   1.445  0.2518  0.4335  0.1420
  846TIP3    H124097   6.366   1.032   1.495  0.0601  1.4185  1.0533
  846TIP3    H224098   6.222   0.995   1.463 -0.4726  1.7799  2.9223
  847TIP3   OH224099   3.156   0.116   0.606 -0.2476 -0.0068  0.6559
  847TIP3    H124100   3.152   0.190   0.546  2.1914  0.1409  0.5608
  847TIP3    H224101   3.115   0.147   0.686  0.7156  1.4673  0.6145
  848TIP3   OH224102   6.213   2.784   1.814 -0.4106  0.1943 -0.0983
  848TIP3    H124103   6.247   2.784   1.724  0.2141 -1.2020  0.1173
  848TIP3    H224104   6.285   2.816   1.867 -0.5886  0.4700 -0.0195
  849TIP3   OH224105   4.237   5.372   0.489 -0.0448 -0.7321 -0.5905
  849TIP3    H124106   4.226   5.387   0.395  1.1540 -1.3326 -0.8487
  849TIP3    H224107   4.330   5.351   0.499  0.2075  0.8716  0.9574
  850TIP3   OH224108   0.528   3.995   7.086 -0.1118  0.0361 -0.3177
  850TIP3    H124109   0.435   4.009   7.100 -0.5000 -0.5503 -2.0215
  850TIP3    H224110   0.543   3.903   7.105  0.3117  0.3294  0.8095
  851TIP3   OH224111   6.291   5.010   0.476  0.3867 -0.4915 -0.2372
  851TIP3    H124112   6.203   5.010   0.439  0.8621 -0.3185 -1.3894
  851TIP3    H224113   6.348   5.034   0.403  1.2842  0.5159  0.7607
  852TIP3   OH224114   2.506   2.092   3.098 -0.1962 -0.0345 -0.3625
  852TIP3    H124115   2.548   2.166   3.142  0.5133 -1.3769  1.3022
  852TIP3    H224116   2.416   2.092   3.131 -0.4820  0.6240 -1.1009
  853TIP3   OH224117   3.444   2.442   2.656 -0.6045  0.3351  0.2755
  853TIP3    H124118   3.357   2.413   2.683 -0.1348 -1.4319 -0.0297
  853TIP3    H224119   3.428   2.526   2.612 -2.1280  0.1181  0.3667
  854TIP3   OH224120   1.524   4.967   8.180  0.0355 -0.2798 -0.2608
  854TIP3    H124121   1.459   5.009   8.236  0.4375 -1.3482  1.0610
  854TIP3    H224122   1.607   5.010   8.203  0.0470 -0.0172 -0.7870
  855TIP3   OH224123   1.918   2.239   7.028 -0.1382 -0.3257 -0.4364
  855TIP3    H124124   1.976   2.234   6.952  1.0712  0.9385  0.3638
  855TIP3    H224125   1.975   2.224   7.103 -0.7527  1.3335  0.3986
  856TIP3   OH224126   6.273   2.992   0.738 -0.1485 -0.4422  0.1861
  856TIP3    H124127   6.306   3.043   0.811  1.1415  0.1226 -0.7482
  856TIP3    H224128   6.304   3.038   0.660 -0.1943 -1.8468 -0.7000
  857TIP3   OH224129   5.719   6.063   0.139  0.2444  0.0069 -0.1882
  857TIP3    H124130   5.760   6.105   0.063  2.2023  0.7009  1.1765
  857TIP3    H224131   5.691   6.136   0.195 -0.3382 -0.4977  0.1905
  858TIP3   OH224132   4.334   2.833   8.610  0.5401 -0.4801 -0.3109
  858TIP3    H124133   4.391   2.788   8.548 -0.4999 -1.5875 -0.4974
  858TIP3    H224134   4.246   2.804   8.587 -0.0859  1.0457  0.0987
  859TIP3   OH224135   6.779   2.772   7.593  0.3551 -0.3671 -0.1551
  859TIP3    H124136   6.703   2.776   7.535 -0.0532 -1.1097  0.3046
  859TIP3    H224137   6.804   2.680   7.593  1.9358  0.0330 -1.1416
  860TIP3   OH224138   2.265   1.942   0.723  0.0683 -0.1675  0.2978
  860TIP3    H124139   2.324   1.991   0.666 -1.0510  0.5856 -0.2430
  860TIP3    H224140   2.240   1.865   0.671  0.8108 -0.6751  0.6604
  861TIP3   OH224141   0.926   5.440   2.585  0.3966  0.1517  0.5107
  861TIP3    H124142   1.015   5.465   2.608  0.1777  2.3003 -0.7044
  861TIP3    H224143   0.920   5.457   2.491 -1.2766  0.0574  0.5679
  862TIP3   OH224144   3.398   1.792   7.719  0.1042 -0.7844 -0.2231
  862TIP3    H124145   3.305   1.802   7.701  0.3126 -0.2001 -1.0417
  862TIP3    H224146   3.433   1.881   7.718  0.8981 -1.0880 -1.2305
  863TIP3   OH224147   4.848   3.810   8.077  0.4223  0.3151  0.6795
  863TIP3    H124148   4.914   3.878   8.060 -0.1150  1.5209  2.9771
  863TIP3    H224149   4.766   3.849   8.049  0.4330 -0.5056 -0.5560
  864TIP3   OH224150   0.230   4.009   0.232 -0.0568  0.1597 -0.3328
  864TIP3    H124151   0.187   3.929   0.263  0.3469  0.2443  0.4829
  864TIP3    H224152   0.319   3.981   0.210 -0.4734  0.0003 -1.9436
  865TIP3   OH224153   3.175   3.669   1.265  0.1586 -0.2878 -0.6635
  865TIP3    H124154   3.240   3.726   1.224  1.0896 -0.5985  0.3450
  865TIP3    H224155   3.201   3.664   1.357  0.0279 -2.2217 -0.6937
  866TIP3   OH224156   1.945   4.811   7.126 -0.2047  0.5532 -0.5508
  866TIP3    H124157   1.951   4.718   7.105 -1.3222  0.3875 -0.2331
  866TIP3    H224158   1.870   4.842   7.076  2.1614  2.1285 -3.3957
  867TIP3   OH224159   2.328   2.166   1.203 -0.1415  0.3046 -0.1637
  867TIP3    H124160   2.390   2.105   1.162 -1.1481 -0.6143 -0.3668
  867TIP3    H224161   2.305   2.124   1.286 -1.9056 -0.3167 -0.9233
  868TIP3   OH224162   6.205   5.839   7.912 -0.9299  0.4893  0.1428
  868TIP3    H124163   6.191   5.788   7.992 -1.6742  1.5371  0.6993
  868TIP3    H224164   6.141   5.803   7.849  0.3643 -1.0540 -0.3778
  869TIP3   OH224165   3.815   1.969   1.414 -0.4516 -0.0819  0.3729
  869TIP3    H124166   3.814   2.051   1.463 -0.3423  0.4924 -0.5633
  869TIP3    H224167   3.778   1.991   1.328  0.3258 -0.8145 -0.1775
  870TIP3   OH224168   5.462   4.141   2.596  0.3591  0.7341 -0.0093
  870TIP3    H124169   5.515   4.109   2.669  0.6240 -1.0117 -0.9130
  870TIP3    H224170   5.518   4.205   2.551  1.3475 -0.3467 -0.3623
  871TIP3   OH224171   6.247   4.225   7.194  0.2800 -0.4752  0.1550
  871TIP3    H124172   6.165   4.274   7.183  1.1102  0.5175 -2.3286
  871TIP3    H224173   6.222   4.134   7.184 -0.5364 -0.1772 -0.6315
  872TIP3   OH224174   6.366   4.456   0.460 -0.2033 -0.4492  0.2559
  872TIP3    H124175   6.400   4.378   0.504 -0.5355 -1.3842 -1.0651
  872TIP3    H224176   6.281   4.471   0.502  0.1425 -0.3856  0.9607
  873TIP3   OH224177   0.125   2.396   7.338 -0.0765  0.3494  0.0117
  873TIP3    H124178   0.200   2.348   7.373 -0.9953 -0.6990  0.5994
  873TIP3    H224179   0.131   2.384   7.243  0.2777 -0.0766  0.0842
  874TIP3   OH224180   1.410   6.419   1.079 -0.0901 -0.2296 -0.1863
  874TIP3    H124181   1.436   6.351   1.016 -0.8811  0.2031 -0.9978
  874TIP3    H224182   1.378   6.491   1.024  0.4852  0.6989  0.6710
  875TIP3   OH224183   3.743   4.918   0.073  0.0820  0.2947  0.1294
  875TIP3    H124184   3.718   4.870   0.152 -1.3649 -0.5867 -0.8294
  875TIP3    H224185   3.807   4.862   0.030 -0.6863 -0.2103 -0.3665
  876TIP3   OH224186   2.198   0.700   7.861  0.3257 -0.7126  0.3492
  876TIP3    H124187   2.227   0.722   7.950  2.0567  1.5709 -0.6625
  876TIP3    H224188   2.217   0.607   7.852  2.4647 -0.4563  1.5713
  877TIP3   OH224189   2.432   4.204   1.438  0.2772  0.4170 -0.2187
  877TIP3    H124190   2.393   4.124   1.405  0.4289  0.3246 -0.1756
  877TIP3    H224191   2.400   4.211   1.528 -0.1832  0.6992 -0.3972
  878TIP3   OH224192   2.941   0.512   8.334 -0.1514 -0.4883 -0.1955
  878TIP3    H124193   2.951   0.582   8.399  0.3850 -1.3717  0.7008
  878TIP3    H224194   3.029   0.498   8.301  0.0837 -1.9289  0.9322
  879TIP3   OH224195   6.616   1.752   7.223 -0.2258  0.2887  0.3217
  879TIP3    H124196   6.635   1.795   7.140 -0.8872 -0.2177 -0.1080
  879TIP3    H224197   6.686   1.687   7.232  1.0413  1.7185  1.2015
  880TIP3   OH224198   0.123   5.162   7.123 -0.2656 -0.5495  0.1781
  880TIP3    H124199   0.152   5.204   7.042  0.0210 -1.0720 -0.0002
  880TIP3    H224200   0.061   5.223   7.162 -2.1291 -1.2128 -1.5640
  881TIP3   OH224201   2.300   3.265   1.049 -0.1255 -0.1933  0.7049
  881TIP3    H124202   2.328   3.357   1.053 -1.5018  0.3246 -0.6747
  881TIP3    H224203   2.315   3.239   0.959 -0.3368 -1.1334  0.9330
  882TIP3   OH224204   5.692   5.886   7.614  0.4676  0.1912  0.3708
  882TIP3    H124205   5.781   5.900   7.583  0.5578  0.3964  0.7083
  882TIP3    H224206   5.654   5.974   7.621  1.0265  0.3299  2.4816
  883TIP3   OH224207   3.383   0.318   8.762  0.0388 -0.0880  0.0572
  883TIP3    H124208   3.362   0.398   8.713 -1.7215 -0.5342  0.0164
  883TIP3    H224209   3.434   0.265   8.702 -1.1580 -0.1603 -0.9218
  884TIP3   OH224210   4.919   3.267   8.563  0.2401 -0.1116  0.3219
  884TIP3    H124211   4.880   3.197   8.510  2.6777 -1.7473  0.5540
  884TIP3    H224212   4.922   3.231   8.651  0.8984  0.5545  0.5789
  885TIP3   OH224213   2.211   1.472   1.709  0.1224  0.1925  0.1957
  885TIP3    H124214   2.125   1.474   1.667  1.5000 -2.0420 -3.1751
  885TIP3    H224215   2.221   1.559   1.748 -3.1501  0.9039 -0.2931
  886TIP3   OH224216   3.997   1.721   1.614  0.2478 -0.3360 -0.2453
  886TIP3    H124217   3.951   1.741   1.696  1.4013 -2.0511  0.8714
  886TIP3    H224218   3.951   1.773   1.548 -0.1458  1.8343  1.6080
  887TIP3   OH224219   4.306   0.140   2.402 -0.0450 -0.3419 -0.4974
  887TIP3    H124220   4.267   0.220   2.368 -0.4037 -0.4546 -0.3587
  887TIP3    H224221   4.301   0.077   2.330 -0.1058 -0.3508 -0.4856
  888TIP3   OH224222   0.075   1.387   7.797  0.0907  0.4270 -0.8524
  888TIP3    H124223   0.115   1.474   7.799 -1.4194  1.1356  1.5204
  888TIP3    H224224   0.034   1.381   7.710 -0.5382  2.4325 -0.7238
  889TIP3   OH224225   1.928   1.434   7.263 -0.0947  0.3373 -0.0667
  889TIP3    H124226   1.897   1.480   7.185 -1.4383 -0.8306 -0.2474
  889TIP3    H224227   1.867   1.461   7.332  0.1462  0.1436  0.2234
  890TIP3   OH224228   1.017   5.095   0.049  0.1806 -0.1022 -0.3290
  890TIP3    H124229   0.999   5.002   0.065 -0.0181  0.0811  0.5999
  890TIP3    H224230   1.094   5.095  -0.007  1.6289 -0.8152  1.5699
  891TIP3   OH224231   1.135   0.130   8.237  0.4787  0.3319 -0.0669
  891TIP3    H124232   1.178   0.150   8.154  1.7167 -0.7992  0.2645
  891TIP3    H224233   1.199   0.155   8.304 -0.7577  1.8416  0.6120
  892TIP3   OH224234   3.148   6.442   1.000 -0.4160 -0.2162 -0.3463
  892TIP3    H124235   3.064   6.476   0.968  0.3571  0.4197 -1.7799
  892TIP3    H224236   3.187   6.516   1.047 -0.3897 -0.3277 -0.1910
  893TIP3   OH224237   4.929   3.728   7.297 -0.4184 -0.5415  0.6362
  893TIP3    H124238   4.930   3.633   7.306 -0.6393 -0.8706 -2.0983
  893TIP3    H224239   4.879   3.745   7.217 -1.2780  1.9513  1.5820
  894TIP3   OH224240   1.779   4.619   1.925 -0.5618  0.2498  0.0985
  894TIP3    H124241   1.809   4.578   1.844 -0.1876  0.7623 -0.0334
  894TIP3    H224242   1.764   4.547   1.985 -0.9225 -0.1435 -0.4542
  895TIP3   OH224243   1.065   2.823   8.038  0.0698 -0.4384  0.2448
  895TIP3    H124244   1.008   2.870   7.978 -1.0530  0.6352  2.0348
  895TIP3    H224245   1.035   2.733   8.036 -1.5576  0.0450  0.9122
  896TIP3   OH224246   1.326   1.658   2.549  0.3811 -0.0917 -1.0612
  896TIP3    H124247   1.231   1.645   2.557  0.4460 -0.3272 -0.6546
  896TIP3    H224248   1.345   1.731   2.608  0.5226 -0.3517 -0.7841
  897TIP3   OH224249   3.185   5.558   8.219 -0.2138 -0.1917 -0.0925
  897TIP3    H124250   3.201   5.465   8.203  1.1517 -0.2888  1.5148
  897TIP3    H224251   3.159   5.562   8.311 -0.5446  0.9973 -0.2251
  898TIP3   OH224252   2.344   4.970   2.660  0.3803 -0.0680 -0.0102
  898TIP3    H124253   2.388   5.050   2.689  1.7264 -0.5762 -0.5705
  898TIP3    H224254   2.412   4.920   2.616  0.1114 -2.4448  2.0522
  899TIP3   OH224255   6.470   6.780   8.271 -0.1642  0.6568  0.1720
  899TIP3    H124256   6.420   6.832   8.209 -0.5893  1.3102  1.0298
  899TIP3    H224257   6.441   6.690   8.258 -0.2559  0.7883 -0.5512
  900TIP3   OH224258   6.089   4.594   1.793 -0.0660  0.0843  0.4955
  900TIP3    H124259   6.137   4.674   1.769  1.0300 -0.1700  1.6964
  900TIP3    H224260   6.073   4.604   1.887 -1.4645 -0.3298  0.3125
  901TIP3   OH224261   3.871   5.876   6.805  0.4631 -0.0527  0.5568
  901TIP3    H124262   3.956   5.861   6.846  0.7827 -2.7144 -0.8640
  901TIP3    H224263   3.831   5.946   6.858  2.7992  0.0894  2.2993
  902TIP3   OH224264   4.277   0.680   8.713 -0.6220  0.2046  0.4785
  902TIP3    H124265   4.256   0.689   8.620 -0.9815 -0.6963  0.4562
  902TIP3    H224266   4.193   0.658   8.754 -0.3991  0.2484  0.9545
  903TIP3   OH224267   5.237   4.258   0.510 -0.7686 -0.3705 -0.8885
  903TIP3    H124268   5.264   4.247   0.419  0.0704  0.3969 -0.7484
  903TIP3    H224269   5.201   4.346   0.514 -0.7649 -0.3865 -0.4667
  904TIP3   OH224270   0.269   2.814   2.241 -0.0993  0.4231 -0.2663
  904TIP3    H124271   0.336   2.749   2.220 -2.0950 -0.7956 -3.6801
  904TIP3    H224272   0.205   2.766   2.294  0.6931  1.0646  1.3551
  905TIP3   OH224273   0.169   1.220   0.640  0.1383  0.3764 -1.0883
  905TIP3    H124274   0.225   1.283   0.686  1.7816 -1.1852 -0.8413
  905TIP3    H224275   0.124   1.173   0.710  0.9786 -0.5270 -1.1422
  906TIP3   OH224276   3.025   3.689   7.256 -0.4435  0.2659 -0.0618
  906TIP3    H124277   2.932   3.678   7.238 -0.2768  0.2674 -0.9713
  906TIP3    H224278   3.060   3.732   7.178  0.5130 -0.6888 -0.1900
  907TIP3   OH224279   3.340   0.486   8.104  0.2408  0.2370 -0.7285
  907TIP3    H124280   3.349   0.444   8.018  2.5356  0.8856 -0.8667
  907TIP3    H224281   3.354   0.579   8.087  0.2894  0.4209  0.2694
  908TIP3   OH224282   5.054   2.040   8.110  0.1132 -0.3777  0.1065
  908TIP3    H124283   5.066   1.945   8.110 -1.7000 -0.6397 -0.8100
  908TIP3    H224284   5.064   2.065   8.201 -1.4511 -1.7578  0.7011
  909TIP3   OH224285   1.879   4.290   1.496  0.0029 -0.2168 -0.6727
  909TIP3    H124286   1.897   4.228   1.567  1.5502  1.6503  0.6722
  909TIP3    H224287   1.885   4.237   1.416 -1.2704 -2.2822  0.4891
  910TIP3   OH224288   4.438   0.671   1.006  0.2726  0.2478 -0.1497
  910TIP3    H124289   4.449   0.679   0.911  0.4712  1.1240 -0.0643
  910TIP3    H224290   4.467   0.583   1.026  0.2967  0.0768 -0.8972
  911TIP3   OH224291   2.976   0.444   1.560 -0.5134 -0.9091  0.6449
  911TIP3    H124292   3.027   0.363   1.564 -0.7831 -1.0579  1.4009
  911TIP3    H224293   2.900   0.421   1.506  0.3405 -0.5997 -0.7366
  912TIP3   OH224294   6.526   3.866   8.045  0.2101  0.2883  0.7841
  912TIP3    H124295   6.520   3.770   8.039 -0.0564  0.2512  1.5593
  912TIP3    H224296   6.501   3.886   8.135 -0.0505  1.1213  0.5331
  913TIP3   OH224297   6.476   0.589   7.761 -0.1353 -0.0673 -0.2716
  913TIP3    H124298   6.391   0.622   7.789  0.0382 -0.2897  0.5437
  913TIP3    H224299   6.469   0.494   7.767  0.1615 -0.0885 -0.2123
  914TIP3   OH224300   0.988   3.501   8.069 -0.3277  0.3158 -0.2957
  914TIP3    H124301   1.065   3.550   8.042  0.5636  0.4982  2.3046
  914TIP3    H224302   0.919   3.567   8.075 -0.8890  0.0991 -2.9501
  915TIP3   OH224303   3.583   3.910   8.506  0.1996  0.0880  0.8573
  915TIP3    H124304   3.605   3.817   8.515  0.6020  0.1376  0.4345
  915TIP3    H224305   3.495   3.918   8.544  0.9490 -0.0907  2.7546
  916TIP3   OH224306   6.095   6.648   1.165 -0.4433  0.3662  0.5777
  916TIP3    H124307   6.068   6.709   1.096  2.1309 -1.0140 -1.8731
  916TIP3    H224308   6.147   6.702   1.225  0.0883  1.0046 -0.4200
  917TIP3   OH224309   3.800   5.558   7.608 -0.2987 -0.1053 -0.4033
  917TIP3    H124310   3.736   5.528   7.544 -0.3103  1.2238 -1.0505
  917TIP3    H224311   3.761   5.636   7.647  0.0112 -0.4956  0.7336
  918TIP3   OH224312   2.856   1.496   1.391 -0.2121  0.1580 -0.2400
  918TIP3    H124313   2.927   1.524   1.334 -1.5885  0.6317 -1.7904
  918TIP3    H224314   2.900   1.471   1.473  1.6378  1.1810 -0.8526
  919TIP3   OH224315   0.873   6.254   1.614  0.9461  0.2690  0.1054
  919TIP3    H124316   0.951   6.226   1.663  1.0496  0.0232 -0.1955
  919TIP3    H224317   0.863   6.187   1.546 -0.0961 -0.2372  0.7324
  920TIP3   OH224318   0.372   1.398   2.864  0.4900  0.3020  0.3503
  920TIP3    H124319   0.452   1.450   2.858  0.7336 -0.1875 -0.9521
  920TIP3    H224320   0.392   1.332   2.931  1.0760  0.3518  0.2305
  921TIP3   OH224321   5.321   4.268   1.688 -0.3212  0.0790  0.4269
  921TIP3    H124322   5.257   4.209   1.729 -0.7287  0.3037  0.1275
  921TIP3    H224323   5.318   4.244   1.595  0.7072 -0.5310  0.5395
  922TIP3   OH224324   6.689   2.206   1.656  0.1688  0.2498  0.0200
  922TIP3    H124325   6.743   2.135   1.693  0.6855  0.5007 -0.2473
  922TIP3    H224326   6.736   2.234   1.578 -0.7361 -0.0259 -0.6352
  923TIP3   OH224327   0.097   6.340   0.572 -0.2860 -0.1544 -0.3002
  923TIP3    H124328   0.070   6.426   0.539 -0.9324  0.3579  1.4625
  923TIP3    H224329   0.023   6.283   0.553  0.2039 -0.4119 -1.6132
  924TIP3   OH224330   3.956   5.515   8.294  0.0024  0.1725 -0.0094
  924TIP3    H124331   3.985   5.451   8.229  1.1027 -0.6904  1.2565
  924TIP3    H224332   4.028   5.518   8.358 -0.3315  2.1864  0.3279
  925TIP3   OH224333   2.612   1.380   0.727  0.0581 -0.4543  0.1419
  925TIP3    H124334   2.703   1.380   0.755 -0.2197 -0.0351  1.1064
  925TIP3    H224335   2.562   1.386   0.809 -0.8363 -0.7623 -0.3625
  926TIP3   OH224336   1.182   1.046   7.689 -0.2047 -0.1948  0.6418
  926TIP3    H124337   1.270   1.059   7.724  1.0375 -0.8332 -1.9672
  926TIP3    H224338   1.143   1.133   7.688 -0.0061 -0.0463  2.7097
  927TIP3   OH224339   4.175   4.282   2.008  0.4784  0.3832  0.0392
  927TIP3    H124340   4.085   4.313   1.996  0.8837  1.2218 -0.9576
  927TIP3    H224341   4.223   4.359   2.040  0.3747 -0.6674  3.0210
  928TIP3   OH224342   0.445   1.546   3.196 -0.3371 -0.3934 -0.3221
  928TIP3    H124343   0.354   1.550   3.164 -1.5806 -4.7372  1.7903
  928TIP3    H224344   0.488   1.487   3.134  0.6046  0.3364 -0.3742
  929TIP3   OH224345   4.989   3.974   1.153 -0.0188  0.4448  0.2979
  929TIP3    H124346   5.028   3.980   1.066 -0.8644  1.2425 -0.0570
  929TIP3    H224347   4.937   4.055   1.161 -0.8220 -0.1260  1.1031
  930TIP3   OH224348   4.396   6.624   1.832  0.1137 -0.0502 -0.5339
  930TIP3    H124349   4.458   6.552   1.844  0.6841  0.6669  1.2688
  930TIP3    H224350   4.312   6.581   1.816  0.6504 -1.0818 -0.6711
  931TIP3   OH224351   0.563   2.547   0.773 -0.3671  0.7202 -0.1156
  931TIP3    H124352   0.612   2.482   0.824 -0.2326 -0.1089 -1.2489
  931TIP3    H224353   0.537   2.613   0.837  2.4084  1.3334  0.5203
  932TIP3   OH224354   4.352   3.607   7.765  0.4922  0.6013 -0.1618
  932TIP3    H124355   4.302   3.659   7.828 -0.0338  0.5628 -0.5445
  932TIP3    H224356   4.331   3.647   7.680 -0.1345 -0.4010 -0.4954
  933TIP3   OH224357   4.832   6.433   1.674  0.2287 -0.0105 -0.3849
  933TIP3    H124358   4.740   6.446   1.697  0.4987  1.1775  0.1001
  933TIP3    H224359   4.833   6.352   1.624 -1.2504  0.5156 -1.3384
  934TIP3   OH224360   0.999   3.189   2.282  0.6362 -0.2284  0.0499
  934TIP3    H124361   1.091   3.191   2.256  0.4297  4.0347 -1.1397
  934TIP3    H224362   0.952   3.169   2.201  0.4421 -0.1168  0.1353
  935TIP3   OH224363   0.994   6.560   7.867  0.1624  0.0025 -0.1923
  935TIP3    H124364   0.934   6.533   7.797  0.8040  2.7544 -1.9724
  935TIP3    H224365   0.953   6.638   7.905  1.3348  0.3734  0.3630
  936TIP3   OH224366   6.379   1.121   8.650  0.1408 -0.1944  0.0395
  936TIP3    H124367   6.292   1.160   8.665  0.8521  0.7887  1.9366
  936TIP3    H224368   6.439   1.180   8.696  1.9506 -0.3508 -1.9768
  937TIP3   OH224369   4.509   5.791   1.403  0.4034 -0.2323 -0.4170
  937TIP3    H124370   4.531   5.710   1.448  0.4159 -0.2220 -0.4046
  937TIP3    H224371   4.476   5.762   1.317  3.3400 -0.1435 -1.6789
  938TIP3   OH224372   3.243   0.167   8.398  0.1085 -0.4152  0.6486
  938TIP3    H124373   3.148   0.158   8.403  0.1813 -0.9735  1.0932
  938TIP3    H224374   3.277   0.087   8.439  0.7628 -0.9532 -0.8644
  939TIP3   OH224375   0.520   1.128   1.084  0.0498 -0.2942  0.1299
  939TIP3    H124376   0.588   1.091   1.140 -0.1312 -1.2642 -0.2667
  939TIP3    H224377   0.444   1.137   1.141  0.4952  0.8067  0.5772
  940TIP3   OH224378   1.774   0.377   8.200  0.6454 -0.2155  0.1990
  940TIP3    H124379   1.709   0.318   8.239 -0.0749  0.1934 -0.3500
  940TIP3    H224380   1.729   0.415   8.124  0.6021  2.0765  1.2885
  941TIP3   OH224381   4.468   5.654   8.411  0.0165  0.0284  0.3716
  941TIP3    H124382   4.403   5.648   8.481 -0.5886  0.0799 -0.1739
  941TIP3    H224383   4.551   5.669   8.456 -0.7696  3.3086  0.9753
  942TIP3   OH224384   3.650   1.498   1.806  0.5429 -0.1769  0.3228
  942TIP3    H124385   3.614   1.584   1.787  0.6629 -0.2725 -0.3874
  942TIP3    H224386   3.581   1.454   1.856  0.1091  0.0212 -0.0855
  943TIP3   OH224387   3.635   3.275   6.611 -1.0290  0.2637 -0.0637
  943TIP3    H124388   3.672   3.261   6.524 -0.7230 -1.7409  0.3533
  943TIP3    H224389   3.665   3.363   6.636  2.1937 -0.6131 -0.4000
  944TIP3   OH224390   4.021   5.714   1.880 -0.0042  0.4150  0.0391
  944TIP3    H124391   4.061   5.637   1.839 -0.0141 -1.0592  2.5829
  944TIP3    H224392   4.060   5.789   1.835  1.0142 -1.0509 -1.6169
  945TIP3   OH224393   0.967   0.792   2.551 -0.0400 -0.2005 -0.1372
  945TIP3    H124394   1.052   0.827   2.525  0.7643 -1.4722  0.6667
  945TIP3    H224395   0.967   0.702   2.519 -1.5203  0.0890 -1.0305
  946TIP3   OH224396   6.148   4.152   0.941  0.5181 -0.1607  0.6780
  946TIP3    H124397   6.130   4.208   0.866  3.1956  0.2015  0.2039
  946TIP3    H224398   6.176   4.212   1.010  1.8218 -0.7482  0.6871
  947TIP3   OH224399   6.078   3.793   0.773  0.1536  0.0467 -0.4132
  947TIP3    H124400   6.056   3.786   0.680 -0.9933 -1.3863 -0.0922
  947TIP3    H224401   6.167   3.760   0.779  0.5920  1.0595 -1.1096
  948TIP3   OH224402   3.630   1.073   0.432 -0.9036  0.1273 -0.0406
  948TIP3    H124403   3.654   1.025   0.353  2.4587 -0.6745  1.2743
  948TIP3    H224404   3.591   1.007   0.490  2.0004 -0.8077  1.0487
  949TIP3   OH224405   4.924   4.723   7.769  0.3049 -0.3942 -0.1111
  949TIP3    H124406   4.962   4.794   7.718  0.7283  0.8812  1.8508
  949TIP3    H224407   4.832   4.748   7.782  0.4076 -0.2708  0.4264
  950TIP3   OH224408   0.428   1.706   8.253  0.0325 -0.1444 -0.2551
  950TIP3    H124409   0.384   1.723   8.169  0.1133 -0.0707 -0.2835
  950TIP3    H224410   0.449   1.613   8.251  0.0389 -0.1420 -0.3195
  951TIP3   OH224411   3.761   5.307   0.603  0.1025  0.0378  0.0427
  951TIP3    H124412   3.676   5.300   0.560 -0.1005 -0.1088  0.4609
  951TIP3    H224413   3.811   5.233   0.568 -0.2886 -0.4794  0.5513
  952TIP3   OH224414   4.644   4.557   6.915  0.2464 -0.0818  0.3182
  952TIP3    H124415   4.641   4.625   6.982  0.5407 -0.6197  0.8808
  952TIP3    H224416   4.694   4.486   6.954  0.1613 -0.5260 -0.3583
  953TIP3   OH224417   4.872   2.679   1.468  0.0243  0.5500  0.2998
  953TIP3    H124418   4.865   2.674   1.563  0.4532 -0.1199  0.3032
  953TIP3    H224419   4.782   2.690   1.437 -0.3941 -1.4420  0.6700
  954TIP3   OH224420   2.477   5.241   0.642  0.2084 -0.4385 -0.1040
  954TIP3    H124421   2.454   5.267   0.553  0.5145  0.6707  0.1231
  954TIP3    H224422   2.572   5.230   0.641  0.0647 -1.8875 -0.2597
  955TIP3   OH224423   4.069   5.118   8.095 -0.7001  0.2331  0.6410
  955TIP3    H124424   4.065   5.213   8.087  0.4083  0.2299 -0.0908
  955TIP3    H224425   3.978   5.089   8.085 -0.8628  1.1211 -0.6127
  956TIP3   OH224426   2.216   1.486   0.959  0.0970 -0.0056  0.1241
  956TIP3    H124427   2.189   1.572   0.925 -1.6082  0.2685  1.9973
  956TIP3    H224428   2.236   1.502   1.051 -2.9335 -2.0191  1.2904
  957TIP3   OH224429   3.229   6.491   7.494 -0.1147  0.3178  0.1922
  957TIP3    H124430   3.134   6.490   7.481 -0.1704 -2.8561  0.1824
  957TIP3    H224431   3.263   6.431   7.428  2.0717  2.1366 -0.4495
  958TIP3   OH224432   2.668   5.443   0.493 -0.0289 -0.0067  0.1217
  958TIP3    H124433   2.662   5.523   0.546 -0.4908  0.2160 -0.2634
  958TIP3    H224434   2.724   5.385   0.545 -0.0950  0.3800  0.6390
  959TIP3   OH224435   6.502   6.772   8.572  0.3390 -0.3397 -0.1363
  959TIP3    H124436   6.420   6.765   8.622  0.4799 -0.5378  0.0692
  959TIP3    H224437   6.475   6.809   8.488  0.0855 -0.0883  0.0503
  960TIP3   OH224438   3.203   3.054   7.762  1.0329 -0.1150  0.3433
  960TIP3    H124439   3.293   3.088   7.766  0.1935  2.1437  3.4719
  960TIP3    H224440   3.190   3.034   7.669  3.7390  2.4879 -0.7936
  961TIP3   OH224441   3.405   1.667   1.945  0.0578 -0.2773  0.5383
  961TIP3    H124442   3.409   1.574   1.964  0.0591 -0.7331 -1.4666
  961TIP3    H224443   3.317   1.694   1.971 -0.0419 -0.8969  0.8512
  962TIP3   OH224444   3.659   2.757   7.637 -0.4194 -0.3787 -0.6461
  962TIP3    H124445   3.599   2.716   7.699 -0.0365  0.0707  0.0245
  962TIP3    H224446   3.746   2.745   7.676 -0.0317 -1.2314 -1.7124
  963TIP3   OH224447   1.840   2.459   8.795  0.5436  0.1375  0.5500
  963TIP3    H124448   1.861   2.552   8.802  0.3972  0.0988  1.6862
  963TIP3    H224449   1.918   2.414   8.830  1.0334 -0.2191 -0.9226
  964TIP3   OH224450   5.736   0.410   1.169  0.3677 -0.5241 -0.8034
  964TIP3    H124451   5.804   0.421   1.235  0.4149 -2.1194 -0.5626
  964TIP3    H224452   5.778   0.433   1.086  0.1104  2.2349 -0.2709
  965TIP3   OH224453   1.384   5.120   8.364 -0.3542 -0.1732  0.1441
  965TIP3    H124454   1.416   5.130   8.454 -1.7674 -2.0159  0.9174
  965TIP3    H224455   1.379   5.210   8.330  1.3501  0.4740  1.4608
  966TIP3   OH224456   5.081   1.802   0.759  0.0022 -0.0564  0.4293
  966TIP3    H124457   5.061   1.787   0.852  0.5307  0.2155  0.5862
  966TIP3    H224458   5.088   1.714   0.722  2.0566 -0.2330  1.1335
  967TIP3   OH224459   5.667   5.794   0.766 -0.4617 -0.0347  0.4350
  967TIP3    H124460   5.686   5.702   0.745  0.7440  0.1335  0.7444
  967TIP3    H224461   5.616   5.790   0.847 -1.3926 -0.4665 -0.1423
  968TIP3   OH224462   3.875   5.058   0.508  0.0593  0.2842  0.4311
  968TIP3    H124463   3.864   4.963   0.516 -1.8291  0.3571 -0.6632
  968TIP3    H224464   3.969   5.072   0.516  0.2217 -1.4634  2.5026
  969TIP3   OH224465   0.047   5.389   8.102  0.2011  0.3936  0.0210
  969TIP3    H124466   0.003   5.412   8.020  0.4192  0.4767 -0.0732
  969TIP3    H224467   0.137   5.370   8.077  0.2677  0.4143  0.2407
  970TIP3   OH224468   1.305   3.913   1.917 -0.4007 -0.3166 -0.2825
  970TIP3    H124469   1.327   3.990   1.968  0.9218 -1.6061  1.2299
  970TIP3    H224470   1.381   3.855   1.929 -0.8426 -1.3949 -2.2892
  971TIP3   OH224471   6.533   1.369   2.918  0.3226 -0.3277  0.1308
  971TIP3    H124472   6.517   1.427   2.992 -0.5299 -0.2242 -0.1270
  971TIP3    H224473   6.464   1.303   2.924 -1.2841  1.0500 -1.9377
  972TIP3   OH224474   6.458   5.269   0.962 -0.0924  0.1860 -0.0760
  972TIP3    H124475   6.408   5.344   0.931 -2.3761 -0.3027  2.1533
  972TIP3    H224476   6.481   5.221   0.882 -0.7308  1.9203 -1.3587
  973TIP3   OH224477   3.009   1.422   8.705 -0.1043 -0.0765  0.3764
  973TIP3    H124478   3.077   1.364   8.671  1.2256  1.1093  0.9197
  973TIP3    H224479   2.951   1.364   8.754  1.0875 -0.9848  0.7548
  974TIP3   OH224480   0.480   3.947   7.522 -0.1226 -0.5198  0.2781
  974TIP3    H124481   0.515   3.912   7.604 -1.0059  1.2299  1.4826
  974TIP3    H224482   0.429   3.875   7.485  0.1763 -1.3056  1.3420
  975TIP3   OH224483   0.584   2.700   2.590 -0.1629 -0.4350 -0.1746
  975TIP3    H124484   0.583   2.746   2.673 -0.9177  0.2284 -0.5443
  975TIP3    H224485   0.523   2.748   2.534  0.3924 -0.8136 -1.1422
  976TIP3   OH224486   1.351   4.815   1.487  0.1203  0.1205 -0.0015
  976TIP3    H124487   1.274   4.761   1.500  0.0212  0.2264 -0.1448
  976TIP3    H224488   1.331   4.868   1.409  0.3493  0.1226 -0.0612
  977TIP3   OH224489   5.250   5.928   7.972 -0.0602 -0.0018 -0.3297
  977TIP3    H124490   5.211   5.914   7.886  1.3405 -0.7163 -0.8846
  977TIP3    H224491   5.274   5.840   8.002  1.5351  0.4256 -0.2537
  978TIP3   OH224492   5.893   5.399   1.041 -1.0168 -0.0197  0.2767
  978TIP3    H124493   5.927   5.450   1.114 -1.6704 -0.4837  0.9202
  978TIP3    H224494   5.971   5.376   0.990 -0.2457 -1.5151  2.0136
  979TIP3   OH224495   2.816   3.112   0.117  0.1468 -0.3876 -0.7680
  979TIP3    H124496   2.752   3.114   0.046  0.2322  1.4713 -0.8291
  979TIP3    H224497   2.869   3.190   0.105 -0.7268  0.8078  2.0991
  980TIP3   OH224498   2.840   3.898   2.470  0.6739 -0.2744  0.2257
  980TIP3    H124499   2.804   3.891   2.558  2.1401 -0.5132  0.8429
  980TIP3    H224500   2.836   3.991   2.449  0.2709 -0.2243  0.5165
  981TIP3   OH224501   0.466   5.460   8.326  0.3413 -0.3143  0.1197
  981TIP3    H124502   0.506   5.440   8.242 -0.4798  0.8162 -0.5717
  981TIP3    H224503   0.534   5.440   8.391  0.9968 -1.1468 -0.7997
  982TIP3   OH224504   1.414   5.563   0.538  0.0695 -0.5852 -0.0489
  982TIP3    H124505   1.500   5.573   0.579 -0.4174  2.6581  0.4160
  982TIP3    H224506   1.364   5.511   0.602  1.2030 -1.2040  0.3802
  983TIP3   OH224507   3.681   4.627   7.817  0.0635  0.3276  0.5662
  983TIP3    H124508   3.757   4.640   7.760 -0.3543  0.6734  0.0845
  983TIP3    H224509   3.606   4.654   7.765 -0.4841 -0.7594  0.7534
  984TIP3   OH224510   0.705   3.981   2.213  0.3921  0.2787  0.1482
  984TIP3    H124511   0.697   3.902   2.267 -0.0602 -0.0919 -0.4439
  984TIP3    H224512   0.679   4.052   2.271 -0.5282 -0.1620  0.2994
  985TIP3   OH224513   5.744   0.577   0.313  0.8969 -0.2211 -0.3119
  985TIP3    H124514   5.682   0.505   0.297  0.5471  0.0779 -0.3254
  985TIP3    H224515   5.703   0.653   0.272  1.0782  0.0702  0.0447
  986TIP3   OH224516   5.129   2.487   8.667 -0.1550 -0.4899  0.3929
  986TIP3    H124517   5.170   2.404   8.692  0.0064 -0.4568  0.2455
  986TIP3    H224518   5.110   2.477   8.574  0.4916 -0.1052  0.2157
  987TIP3   OH224519   6.012   3.836   2.196  0.1549 -0.1771  0.0500
  987TIP3    H124520   5.940   3.840   2.133 -1.5489  0.1851  1.9044
  987TIP3    H224521   6.024   3.927   2.223  2.8146  0.1054 -1.7285
  988TIP3   OH224522   5.992   1.754   1.343 -0.2815 -0.0515 -0.4937
  988TIP3    H124523   6.032   1.744   1.256 -0.9822  0.8894 -0.9444
  988TIP3    H224524   6.025   1.837   1.376 -0.4627 -0.1311 -0.1000
  989TIP3   OH224525   3.649   1.932   0.322 -0.1301 -0.2135  0.3221
  989TIP3    H124526   3.690   2.014   0.349 -1.1380  0.3283  0.2335
  989TIP3    H224527   3.563   1.957   0.289 -0.9288 -1.4258  1.3746
  990TIP3   OH224528   1.852   3.032   8.371 -0.3395 -0.2152  0.2614
  990TIP3    H124529   1.767   2.991   8.383  0.3724 -1.1594  2.6886
  990TIP3    H224530   1.897   3.021   8.455  1.4940  1.9063 -0.3274
  991TIP3   OH224531   3.900   1.541   0.044 -0.1160 -0.9188  0.1971
  991TIP3    H124532   3.974   1.563   0.100 -0.6684  2.0709 -0.1017
  991TIP3    H224533   3.934   1.475  -0.016  2.1069 -0.0991  0.4875
  992TIP3   OH224534   0.521   4.741   1.283 -0.3272 -0.2524  0.0029
  992TIP3    H124535   0.581   4.673   1.252 -0.9760 -1.3397  1.0360
  992TIP3    H224536   0.576   4.818   1.294  0.4846 -0.6825 -0.9491
  993TIP3   OH224537   5.859   4.219   7.662 -0.1433  0.9983 -0.2839
  993TIP3    H124538   5.947   4.211   7.698 -0.6347  0.9050  0.9417
  993TIP3    H224539   5.804   4.242   7.737 -1.4980 -0.9526 -0.6103
  994TIP3   OH224540   0.686   4.526   7.224 -0.5892 -0.1990 -0.1080
  994TIP3    H124541   0.699   4.432   7.232 -1.8837 -0.4952 -1.1234
  994TIP3    H224542   0.603   4.535   7.178 -0.4160  1.4457 -0.1648
  995TIP3   OH224543   1.794   2.836   0.846 -0.0187  0.4862  0.0466
  995TIP3    H124544   1.706   2.826   0.811 -0.2500  1.2229  0.4038
  995TIP3    H224545   1.788   2.808   0.937  0.2834 -0.1448 -0.1198
  996TIP3   OH224546   4.879   3.433   1.133  0.6590  0.1410 -0.4096
  996TIP3    H124547   4.829   3.465   1.208  0.5424 -0.2453 -0.3244
  996TIP3    H224548   4.870   3.503   1.068  2.1836  1.2834  0.5317
  997TIP3   OH224549   0.036   3.775   8.222  0.0729 -0.2649 -0.0959
  997TIP3    H124550  -0.024   3.776   8.296  0.2146  0.8032  0.0262
  997TIP3    H224551   0.121   3.751   8.260  0.0527 -0.1595  0.0169
  998TIP3   OH224552   4.149   5.938   1.742 -0.0096  0.1710 -0.3965
  998TIP3    H124553   4.222   5.957   1.683 -0.1951  0.2640 -0.5977
  998TIP3    H224554   4.136   6.019   1.792 -2.0790  1.3198 -2.6204
  999TIP3   OH224555   3.153   1.107   1.711 -0.1884  0.6272  0.0116
  999TIP3    H124556   3.117   1.120   1.798 -1.2670 -1.3601 -0.1056
  999TIP3    H224557   3.247   1.124   1.722 -0.1010 -0.7033  1.8415
 1000TIP3   OH224558   3.999   4.087   8.579 -0.3001  0.5702  0.0854
 1000TIP3    H124559   3.936   4.056   8.644 -1.7174  0.7621 -1.1452
 1000TIP3    H224560   4.047   4.008   8.554  1.3071  0.7235  2.3701
 1001TIP3   OH224561   6.476   1.295   2.131  0.3023  0.3593  0.1054
 1001TIP3    H124562   6.451   1.234   2.061  0.1930  1.8307 -1.1987
 1001TIP3    H224563   6.423   1.269   2.206  1.8628 -2.5374  0.3403
 1002TIP3   OH224564   2.767   2.072   0.406  0.3917  0.4358 -0.4441
 1002TIP3    H124565   2.715   2.000   0.443 -1.8333  2.1372 -0.0367
 1002TIP3    H224566   2.844   2.077   0.462 -0.7233  0.0432  1.2105
 1003TIP3   OH224567   5.575   2.521   0.965  0.3672  0.3185  0.0373
 1003TIP3    H124568   5.539   2.432   0.960 -0.2924  0.6442 -1.6797
 1003TIP3    H224569   5.499   2.576   0.981  0.7445  0.6213  0.8505
 1004TIP3   OH224570   0.073   5.983   2.740 -0.7186 -0.2132  0.0570
 1004TIP3    H124571   0.024   5.922   2.796 -1.2759  0.4400  0.2918
 1004TIP3    H224572   0.016   5.999   2.665  0.0201 -1.0716 -0.7243
 1005TIP3   OH224573   5.712   6.474   8.172  0.1736 -0.2806  0.3141
 1005TIP3    H124574   5.679   6.398   8.221  0.0880  1.1658  2.6545
 1005TIP3    H224575   5.646   6.489   8.104 -0.9360 -0.9872  1.1948
 1006TIP3   OH224576   2.455   4.537   7.582 -0.3857  0.0261  0.8052
 1006TIP3    H124577   2.507   4.470   7.537  0.6024  2.0121 -1.2076
 1006TIP3    H224578   2.369   4.497   7.594  0.2333 -1.6693 -0.0917
 1007TIP3   OH224579   6.361   2.212   8.813 -0.4932  0.6368 -0.2667
 1007TIP3    H124580   6.438   2.223   8.757  0.0644 -2.7059 -0.3864
 1007TIP3    H224581   6.325   2.300   8.822  1.9839  1.9814 -2.1329
 1008TIP3   OH224582   1.405   0.456   1.518 -0.1796 -0.6920  0.1349
 1008TIP3    H124583   1.328   0.508   1.543  0.8930  0.4946  1.1283
 1008TIP3    H224584   1.388   0.430   1.427 -1.6908 -0.3650  0.3011
 1009TIP3   OH224585   4.831   5.455   7.561  0.4020  0.1598 -0.2287
 1009TIP3    H124586   4.911   5.407   7.584  0.0007 -0.4325 -0.0209
 1009TIP3    H224587   4.860   5.523   7.501  1.0884  0.0602 -0.0188
 1010TIP3   OH224588   5.124   5.387   0.514  0.2079  0.1602  0.1829
 1010TIP3    H124589   5.169   5.387   0.430  0.8520  0.4963  0.5262
 1010TIP3    H224590   5.087   5.299   0.521  4.1249 -1.5793  1.6609
 1011TIP3   OH224591   5.954   2.873   0.489  0.6110  0.5487 -0.6641
 1011TIP3    H124592   5.879   2.904   0.540  2.0184  2.4638  0.3627
 1011TIP3    H224593   5.998   2.811   0.547  0.6250  0.5281 -0.6967
 1012TIP3   OH224594   3.752   6.767   1.350  0.0975  0.2731  0.3433
 1012TIP3    H124595   3.665   6.797   1.324 -0.1877  0.2606  1.2738
 1012TIP3    H224596   3.810   6.803   1.283 -0.4873  1.1697  0.2980
 1013TIP3   OH224597   5.511   3.484   2.333  0.1077 -0.0564  0.2094
 1013TIP3    H124598   5.544   3.402   2.298  0.2038  0.7669 -1.7728
 1013TIP3    H224599   5.455   3.520   2.263 -0.3414  1.3163  1.2120
 1014TIP3   OH224600   3.468   3.859   1.527 -0.1175  0.5701 -0.2270
 1014TIP3    H124601   3.419   3.941   1.537 -1.9181 -0.3430 -1.0272
 1014TIP3    H224602   3.560   3.886   1.522 -0.4708  2.3412  1.6429
 1015TIP3   OH224603   6.419   2.515   0.029  0.1139 -0.1811 -0.0374
 1015TIP3    H124604   6.423   2.591   0.087 -0.2844  0.4905 -0.8696
 1015TIP3    H224605   6.389   2.551  -0.055 -0.9729 -1.3915 -0.1946
 1016TIP3   OH224606   5.339   1.611   0.884 -0.0609  0.1934 -0.5094
 1016TIP3    H124607   5.354   1.688   0.830  1.0720 -0.8563 -1.7467
 1016TIP3    H224608   5.425   1.591   0.922 -0.1305 -0.9432 -0.8993
 1017TIP3   OH224609   4.588   1.751   0.198 -0.4488  0.1740  0.1029
 1017TIP3    H124610   4.601   1.834   0.151  0.2075  0.7441  1.2520
 1017TIP3    H224611   4.607   1.683   0.133 -0.8557  0.9181 -0.8170
 1018TIP3   OH224612   6.778   2.327   2.047 -0.0723 -0.2358 -0.0179
 1018TIP3    H124613   6.842   2.263   2.078 -0.2088 -0.5954 -0.4599
 1018TIP3    H224614   6.818   2.412   2.064  0.2158 -0.4417  0.3522
 1019TIP3   OH224615   0.891   3.339   1.562 -0.4560 -0.1416 -0.3398
 1019TIP3    H124616   0.846   3.413   1.603  1.1372  0.8791 -0.3334
 1019TIP3    H224617   0.820   3.281   1.533 -1.8381  1.8474 -1.2401
 1020TIP3   OH224618   2.665   2.682   7.919 -0.4002  0.0144 -0.1926
 1020TIP3    H124619   2.680   2.618   7.849  0.0211  0.4134 -0.4699
 1020TIP3    H224620   2.570   2.692   7.923 -0.3944  0.6347 -1.2968
 1021TIP3   OH224621   2.740   2.536   2.059 -0.3826 -0.2019 -0.2864
 1021TIP3    H124622   2.733   2.613   2.116 -1.6702  1.0238 -1.9921
 1021TIP3    H224623   2.831   2.538   2.029  0.1555 -0.5468  1.2401
 1022TIP3   OH224624   6.366   2.792   7.600  0.2826  0.7682  0.1735
 1022TIP3    H124625   6.390   2.867   7.546  1.2096  0.0407 -0.4656
 1022TIP3    H224626   6.383   2.716   7.544  1.3663 -0.0174  1.4983
 1023TIP3   OH224627   4.858   4.750   8.719 -0.1304 -0.7673  0.6420
 1023TIP3    H124628   4.780   4.695   8.725 -0.9865  0.5019  1.7228
 1023TIP3    H224629   4.930   4.689   8.708 -1.1439 -2.0501  0.9249
 1024TIP3   OH224630   5.185   1.062   0.443  0.0561 -0.6975  0.2446
 1024TIP3    H124631   5.164   0.971   0.466  0.1908 -1.1244 -1.2085
 1024TIP3    H224632   5.140   1.077   0.360  2.0505 -0.2839 -0.8266
 1025TIP3   OH224633   0.766   5.432   1.869  0.0773  0.0483 -0.0452
 1025TIP3    H124634   0.673   5.439   1.890  0.3777 -0.3255  1.5970
 1025TIP3    H224635   0.771   5.362   1.803 -0.6530 -1.3746  1.3315
 1026TIP3   OH224636   1.011   4.473   2.920  0.1747 -0.6781 -0.3933
 1026TIP3    H124637   1.085   4.482   2.979  0.1176 -3.0792  0.1755
 1026TIP3    H224638   1.040   4.409   2.854 -0.5270  0.2688 -1.6693
 1027TIP3   OH224639   1.512   3.853   7.931 -0.1690  0.1481 -0.6043
 1027TIP3    H124640   1.515   3.799   8.011 -0.3178 -2.1577 -2.0629
 1027TIP3    H224641   1.555   3.799   7.865  1.9183  2.8913 -1.6631
 1028TIP3   OH224642   3.212   5.473   2.347  0.6825 -0.2985 -0.1579
 1028TIP3    H124643   3.185   5.563   2.332 -1.2543 -0.2725  2.6243
 1028TIP3    H224644   3.281   5.457   2.283 -0.0771  2.5705 -1.8633
 1029TIP3   OH224645   2.152   6.388   2.370  0.5569 -0.3813 -0.5030
 1029TIP3    H124646   2.219   6.397   2.302  0.1425  3.9128 -0.6358
 1029TIP3    H224647   2.201   6.383   2.452  1.0784  0.4562 -0.7529
 1030TIP3   OH224648   0.767   5.499   0.846 -0.0358 -0.0149  0.2451
 1030TIP3    H124649   0.816   5.509   0.927  1.0849 -0.4424 -0.3601
 1030TIP3    H224650   0.727   5.412   0.853  0.5375 -0.2951  0.1004
 1031TIP3   OH224651   5.048   3.856   2.200  0.4079  0.4177  0.3597
 1031TIP3    H124652   5.139   3.864   2.229  1.3968  1.9005 -2.6989
 1031TIP3    H224653   5.020   3.946   2.183 -0.3437 -0.2108 -2.1199
 1032TIP3   OH224654   2.788   0.808   0.379  0.3481  0.7513 -0.1560
 1032TIP3    H124655   2.880   0.818   0.403  0.1267  0.3485  0.9138
 1032TIP3    H224656   2.742   0.797   0.462 -0.7545  1.5356 -0.6278
 1033TIP3   OH224657   4.805   6.218   8.374 -0.4451 -0.1175 -0.3034
 1033TIP3    H124658   4.717   6.251   8.391 -0.6055  0.0344 -1.3676
 1033TIP3    H224659   4.793   6.124   8.359 -0.2814 -0.2812  0.4960
 1034TIP3   OH224660   5.968   3.212   2.244  0.2920 -0.8000 -0.1004
 1034TIP3    H124661   6.021   3.278   2.290 -0.2116 -0.5526  0.1440
 1034TIP3    H224662   5.897   3.193   2.305 -0.0555 -0.9131 -0.5345
 1035TIP3   OH224663   3.448   6.794   1.680 -0.0926 -0.2442  0.3234
 1035TIP3    H124664   3.465   6.715   1.731 -0.7916 -1.0356 -0.6406
 1035TIP3    H224665   3.388   6.766   1.611  0.1656  0.9886 -0.4280
 1036TIP3   OH224666   3.674   2.090   1.901  0.4368 -0.3366 -0.1802
 1036TIP3    H124667   3.625   2.158   1.854 -0.2576  0.2656  1.3617
 1036TIP3    H224668   3.622   2.011   1.890 -1.2563  0.3989  1.8545
 1037TIP3   OH224669   2.039   0.044   7.610  0.8652  0.6207 -0.0951
 1037TIP3    H124670   2.020  -0.022   7.677  1.5057 -0.9493 -1.3726
 1037TIP3    H224671   2.019  -0.000   7.527  0.3168  2.4205 -0.9750
 1038TIP3   OH224672   0.305   5.953   8.702 -0.0528 -0.0322  0.0436
 1038TIP3    H124673   0.319   5.858   8.695 -0.4377  0.0628 -3.9934
 1038TIP3    H224674   0.216   5.967   8.672  0.6576  1.7528 -1.3952
 1039TIP3   OH224675   5.690   1.021   1.969  0.3879 -0.0859  0.0852
 1039TIP3    H124676   5.594   1.020   1.963  0.4569 -0.6418 -1.1046
 1039TIP3    H224677   5.713   1.114   1.971 -0.1222  0.0578 -0.5799
 1040TIP3   OH224678   3.180   1.932   7.627 -0.4385 -0.2022  0.3618
 1040TIP3    H124679   3.178   1.916   7.533 -1.4854  0.1938  0.3072
 1040TIP3    H224680   3.167   2.026   7.636 -2.9685 -0.5460  0.9636
 1041TIP3   OH224681   1.097   1.409   8.021  0.3059  0.4155 -0.1828
 1041TIP3    H124682   1.044   1.337   8.055 -0.2170  0.8048 -0.1485
 1041TIP3    H224683   1.104   1.470   8.094  2.9331 -0.7484  0.6266
 1042TIP3   OH224684   4.831   5.595   1.926  0.0447 -0.6688 -0.2500
 1042TIP3    H124685   4.904   5.611   1.987  1.7143  0.5470 -2.4085
 1042TIP3    H224686   4.862   5.523   1.870 -0.3753 -0.1117 -1.2205
 1043TIP3   OH224687   0.831   1.472   7.821 -0.6041 -0.0809  0.5319
 1043TIP3    H124688   0.898   1.445   7.884  0.7343 -1.6035 -1.4309
 1043TIP3    H224689   0.786   1.391   7.798 -0.3056  0.2278 -1.2714
 1044TIP3   OH224690   2.451   1.826   1.508 -0.0011 -0.2149 -0.6175
 1044TIP3    H124691   2.412   1.898   1.557 -0.8737 -0.8565 -0.3359
 1044TIP3    H224692   2.522   1.866   1.459  0.7235  0.5055  0.9466
 1045TIP3   OH224693   1.464   2.558   3.079  0.5662 -0.7108  0.2724
 1045TIP3    H124694   1.539   2.517   3.036  0.6538 -0.9422  0.6411
 1045TIP3    H224695   1.400   2.570   3.009  0.2150 -2.2401  0.3017
 1046TIP3   OH224696   1.106   5.075   7.633 -0.5097 -0.5850 -0.5027
 1046TIP3    H124697   1.019   5.099   7.601 -0.5903  0.1272  0.2328
 1046TIP3    H224698   1.089   5.018   7.708 -0.3327 -0.9202 -0.7152
 1047TIP3   OH224699   6.282   4.930   1.987 -0.1774  0.2404  0.3529
 1047TIP3    H124700   6.337   5.007   1.976 -0.4139  0.2885 -0.5386
 1047TIP3    H224701   6.284   4.885   1.902 -1.3601  0.1520  0.3482
 1048TIP3   OH224702   3.380   1.388   2.733 -0.5470 -0.0246  0.7009
 1048TIP3    H124703   3.295   1.364   2.694 -1.0727 -0.5654  2.1229
 1048TIP3    H224704   3.357   1.447   2.805  0.4440  1.3542 -0.0776
 1049TIP3   OH224705   6.178   3.550   8.752  0.0356 -0.1427 -0.7223
 1049TIP3    H124706   6.192   3.561   8.846  0.1090  0.2381 -0.7755
 1049TIP3    H224707   6.087   3.575   8.738  0.6443  2.0573 -1.0841
 1050TIP3   OH224708   0.540   2.783   8.252  0.2409  0.7613  0.2477
 1050TIP3    H124709   0.477   2.839   8.298  0.1735  0.5573  0.4063
 1050TIP3    H224710   0.530   2.806   8.160 -1.5182 -0.6923  0.0141
 1051TIP3   OH224711   5.224   1.549   8.015  0.2458  0.0449 -0.4243
 1051TIP3    H124712   5.294   1.565   7.952  0.8693 -1.3682 -0.1308
 1051TIP3    H224713   5.256   1.477   8.069 -0.4353  0.9623  1.2686
 1052TIP3   OH224714   1.278   0.909   7.439  0.5523  0.3037 -0.1532
 1052TIP3    H124715   1.273   0.815   7.453  3.6316  0.0228 -0.1640
 1052TIP3    H224716   1.258   0.948   7.524  0.0821 -0.3879  0.0550
 1053TIP3   OH224717   3.005   3.514   1.098  0.2986 -0.6852  0.7807
 1053TIP3    H124718   3.059   3.560   1.162 -1.2585  0.5936  1.2494
 1053TIP3    H224719   2.947   3.582   1.063  2.9660 -0.5242 -4.3273
 1054TIP3   OH224720   5.425   4.616   2.657  0.1566  0.2923  0.2641
 1054TIP3    H124721   5.472   4.699   2.669  1.7326 -0.7356  1.6277
 1054TIP3    H224722   5.486   4.560   2.609 -1.2288  0.1476 -1.4333
 1055TIP3   OH224723   4.799   4.591   8.131  0.1334  0.1269 -0.5449
 1055TIP3    H124724   4.874   4.587   8.072  0.0307  2.4101 -0.9014
 1055TIP3    H224725   4.757   4.675   8.111 -2.5056 -1.0316 -0.3281
 1056TIP3   OH224726   6.457   4.976   1.602 -0.3926 -0.2457 -0.2062
 1056TIP3    H124727   6.378   5.013   1.563  0.1037 -0.6053 -1.6339
 1056TIP3    H224728   6.522   5.046   1.594 -0.1280 -0.5300 -0.6121
 1057TIP3   OH224729   6.783   1.956   7.051  0.3711  0.4398  0.0383
 1057TIP3    H124730   6.838   1.899   7.104  1.9189  0.9469 -0.9548
 1057TIP3    H224731   6.780   1.914   6.965 -1.2493  0.1624  0.1904
 1058TIP3   OH224732   5.402   4.279   8.349 -0.1887  0.3522 -0.5556
 1058TIP3    H124733   5.339   4.303   8.280 -1.0050 -0.2121 -0.0278
 1058TIP3    H224734   5.468   4.227   8.304 -0.6308  0.1217 -0.9497
 1059TIP3   OH224735   5.350   5.826   1.060 -0.1292  0.4076 -0.1287
 1059TIP3    H124736   5.321   5.825   0.968 -1.6593  0.4715  0.3218
 1059TIP3    H224737   5.445   5.812   1.055 -0.3569 -1.0281 -1.6593
 1060TIP3   OH224738   6.165   1.532   3.049  0.0410  0.4330 -0.0307
 1060TIP3    H124739   6.173   1.475   2.973  0.8948  2.1092 -1.2735
 1060TIP3    H224740   6.093   1.494   3.100  0.5324 -1.6761 -0.7943
 1061TIP3   OH224741   4.128   2.979   0.798  0.2919 -0.0430 -0.7819
 1061TIP3    H124742   4.044   2.971   0.844  0.6103 -1.8206 -0.4358
 1061TIP3    H224743   4.119   3.059   0.746 -1.3254  0.2190 -0.1632
 1062TIP3   OH224744   2.183   4.212   1.267  0.3681 -0.6585  0.3265
 1062TIP3    H124745   2.244   4.259   1.324 -0.0883  0.3290  0.0182
 1062TIP3    H224746   2.203   4.242   1.179  1.4609 -2.6159 -0.1468
 1063TIP3   OH224747   1.116   2.357   3.379  0.7396 -0.7422  0.1094
 1063TIP3    H124748   1.118   2.310   3.462  0.2556 -1.5131 -0.3007
 1063TIP3    H224749   1.033   2.404   3.379 -0.5828 -2.8776 -1.0334
 1064TIP3   OH224750   3.736   0.270   7.767  0.4379 -0.1767 -0.1131
 1064TIP3    H124751   3.706   0.219   7.692 -0.3275  1.0242 -0.6371
 1064TIP3    H224752   3.792   0.338   7.730  1.5653 -0.6790  0.5989
 1065TIP3   OH224753   0.275   0.583   7.544 -0.2488  0.1486  0.0540
 1065TIP3    H124754   0.201   0.547   7.592 -0.4582  0.3839 -0.0929
 1065TIP3    H224755   0.267   0.546   7.456 -1.5847  2.0688 -0.6804
 1066TIP3   OH224756   6.156   0.483   0.101 -0.1340  0.2305  0.3547
 1066TIP3    H124757   6.148   0.396   0.063 -0.2632 -0.0974  1.1207
 1066TIP3    H224758   6.107   0.478   0.183 -0.5603  1.1692  0.1722
 1067TIP3   OH224759   2.418   0.843   0.008 -0.2856 -0.0519 -0.3915
 1067TIP3    H124760   2.394   0.822   0.098  0.1739 -0.7518 -0.4271
 1067TIP3    H224761   2.505   0.804  -0.003  0.5783  1.7876 -0.4843
 1068TIP3   OH224762   2.771   3.020   8.459 -0.2117 -0.0750 -0.2134
 1068TIP3    H124763   2.784   3.089   8.394  0.4223 -0.1988 -0.2166
 1068TIP3    H224764   2.856   3.008   8.500  0.5137 -2.8681 -2.1892
 1069TIP3   OH224765   0.994   6.137   0.568  0.9696  0.0304  0.3909
 1069TIP3    H124766   0.919   6.080   0.580 -0.4173  1.3169 -1.6198
 1069TIP3    H224767   1.059   6.082   0.524 -0.8379  0.2051 -2.7837
 1070TIP3   OH224768   0.384   4.969   0.933 -0.3152 -0.0309 -0.0014
 1070TIP3    H124769   0.409   5.061   0.938  0.5288 -0.2438 -0.1311
 1070TIP3    H224770   0.326   4.956   1.008 -1.0244  0.7671 -0.3901
 1071TIP3   OH224771   0.571   3.591   0.286  0.1623 -0.3218  0.2821
 1071TIP3    H124772   0.597   3.500   0.300  0.0763 -0.4103 -0.1067
 1071TIP3    H224773   0.652   3.641   0.293 -0.1281 -0.0885  3.1135
 1072TIP3   OH224774   5.762   4.829   8.419 -0.1137 -0.3679  0.0449
 1072TIP3    H124775   5.798   4.777   8.347  0.5001 -0.8732  0.7078
 1072TIP3    H224776   5.684   4.781   8.447  0.3625 -0.8621  0.5505
 1073TIP3   OH224777   5.973   1.299   0.201  0.6316  0.1604  0.5140
 1073TIP3    H124778   5.882   1.326   0.204  1.2611  2.5140  3.5694
 1073TIP3    H224779   5.981   1.233   0.270  1.0822 -0.8258 -0.4447
 1074TIP3   OH224780   3.380   6.364   1.380 -0.3254  0.7203  0.3280
 1074TIP3    H124781   3.421   6.302   1.319 -1.8954 -1.7064  1.6020
 1074TIP3    H224782   3.452   6.392   1.436  0.2626 -0.8361  0.4130
 1075TIP3   OH224783   4.294   3.113   7.023 -0.3033 -0.0314  0.5101
 1075TIP3    H124784   4.234   3.059   7.074 -1.0551  1.5138  1.3085
 1075TIP3    H224785   4.369   3.126   7.081  0.5272 -1.3537 -0.2161
 1076TIP3   OH224786   3.344   2.184   7.464 -0.2620 -0.2812  0.2375
 1076TIP3    H124787   3.297   2.257   7.424 -0.5064 -1.5783 -2.0172
 1076TIP3    H224788   3.318   2.107   7.413  0.9862 -1.7469  1.6818
 1077TIP3   OH224789   2.405   3.735   7.413  0.1203 -0.1110 -0.2395
 1077TIP3    H124790   2.444   3.792   7.346  1.5187 -0.4637  0.2391
 1077TIP3    H224791   2.453   3.652   7.404 -1.0953 -0.8527 -0.1567
 1078TIP3   OH224792   6.632   3.496   6.807  0.7384  0.5943 -0.3735
 1078TIP3    H124793   6.674   3.579   6.786  1.0662  0.4710 -0.2074
 1078TIP3    H224794   6.538   3.513   6.796  0.7587  1.1576  0.2211
 1079TIP3   OH224795   0.625   6.414   0.983  0.5814  0.0274 -0.2615
 1079TIP3    H124796   0.624   6.336   1.038 -0.7167 -1.3165 -2.0844
 1079TIP3    H224797   0.686   6.393   0.912 -2.0991 -0.6953 -2.4957
 1080TIP3   OH224798   0.042   2.099   3.003  0.2006  0.7308  0.0179
 1080TIP3    H124799  -0.020   2.126   3.071  0.2094 -0.5330  0.5607
 1080TIP3    H224800   0.078   2.181   2.969 -1.6570  1.4899 -0.2148
 1081TIP3   OH224801   5.754   4.260   7.922 -0.6069  0.1557 -0.1051
 1081TIP3    H124802   5.663   4.232   7.929 -0.2042 -1.1607  0.1123
 1081TIP3    H224803   5.804   4.191   7.966  0.5725  0.3588 -1.0694
 1082TIP3   OH224804   4.702   0.019   1.191  0.0784  0.1180 -0.8647
 1082TIP3    H124805   4.752  -0.062   1.186 -1.5731 -0.9673 -0.6597
 1082TIP3    H224806   4.642   0.016   1.117  1.0237  1.9319 -1.7706
 1083TIP3   OH224807   6.196   6.428   8.430  0.2953  0.5285 -0.1953
 1083TIP3    H124808   6.212   6.367   8.502  3.2375 -0.5697 -1.6266
 1083TIP3    H224809   6.206   6.375   8.351 -1.8523  1.9054 -1.4954
 1084TIP3   OH224810   4.918   0.005   8.081 -0.2548 -0.4341  0.8044
 1084TIP3    H124811   4.954  -0.078   8.051  1.2212  0.9104 -1.4130
 1084TIP3    H224812   4.835   0.015   8.035 -1.2270 -1.3223  2.2669
 1085TIP3   OH224813   1.929   4.584   6.979  0.0396  0.1547  0.1538
 1085TIP3    H124814   1.897   4.632   6.903 -1.4080  0.1447  0.7291
 1085TIP3    H224815   1.895   4.495   6.968 -1.1833  0.4376  1.3629
 1086TIP3   OH224816   6.334   0.795   7.211 -0.5696  0.7931  0.1754
 1086TIP3    H124817   6.295   0.724   7.160  1.1684 -0.1153  0.0243
 1086TIP3    H224818   6.268   0.864   7.210 -0.7651  0.7422 -3.1023
 1087TIP3   OH224819   1.022   1.191   2.257 -0.3309 -0.1150  0.0015
 1087TIP3    H124820   1.113   1.207   2.280 -0.2937 -0.3393  0.0123
 1087TIP3    H224821   0.997   1.266   2.203 -0.2044  0.0536  0.1770
 1088TIP3   OH224822   3.851   4.614   7.588 -0.0852 -0.8164  0.8835
 1088TIP3    H124823   3.795   4.563   7.530  1.3503 -1.9887  0.4777
 1088TIP3    H224824   3.934   4.621   7.542  0.2244  0.6466  1.5910
 1089TIP3   OH224825   1.248   1.856   2.722  0.1686 -0.0816 -0.3246
 1089TIP3    H124826   1.229   1.945   2.692  0.1415 -0.5368 -1.7233
 1089TIP3    H224827   1.221   1.855   2.814 -1.1209  0.9614 -0.6640
 1090TIP3   OH224828   0.659   1.745   7.145  0.0086 -0.4029  0.0665
 1090TIP3    H124829   0.717   1.697   7.086 -1.8413 -0.1454 -2.0890
 1090TIP3    H224830   0.715   1.813   7.184  1.3059 -0.5701 -1.4269
 1091TIP3   OH224831   1.928   0.465   8.406  0.0022  0.4936 -0.0840
 1091TIP3    H124832   1.889   0.546   8.440 -0.8127  0.4041 -0.7942
 1091TIP3    H224833   1.881   0.448   8.325 -1.0968 -1.6590  0.9116
 1092TIP3   OH224834   2.663   0.047   0.604  0.0020  0.2326 -0.0760
 1092TIP3    H124835   2.616  -0.022   0.651  0.8162 -1.0486 -1.0532
 1092TIP3    H224836   2.596   0.111   0.581 -0.6074  0.3156  1.7569
 1093TIP3   OH224837   3.300   2.418   8.364 -0.0331 -0.5236  0.4812
 1093TIP3    H124838   3.281   2.331   8.398 -1.2021 -0.4805 -0.0050
 1093TIP3    H224839   3.228   2.473   8.396 -2.4413 -0.8832 -3.5539
 1094TIP3   OH224840   4.467   0.696   0.371  0.3315 -0.4313 -0.7159
 1094TIP3    H124841   4.524   0.627   0.404 -0.6072 -0.5504  0.7257
 1094TIP3    H224842   4.458   0.757   0.444 -0.1532  0.3782 -1.4312
 1095TIP3   OH224843   6.564   0.850   7.810  0.1035  0.1207 -0.4931
 1095TIP3    H124844   6.551   0.835   7.904  0.5898 -0.2731 -0.4830
 1095TIP3    H224845   6.598   0.767   7.777  0.2953  0.3771 -0.9487
 1096TIP3   OH224846   0.872   2.484   8.812  0.0216 -0.7115  0.0369
 1096TIP3    H124847   0.818   2.465   8.734 -0.7999 -0.1120  0.4359
 1096TIP3    H224848   0.875   2.402   8.860 -1.8528 -0.4156  0.7727
 1097TIP3   OH224849   6.069   4.316   2.054 -0.5303 -0.3288  0.3357
 1097TIP3    H124850   5.997   4.362   2.012  0.5303  0.4943 -0.6374
 1097TIP3    H224851   6.103   4.378   2.118  2.2574  1.2769 -2.4136
 1098TIP3   OH224852   4.018   4.731   0.625 -0.2027 -0.1130  0.7566
 1098TIP3    H124853   4.084   4.797   0.602 -1.3215  0.7212 -0.2451
 1098TIP3    H224854   3.966   4.722   0.545  0.8302 -3.4034  0.3174
 1099TIP3   OH224855   3.043   0.696   2.626 -0.0583  0.0619 -0.0523
 1099TIP3    H124856   2.963   0.740   2.654 -0.2514 -0.6781  0.5990
 1099TIP3    H224857   3.015   0.637   2.556 -0.2659 -0.8257  0.7448
 1100TIP3   OH224858   4.214   3.396   8.081 -0.2684 -0.1708  0.0579
 1100TIP3    H124859   4.121   3.375   8.073 -0.5832  1.5371 -1.5056
 1100TIP3    H224860   4.224   3.428   8.171 -1.3561  0.3152  0.0230
 1101TIP3   OH224861   6.672   3.825   2.077 -0.0799 -0.1562 -0.5949
 1101TIP3    H124862   6.664   3.759   2.008 -0.8226 -0.0161 -0.6561
 1101TIP3    H224863   6.664   3.776   2.159 -2.0489 -0.0143 -0.6468
 1102TIP3   OH224864   5.887   3.349   1.545 -0.6052  0.2808  0.3824
 1102TIP3    H124865   5.841   3.283   1.597 -0.0520 -0.9577 -0.6372
 1102TIP3    H224866   5.845   3.345   1.459  1.4882 -1.0699 -0.6559
 1103TIP3   OH224867   0.339   1.584   0.462  0.1975  0.0147 -0.0590
 1103TIP3    H124868   0.388   1.658   0.497  2.0546 -1.2052  0.0262
 1103TIP3    H224869   0.257   1.585   0.511  0.8022  1.1297  0.9856
 1104TIP3   OH224870   6.067   1.165   1.274 -0.1499  0.0725  0.0948
 1104TIP3    H124871   6.072   1.258   1.298 -0.2288  0.6732 -2.0035
 1104TIP3    H224872   6.026   1.123   1.349 -0.8157  1.8621  0.7965
 1105TIP3   OH224873   4.607   4.454   2.092 -0.0903  0.3581 -0.2955
 1105TIP3    H124874   4.526   4.405   2.079  0.1056  0.3322 -1.5941
 1105TIP3    H224875   4.650   4.411   2.165 -1.6767  0.9658  1.0730
 1106TIP3   OH224876   1.934   0.947   7.833 -0.3064 -0.0349  0.2372
 1106TIP3    H124877   1.949   0.862   7.790 -0.6938 -0.0597  0.1407
 1106TIP3    H224878   1.940   0.928   7.926 -0.7184 -0.2376  0.2256
 1107TIP3   OH224879   5.085   6.468   0.544  0.2888  0.3375 -0.9666
 1107TIP3    H124880   5.017   6.495   0.484 -1.1710 -1.5539 -0.2757
 1107TIP3    H224881   5.038   6.430   0.619  2.0605  0.9638  0.5562
 1108TIP3   OH224882   1.946   3.655   1.913 -0.5514  0.7974  0.2102
 1108TIP3    H124883   1.947   3.700   1.998  0.5232  1.4226 -0.1142
 1108TIP3    H224884   2.008   3.583   1.924 -2.2052 -0.6213  0.7015
 1109TIP3   OH224885   2.966   2.905   0.240  0.5896  0.2129  0.1499
 1109TIP3    H124886   2.917   2.946   0.169  0.5478 -1.4288 -0.8143
 1109TIP3    H224887   2.937   2.951   0.319  0.4691  1.9186 -0.8508
 1110TIP3   OH224888   2.341   3.959   8.814  0.3789 -0.2472 -0.1017
 1110TIP3    H124889   2.384   3.993   8.893 -0.8053  0.3858  0.3071
 1110TIP3    H224890   2.314   3.870   8.837 -1.5476  0.5258  0.9101
 1111TIP3   OH224891   1.770   0.774   7.052  0.1050  0.4619 -0.5864
 1111TIP3    H124892   1.685   0.816   7.042  0.2907  0.8629 -0.5380
 1111TIP3    H224893   1.795   0.748   6.963 -0.6229 -0.7998 -0.4497
 1112TIP3   OH224894   4.823   5.577   7.007  0.7301 -0.6860 -0.2585
 1112TIP3    H124895   4.898   5.582   7.067  1.0466  1.6703 -0.7429
 1112TIP3    H224896   4.862   5.567   6.920  0.5100  0.2315 -0.4798
 1113TIP3   OH224897   3.454   0.251   1.238  0.0614  0.4534  0.5498
 1113TIP3    H124898   3.544   0.267   1.265  0.3694 -1.6370  0.8919
 1113TIP3    H224899   3.404   0.255   1.319  0.3767 -1.6738  0.9031
 1114TIP3   OH224900   4.062   4.630   0.241  0.1103  0.1153  0.1402
 1114TIP3    H124901   4.136   4.639   0.301  0.6792 -0.4363 -0.4724
 1114TIP3    H224902   4.099   4.645   0.154 -0.1499 -1.7106 -0.3250
 1115TIP3   OH224903   4.762   1.632   7.998  0.2871 -0.0770  0.1873
 1115TIP3    H124904   4.790   1.676   8.078 -0.9166 -0.9134  1.0991
 1115TIP3    H224905   4.819   1.555   7.991  0.5826  0.1508  0.0754
 1116TIP3   OH224906   1.871   5.136   7.684 -0.2109  0.3915 -0.5031
 1116TIP3    H124907   1.847   5.061   7.629  0.9656 -0.1824 -0.2741
 1116TIP3    H224908   1.801   5.200   7.669 -0.5082 -0.1905 -1.8001
 1117TIP3   OH224909   0.529   6.393   7.973  0.4221  0.3120 -0.0805
 1117TIP3    H124910   0.535   6.342   7.892  0.1675 -0.7570  0.5587
 1117TIP3    H224911   0.547   6.483   7.945  1.7215 -0.2155 -1.1083
 1118TIP3   OH224912   4.558   4.815   8.266 -0.5772  0.5001 -0.1346
 1118TIP3    H124913   4.615   4.865   8.325  0.0693  0.0710 -0.3841
 1118TIP3    H224914   4.610   4.805   8.186 -1.0528  0.2020 -0.4067
 1119TIP3   OH224915   3.530   6.569   7.551  0.5404  0.9369  0.2908
 1119TIP3    H124916   3.515   6.620   7.471  0.8458  0.2762 -0.1994
 1119TIP3    H224917   3.442   6.552   7.585  0.1155 -1.6998 -1.7888
 1120TIP3   OH224918   0.355   2.302   7.476  0.1188 -0.0380 -0.1727
 1120TIP3    H124919   0.441   2.273   7.444 -0.5963 -0.6406 -1.6226
 1120TIP3    H224920   0.325   2.232   7.533  1.3506  0.9887  1.8603
 1121TIP3   OH224921   2.074   2.577   6.902  0.2376 -0.4249  0.7732
 1121TIP3    H124922   2.150   2.633   6.887 -1.2107  1.5673  0.4249
 1121TIP3    H224923   2.062   2.530   6.820  0.3239  0.2589  0.3613
 1122TIP3   OH224924   1.663   6.668   0.201  0.8604 -0.2855 -0.0619
 1122TIP3    H124925   1.640   6.592   0.254 -0.7027 -1.1023 -1.7806
 1122TIP3    H224926   1.726   6.634   0.137  0.0118 -0.2124 -0.9567
 1123TIP3   OH224927   3.621   5.504   8.533 -0.2496  0.6249 -0.5859
 1123TIP3    H124928   3.632   5.409   8.532  0.4852  0.4875  3.4686
 1123TIP3    H224929   3.542   5.520   8.481 -1.2743 -2.3753 -0.1416
 1124TIP3   OH224930   3.419   1.747   1.639 -0.2118 -0.1047 -0.7087
 1124TIP3    H124931   3.411   1.760   1.545  0.6592 -1.4028 -0.9865
 1124TIP3    H224932   3.511   1.765   1.658 -0.7850  2.1754  0.2766
 1125TIP3   OH224933   3.360   4.138   1.260  0.2569  0.0092  0.7462
 1125TIP3    H124934   3.450   4.125   1.290  0.1526  1.8552  2.0533
 1125TIP3    H224935   3.368   4.164   1.168  0.8505 -2.0860  0.1491
 1126TIP3   OH224936   5.005   4.628   1.511 -0.4840  0.1849  0.2807
 1126TIP3    H124937   4.965   4.565   1.451 -0.0855 -0.1170  0.3247
 1126TIP3    H224938   5.070   4.576   1.559  0.0835  0.7088  0.0828
 1127TIP3   OH224939   2.493   0.912   2.066  0.3245  0.0326 -0.2442
 1127TIP3    H124940   2.496   1.008   2.061  0.9051  0.0302 -0.0922
 1127TIP3    H224941   2.498   0.883   1.976 -0.4487  0.1514 -0.3320
 1128TIP3   OH224942   1.322   4.974   2.618 -0.1582  0.7892 -0.6178
 1128TIP3    H124943   1.246   4.957   2.562 -1.2728  1.2974  0.6728
 1128TIP3    H224944   1.305   5.061   2.655  1.1244  0.9601 -0.4071
 1129TIP3   OH224945   0.471   1.204   0.803 -0.3229  0.2488 -0.0677
 1129TIP3    H124946   0.511   1.166   0.882 -1.1133  1.3087  0.8656
 1129TIP3    H224947   0.522   1.166   0.731 -0.5547 -1.9473  0.8341
 1130TIP3   OH224948   2.185   2.623   3.074  0.0282 -0.1880 -0.4177
 1130TIP3    H124949   2.217   2.537   3.049  1.5270  0.6912 -1.7060
 1130TIP3    H224950   2.180   2.620   3.170 -1.4908 -2.1862 -0.4985
 1131TIP3   OH224951   6.193   3.424   7.904 -0.0815 -0.0993  0.3988
 1131TIP3    H124952   6.134   3.349   7.909  0.1586 -0.2575  0.9095
 1131TIP3    H224953   6.145   3.496   7.945  0.3227 -0.3897  1.4079
 1132TIP3   OH224954   2.232   5.225   8.058 -0.0698  0.3226  0.9184
 1132TIP3    H124955   2.232   5.321   8.066 -0.0809  0.2119  2.8089
 1132TIP3    H224956   2.251   5.208   7.966 -1.1002  2.1539  0.3169
 1133TIP3   OH224957   3.383   5.028   1.748 -0.4108 -0.5636 -0.1509
 1133TIP3    H124958   3.307   4.970   1.744 -1.5367  0.8094  0.5595
 1133TIP3    H224959   3.382   5.063   1.837 -0.1245  1.0090 -0.7334
 1134TIP3   OH224960   5.170   5.652   2.651 -0.1950  0.9037 -0.2329
 1134TIP3    H124961   5.257   5.620   2.625 -0.3853 -0.5312  0.7734
 1134TIP3    H224962   5.112   5.577   2.638 -1.1150  1.5722 -0.0474
 1135TIP3   OH224963   4.297   5.375   7.942 -0.4500 -0.1572 -0.3381
 1135TIP3    H124964   4.291   5.386   7.847 -0.2436  0.7355 -0.2612
 1135TIP3    H224965   4.342   5.292   7.955 -2.8189 -1.6612 -0.9968
 1136TIP3   OH224966   1.458   2.403   3.318  0.2466  0.0937 -0.5039
 1136TIP3    H124967   1.460   2.468   3.248  1.3594  1.1474  0.4539
 1136TIP3    H224968   1.365   2.387   3.333 -0.0511  1.3065 -0.9214
 1137TIP3   OH224969   0.907   1.011   1.849 -0.3175 -0.3157 -0.2882
 1137TIP3    H124970   0.823   1.055   1.856 -0.3481 -0.1902 -1.2675
 1137TIP3    H224971   0.901   0.961   1.767  1.1265  0.9988 -1.2715
 1138TIP3   OH224972   5.148   5.347   1.099 -0.4058  0.2853  0.1175
 1138TIP3    H124973   5.095   5.427   1.097 -2.9228 -1.2614  0.4779
 1138TIP3    H224974   5.122   5.304   1.181  1.5858 -0.4975  0.3940
 1139TIP3   OH224975   3.793   3.520   1.530 -0.1050 -0.2335  0.7596
 1139TIP3    H124976   3.859   3.466   1.487 -0.1641  0.1609  0.1621
 1139TIP3    H224977   3.732   3.544   1.460 -0.5128 -0.0476  1.1751
 1140TIP3   OH224978   2.385   0.393   8.520  0.6910  0.2703  0.0511
 1140TIP3    H124979   2.315   0.329   8.538  0.0066  0.9525 -0.1175
 1140TIP3    H224980   2.441   0.349   8.456  0.7633 -0.5271  0.6415
 1141TIP3   OH224981   2.134   2.958   1.866  0.4396 -0.0486 -0.3976
 1141TIP3    H124982   2.092   3.039   1.898 -0.4027 -0.3211 -0.7691
 1141TIP3    H224983   2.216   2.988   1.828 -0.2139  0.7702 -1.2446
 1142TIP3   OH224984   5.112   0.480   2.607 -0.4488  0.0460  0.1470
 1142TIP3    H124985   5.044   0.442   2.662  1.4783 -1.4472  1.6503
 1142TIP3    H224986   5.159   0.540   2.665  0.7700 -0.5022 -0.2417
 1143TIP3   OH224987   1.534   5.034   7.924 -0.1109 -0.0328  0.5119
 1143TIP3    H124988   1.539   5.015   8.018 -0.7466  0.1126  0.5767
 1143TIP3    H224989   1.589   4.967   7.883 -0.7117 -0.7710  0.8951
 1144TIP3   OH224990   1.893   4.593   0.098 -0.4265 -0.1557  0.0854
 1144TIP3    H124991   1.818   4.535   0.082  0.8893 -1.6019 -1.2093
 1144TIP3    H224992   1.882   4.664   0.035 -0.7874 -0.3019 -0.0211
 1145TIP3   OH224993   1.335   0.209   8.432  0.1259 -0.1946  0.6226
 1145TIP3    H124994   1.354   0.190   8.523 -2.7638 -2.2073  0.9788
 1145TIP3    H224995   1.317   0.303   8.429  2.0280  0.2439  1.6768
 1146TIP3   OH224996   0.747   5.621   2.133  0.0365 -0.2275 -0.0843
 1146TIP3    H124997   0.684   5.582   2.073 -0.2696  1.8032 -1.1515
 1146TIP3    H224998   0.724   5.714   2.137  3.2643  0.7700 -1.0437
 1147TIP3   OH224999   5.935   6.396   1.765  0.0598 -0.0352  0.5895
 1147TIP3    H125000   5.905   6.429   1.681 -0.3769 -0.1404  0.7020
 1147TIP3    H225001   5.913   6.465   1.828  2.0830  0.8841  0.3608
 1148TIP3   OH225002   4.965   1.695   1.060 -0.0627  0.3728 -0.5749
 1148TIP3    H125003   4.985   1.754   1.133  1.5360  1.4035 -1.7618
 1148TIP3    H225004   4.873   1.712   1.040 -0.7607 -0.4924  1.6261
 1149TIP3   OH225005   3.618   5.302   7.682 -0.0032  0.5722 -0.3194
 1149TIP3    H125006   3.622   5.374   7.619 -1.3377  1.5536  0.6703
 1149TIP3    H225007   3.551   5.243   7.646  1.1343 -0.2443 -1.1620
 1150TIP3   OH225008   6.413   2.310   0.691  0.1896 -0.0254  0.0417
 1150TIP3    H125009   6.499   2.352   0.699  0.0584  0.0040  1.4157
 1150TIP3    H225010   6.417   2.235   0.751 -0.4902 -0.4664 -0.4528
 1151TIP3   OH225011   0.179   6.697   2.709 -0.1841  0.4638 -0.5211
 1151TIP3    H125012   0.231   6.634   2.660  1.3931  1.4149 -0.1243
 1151TIP3    H225013   0.162   6.768   2.648 -2.0140 -0.3008 -0.9859
 1152TIP3   OH225014   3.954   6.223   0.567  0.1433 -0.1906 -0.3862
 1152TIP3    H125015   3.990   6.157   0.508  0.1429 -0.0496 -0.5449
 1152TIP3    H225016   3.893   6.175   0.622  1.1755 -0.5882  0.4347
 1153TIP3   OH225017   2.839   4.554   1.387  0.2440 -0.0851  0.3136
 1153TIP3    H125018   2.907   4.487   1.388  1.3727  0.9817 -0.8257
 1153TIP3    H225019   2.757   4.505   1.385  1.0310 -1.4510 -0.6960
 1154TIP3   OH225020   4.413   1.180   1.092  0.0666  0.1014  0.1186
 1154TIP3    H125021   4.422   1.265   1.049  2.0253  0.4395  1.1222
 1154TIP3    H225022   4.498   1.163   1.131 -0.0298 -2.6651 -0.6280
 1155TIP3   OH225023   5.947   1.620   2.147 -0.5938  0.3639  0.4972
 1155TIP3    H125024   5.868   1.569   2.131 -0.6256  0.8712 -1.1481
 1155TIP3    H225025   6.018   1.555   2.143 -0.5039  0.4950 -2.8470
 1156TIP3   OH225026   2.460   6.221   2.479  0.6462  0.7249  0.4856
 1156TIP3    H125027   2.539   6.273   2.491 -0.4964  2.4580  0.8871
 1156TIP3    H225028   2.403   6.247   2.551 -0.0868 -0.9396  0.5551
 1157TIP3   OH225029   6.243   0.714   1.332 -0.3026 -0.5512 -0.0416
 1157TIP3    H125030   6.261   0.714   1.426 -1.4006 -0.4209  0.1759
 1157TIP3    H225031   6.233   0.621   1.309 -1.4393 -0.5188  0.2630
 1158TIP3   OH225032   5.849   0.872   8.838 -0.1547  0.1264 -0.1044
 1158TIP3    H125033   5.942   0.896   8.846 -0.6926  2.1301  0.8952
 1158TIP3    H225034   5.837   0.854   8.744  0.7513  2.3355 -0.7125
 1159TIP3   OH225035   2.805   6.781   8.332  0.0090 -0.1182  0.1178
 1159TIP3    H125036   2.818   6.827   8.249 -1.1169  0.5272  0.2846
 1159TIP3    H225037   2.771   6.695   8.306 -1.9512  0.6611 -0.0758
 1160TIP3   OH225038   6.167   5.333   1.758 -0.3275  0.2807 -0.5321
 1160TIP3    H125039   6.222   5.409   1.776 -0.5454  0.4739 -0.6710
 1160TIP3    H225040   6.202   5.264   1.814 -1.3112  1.0073  1.0253
 1161TIP3   OH225041   2.898   2.218   7.230 -0.9535  0.4234 -0.5120
 1161TIP3    H125042   2.977   2.230   7.178 -0.3944 -0.3065  0.1567
 1161TIP3    H225043   2.827   2.243   7.170 -0.4181 -1.3826 -2.0218
 1162TIP3   OH225044   5.284   3.695   1.525  0.1643 -0.3038  0.2259
 1162TIP3    H125045   5.221   3.688   1.596 -0.8330  0.8191 -0.5089
 1162TIP3    H225046   5.353   3.632   1.548 -0.5597 -0.6055  1.7117
 1163TIP3   OH225047   3.406   5.874   8.422  0.1937  0.0405  0.5409
 1163TIP3    H125048   3.362   5.916   8.348 -0.9108  0.1606  1.2419
 1163TIP3    H225049   3.438   5.791   8.387  1.1867  0.8470 -0.4985
 1164TIP3   OH225050   3.988   0.026   8.553  0.1340  0.5523  0.4217
 1164TIP3    H125051   4.074   0.010   8.514  0.6395 -0.1754  1.7450
 1164TIP3    H225052   3.975   0.120   8.546 -0.1048  0.3924 -2.0356
 1165TIP3   OH225053   3.791   1.258   7.537  0.3178  0.1520  0.0679
 1165TIP3    H125054   3.712   1.284   7.489  0.8390  1.4115 -0.1464
 1165TIP3    H225055   3.781   1.299   7.622  0.7629  0.3399  0.0275
 1166TIP3   OH225056   0.664   3.734   2.338 -0.2373  0.0454 -0.3349
 1166TIP3    H125057   0.688   3.641   2.338  1.8484  0.4051  2.8842
 1166TIP3    H225058   0.629   3.749   2.426  1.0117  2.5970 -0.1811
 1167TIP3   OH225059   1.497   6.656   1.826  0.2794 -0.0296 -0.3842
 1167TIP3    H125060   1.532   6.577   1.868 -0.8992 -1.5843 -2.1782
 1167TIP3    H225061   1.573   6.713   1.814  1.2895 -1.2149  0.2317
 1168TIP3   OH225062   3.897   4.213   1.266  0.2913 -0.1388  0.8061
 1168TIP3    H125063   3.878   4.276   1.335  1.0253  0.9889  0.0152
 1168TIP3    H225064   3.909   4.266   1.187 -3.0817 -1.5044 -0.8432
 1169TIP3   OH225065   4.369   5.586   8.652  0.6141  0.3597  0.9613
 1169TIP3    H125066   4.422   5.511   8.626  0.7334  0.5008  0.7943
 1169TIP3    H225067   4.281   5.566   8.620  1.0289  1.1173 -0.7268
 1170TIP3   OH225068   0.869   4.367   0.788  0.0113  0.4253  0.2684
 1170TIP3    H125069   0.785   4.351   0.831 -0.1085  1.6608  0.5423
 1170TIP3    H225070   0.880   4.462   0.793  2.0116  0.1909  1.3497
 1171TIP3   OH225071   6.111   5.783   6.711 -0.1163 -0.2536  0.0968
 1171TIP3    H125072   6.057   5.707   6.694 -1.4776  1.0388 -1.7652
 1171TIP3    H225073   6.119   5.827   6.626  1.7576  0.9738  0.8270
 1172TIP3   OH225074   4.760   2.897   0.941 -0.4440  0.7319 -0.0306
 1172TIP3    H125075   4.816   2.960   0.986 -0.6804  1.9011 -1.3014
 1172TIP3    H225076   4.803   2.812   0.956 -0.1910  1.1528  1.8186
 1173TIP3   OH225077   1.742   1.693   1.924 -0.4699  0.1178  0.5408
 1173TIP3    H125078   1.675   1.635   1.888  1.4689 -1.8974 -0.0030
 1173TIP3    H225079   1.752   1.762   1.859  0.8481 -1.8336 -1.4605
 1174TIP3   OH225080   4.025   2.259   8.229 -0.2765 -0.3909 -0.5850
 1174TIP3    H125081   3.966   2.322   8.272 -0.5784 -0.1436 -1.3416
 1174TIP3    H225082   4.081   2.226   8.300 -0.5865  0.2006 -0.0537
 1175TIP3   OH225083   1.988   2.080   2.515 -0.1256 -0.3106 -0.5395
 1175TIP3    H125084   2.019   2.006   2.463  1.2544 -0.6142  0.6684
 1175TIP3    H225085   2.044   2.153   2.489 -0.4119 -0.0886 -0.5452
 1176TIP3   OH225086   6.677   4.851   0.705 -0.3250  0.3101 -0.1906
 1176TIP3    H125087   6.772   4.859   0.695 -0.6042  3.7646 -1.1781
 1176TIP3    H225088   6.655   4.772   0.654  1.6717  1.3364 -2.9111
 1177TIP3   OH225089   5.268   4.756   0.362 -0.5509 -0.0808 -0.2490
 1177TIP3    H125090   5.357   4.786   0.376  0.1378 -2.1524  0.0951
 1177TIP3    H225091   5.267   4.666   0.394 -2.1068 -0.9535 -2.4712
 1178TIP3   OH225092   0.842   1.102   3.114  0.1526 -0.1216 -0.5604
 1178TIP3    H125093   0.884   1.016   3.118  0.9023  0.0944 -2.7733
 1178TIP3    H225094   0.783   1.097   3.039 -2.0301  0.4102  0.9957
 1179TIP3   OH225095   5.512   4.253   2.259  0.0221 -0.6749 -0.4531
 1179TIP3    H125096   5.442   4.285   2.316  0.6292  0.6995 -0.4520
 1179TIP3    H225097   5.467   4.204   2.191 -1.0071  0.7014 -0.7955
 1180TIP3   OH225098   5.150   3.880   1.349 -0.3428  0.2384  0.7956
 1180TIP3    H125099   5.092   3.877   1.273 -0.9418  0.8891  1.2106
 1180TIP3    H225100   5.115   3.815   1.410  0.5206 -0.7447  0.2616
 1181TIP3   OH225101   3.869   0.398   1.425 -0.5029  0.5176 -0.4936
 1181TIP3    H125102   3.959   0.368   1.412 -0.0981  0.8201  1.3472
 1181TIP3    H225103   3.878   0.484   1.465 -1.5721 -0.1017  1.1754
 1182TIP3   OH225104   1.811   1.673   2.275 -0.8296  0.4586  0.6553
 1182TIP3    H125105   1.798   1.587   2.235 -0.0308 -0.1909  1.7270
 1182TIP3    H225106   1.747   1.729   2.233 -0.1909 -0.2385 -1.3298
 1183TIP3   OH225107   6.414   3.217   8.833  0.1272 -0.2670 -0.3633
 1183TIP3    H125108   6.379   3.159   8.901  0.4383 -1.1089 -0.9109
 1183TIP3    H225109   6.477   3.163   8.785  1.8498  1.0657  0.3027
 1184TIP3   OH225110   3.907   4.374   0.932  0.7230 -0.0478 -0.5030
 1184TIP3    H125111   3.908   4.400   0.839  0.7890  0.7248 -0.2914
 1184TIP3    H225112   3.924   4.455   0.980  1.0068 -0.4992  0.1777
 1185TIP3   OH225113   0.969   5.985   2.182 -0.2316  0.4673  0.3294
 1185TIP3    H125114   0.922   5.923   2.127  1.4170 -0.5832  0.0316
 1185TIP3    H225115   1.052   5.998   2.137  1.3660 -0.7835  2.7160
 1186TIP3   OH225116   3.200   4.533   0.906  0.0896 -0.2965 -0.0066
 1186TIP3    H125117   3.169   4.581   0.982  0.0153 -1.7031  0.8788
 1186TIP3    H225118   3.124   4.484   0.875  0.1221  0.2416 -0.9865
 1187TIP3   OH225119   2.242   3.702   0.009 -0.2739 -0.2548  0.0062
 1187TIP3    H125120   2.289   3.722   0.090  1.2983 -0.8342 -0.7377
 1187TIP3    H225121   2.156   3.670   0.039  0.6397 -1.4401  1.5089
 1188TIP3   OH225122   2.494   1.977   1.119  0.5429  0.4551 -0.1327
 1188TIP3    H125123   2.555   2.033   1.070 -0.0062  0.4639 -0.8199
 1188TIP3    H225124   2.512   1.889   1.088 -1.3166  0.6779 -2.0596
 1189TIP3   OH225125   4.854   2.246   0.594  0.2682 -0.2465 -0.1933
 1189TIP3    H125126   4.932   2.212   0.638  0.5678 -0.9745 -1.2523
 1189TIP3    H225127   4.886   2.316   0.538 -0.3118  1.7140  1.7759
 1190TIP3   OH225128   6.070   0.568   0.558  1.0433  0.7874 -0.3014
 1190TIP3    H125129   6.015   0.644   0.573 -0.9704 -0.3813 -1.3527
 1190TIP3    H225130   6.098   0.541   0.645  0.1323  1.5604  0.2520
 1191TIP3   OH225131   0.968   6.209   2.906 -0.0002 -0.0731  0.2335
 1191TIP3    H125132   0.883   6.183   2.870 -0.1748 -0.2422  0.7590
 1191TIP3    H225133   0.954   6.210   3.000  0.5808 -0.0802  0.3193
 1192TIP3   OH225134   3.718   1.739   2.077  0.4089  0.3134  0.9609
 1192TIP3    H125135   3.664   1.808   2.115 -0.5306 -0.4608  1.0461
 1192TIP3    H225136   3.678   1.657   2.106 -0.2039 -0.3200 -1.4119
 1193TIP3   OH225137   4.561   1.787   8.189  0.3313 -0.2889  0.0398
 1193TIP3    H125138   4.545   1.854   8.123  0.5679 -0.5842 -0.3193
 1193TIP3    H225139   4.653   1.796   8.211  0.2854 -0.2808  0.2345
 1194TIP3   OH225140   1.706   0.000   2.440  0.4547 -0.1149 -0.1058
 1194TIP3    H125141   1.682   0.020   2.531  0.0981  0.3386 -0.2969
 1194TIP3    H225142   1.725  -0.094   2.441  1.0323 -0.0055  0.5638
 1195TIP3   OH225143   4.565   0.198   0.098  0.0554  0.5647  0.3996
 1195TIP3    H125144   4.511   0.118   0.099  1.1759 -0.2479 -0.4646
 1195TIP3    H225145   4.547   0.237   0.012  0.8298  0.2740  0.0938
 1196TIP3   OH225146   0.639   0.538   7.473 -0.0195  0.3887 -0.0476
 1196TIP3    H125147   0.684   0.479   7.413 -1.8238 -0.2486 -0.8640
 1196TIP3    H225148   0.611   0.482   7.545  0.7807  0.8454  0.6284
 1197TIP3   OH225149   4.346   3.245   2.550 -0.0001 -0.2341  0.4318
 1197TIP3    H125150   4.395   3.219   2.628  0.8305 -1.0050 -0.3224
 1197TIP3    H225151   4.261   3.200   2.559 -0.0876  0.0602  1.1129
 1198TIP3   OH225152   4.290   3.480   0.401 -0.4160  0.0540 -0.4834
 1198TIP3    H125153   4.286   3.445   0.490 -2.3834  0.1933 -0.4903
 1198TIP3    H225154   4.200   3.476   0.369  0.5013 -1.6942 -3.1554
 1199TIP3   OH225155   6.679   0.819   0.553  0.6893 -0.3169 -0.1626
 1199TIP3    H125156   6.632   0.853   0.477 -0.4060  1.1074  1.0831
 1199TIP3    H225157   6.671   0.888   0.619  1.4172 -1.5786  1.3111
 1200TIP3   OH225158   3.399   3.311   1.004 -0.2584  0.2827 -0.3668
 1200TIP3    H125159   3.461   3.242   0.982 -1.3640 -0.0921 -2.5156
 1200TIP3    H225160   3.321   3.265   1.035  0.1807  0.7312  1.5533
 1201TIP3   OH225161   3.892   3.076   7.980  0.0428  0.8572 -0.4659
 1201TIP3    H125162   3.978   3.050   7.946  1.1089  0.8495  2.0377
 1201TIP3    H225163   3.852   3.126   7.908 -0.2418 -3.6053 -3.8138
 1202TIP3   OH225164   2.231   2.425   1.562  0.0809  0.2580  0.2076
 1202TIP3    H125165   2.137   2.437   1.548 -0.0240 -1.6972 -1.0088
 1202TIP3    H225166   2.260   2.510   1.596 -1.9804  1.1304 -0.0337
 1203TIP3   OH225167   4.601   3.514   1.053 -0.1610 -0.7702 -0.5453
 1203TIP3    H125168   4.670   3.576   1.073 -0.3432 -0.5087 -0.7281
 1203TIP3    H225169   4.535   3.528   1.121  1.3924 -3.2953  1.6927
 1204TIP3   OH225170   5.520   4.499   7.654  0.0294  0.4351  0.0720
 1204TIP3    H125171   5.612   4.500   7.682 -0.1904  1.0801  0.7925
 1204TIP3    H225172   5.511   4.576   7.598 -0.6920  1.8984  2.1112
 1205TIP3   OH225173   2.285   2.733   0.995 -0.0497 -0.5342 -0.1135
 1205TIP3    H125174   2.252   2.765   0.911  0.0138  0.9845  0.4038
 1205TIP3    H225175   2.207   2.710   1.045 -0.1636 -0.1381 -0.1045
 1206TIP3   OH225176   1.331   4.233   7.991 -0.0494  0.6405 -0.2070
 1206TIP3    H125177   1.380   4.195   8.064  0.1010  1.0040 -0.1167
 1206TIP3    H225178   1.338   4.167   7.922  0.8227  0.8110 -0.2923
 1207TIP3   OH225179   3.021   5.688   8.620  0.0031  0.1614 -0.1208
 1207TIP3    H125180   3.048   5.634   8.546  0.2797 -1.3721  1.0446
 1207TIP3    H225181   2.940   5.731   8.591  0.6232  0.3468 -1.6210
 1208TIP3   OH225182   2.073   2.659   7.153  0.3228  0.1140 -0.4435
 1208TIP3    H125183   2.160   2.689   7.178  0.4316 -0.8102  0.3786
 1208TIP3    H225184   2.081   2.634   7.061  1.5973 -2.2056  0.2133
 1209TIP3   OH225185   4.612   0.382   8.475 -0.4230 -0.3627  0.1927
 1209TIP3    H125186   4.607   0.289   8.452 -0.6190 -0.8285  1.9517
 1209TIP3    H225187   4.645   0.424   8.396  4.3138 -2.5512  0.6495
 1210TIP3   OH225188   5.167   1.558   2.613 -0.5077  0.5491 -0.3410
 1210TIP3    H125189   5.143   1.491   2.676 -0.2627  2.0284  1.4035
 1210TIP3    H225190   5.093   1.619   2.613  1.1027  2.7027  1.6423
 1211TIP3   OH225191   1.552   2.567   0.769 -0.5390  0.5092  0.3331
 1211TIP3    H125192   1.630   2.538   0.721 -0.9904  0.6460 -0.4911
 1211TIP3    H225193   1.565   2.532   0.857  0.9488  1.3754  0.5034
 1212TIP3   OH225194   6.332   0.738   0.561  0.3819  0.0986 -0.4816
 1212TIP3    H125195   6.292   0.813   0.518  1.0407 -0.7866 -2.7801
 1212TIP3    H225196   6.269   0.667   0.550 -0.2811  0.2743  1.7570
 1213TIP3   OH225197   5.048   4.052   0.544  0.0423  0.4562  0.2843
 1213TIP3    H125198   5.110   4.117   0.510 -0.4503  0.1296 -1.2922
 1213TIP3    H225199   5.086   3.967   0.518 -1.3807  0.2697 -1.3224
 1214TIP3   OH225200   5.155   1.492   1.060 -0.2561  0.3038 -0.0877
 1214TIP3    H125201   5.083   1.555   1.064  0.8157  1.5256  1.1414
 1214TIP3    H225202   5.225   1.538   1.014 -0.1110 -0.7307 -0.9433
 1215TIP3   OH225203   1.326   2.994   1.163 -0.2322  0.4087 -0.5308
 1215TIP3    H125204   1.372   2.917   1.131  0.3458  0.7784 -0.6022
 1215TIP3    H225205   1.273   2.962   1.236  0.2978  0.0121 -0.3133
 1216TIP3   OH225206   6.734   4.281   7.929  0.4701  0.3126 -0.1266
 1216TIP3    H125207   6.741   4.197   7.883 -2.8934 -1.1773  1.6611
 1216TIP3    H225208   6.684   4.337   7.870 -0.3726 -0.2452  0.0212
 1217TIP3   OH225209   0.781   3.098   0.017  1.0916  0.4735  0.1369
 1217TIP3    H125210   0.784   3.102  -0.078 -0.1669 -0.5875  0.0215
 1217TIP3    H225211   0.719   3.166   0.042  2.0273  1.3089  0.2938
 1218TIP3   OH225212   5.987   4.069   2.342  0.6376 -0.1233  0.1656
 1218TIP3    H125213   5.967   4.163   2.349  0.0944  0.0310 -2.6080
 1218TIP3    H225214   6.067   4.058   2.394  2.7863  2.6393 -2.2210
 1219TIP3   OH225215   6.372   0.189   1.304  0.1997 -0.0612 -0.0892
 1219TIP3    H125216   6.449   0.226   1.261  0.6653 -0.9557 -0.0355
 1219TIP3    H225217   6.298   0.231   1.261  0.7090  1.7072  0.6536
 1220TIP3   OH225218   3.344   4.537   1.344 -0.2769  0.0117 -0.4915
 1220TIP3    H125219   3.289   4.516   1.420  0.5167  1.4998  0.5526
 1220TIP3    H225220   3.433   4.529   1.377  0.1097 -0.5812 -1.6530
 1221TIP3   OH225221   6.228   0.811   1.829  0.0052 -0.5045  0.0944
 1221TIP3    H125222   6.166   0.828   1.900  1.2462 -0.5287  1.2105
 1221TIP3    H225223   6.297   0.759   1.869  0.2543 -1.3789 -1.3762
 1222TIP3   OH225224   5.221   4.728   0.745  0.1420 -0.1829  0.3912
 1222TIP3    H125225   5.262   4.796   0.797 -0.4907 -0.0343  0.7117
 1222TIP3    H225226   5.242   4.646   0.790  2.2545 -0.3948 -0.8688
 1223TIP3   OH225227   3.238   6.056   2.090  0.5908 -0.2329 -0.4687
 1223TIP3    H125228   3.298   5.987   2.120  1.3031  0.6858  0.3034
 1223TIP3    H225229   3.239   6.048   1.994  1.0559 -0.9714 -0.4145
 1224TIP3   OH225230   3.594   4.684   8.674 -0.3308  0.1645  0.6264
 1224TIP3    H125231   3.634   4.599   8.657 -0.5279  0.2452 -0.3006
 1224TIP3    H225232   3.537   4.669   8.750 -0.2195 -0.4786  0.5901
 1225TIP3   OH225233   4.486   5.539   2.204 -0.7582  0.2768  0.5597
 1225TIP3    H125234   4.440   5.456   2.219  0.1104 -0.3948 -0.4008
 1225TIP3    H225235   4.459   5.594   2.277  0.1987 -1.5199  2.3606
 1226TIP3   OH225236   3.238   1.689   8.237 -0.7352 -0.4909 -0.1143
 1226TIP3    H125237   3.301   1.739   8.185 -1.2709  1.8212  1.3166
 1226TIP3    H225238   3.184   1.644   8.171  0.8444 -0.6040 -1.4146
 1227TIP3   OH225239   2.742   6.334   2.335  0.0799 -0.2649 -0.2895
 1227TIP3    H125240   2.741   6.344   2.430 -0.6464  0.1829 -0.3357
 1227TIP3    H225241   2.716   6.420   2.301 -0.1957 -0.5683 -0.8786
 1228TIP3   OH225242   3.105   5.368   1.895 -0.0338  0.3051 -0.0956
 1228TIP3    H125243   3.092   5.365   1.800 -1.5388 -2.3078  0.1019
 1228TIP3    H225244   3.037   5.427   1.927 -0.4002  0.1109 -0.5178
 1229TIP3   OH225245   0.714   1.924   2.565  0.2385 -0.2169 -0.6352
 1229TIP3    H125246   0.697   1.866   2.639  3.3099 -1.5855 -0.8363
 1229TIP3    H225247   0.706   2.012   2.601 -0.5682 -0.8144  0.7369
 1230TIP3   OH225248   4.356   1.366   2.225 -0.3313 -0.0277 -0.2011
 1230TIP3    H125249   4.380   1.359   2.318 -0.7066  1.0766 -0.0057
 1230TIP3    H225250   4.440   1.362   2.179 -0.1144 -0.2474  0.2050
 1231TIP3   OH225251   1.173   1.225   1.652  0.4500  0.3178  0.6407
 1231TIP3    H125252   1.164   1.290   1.722 -1.0587  1.1412 -0.2832
 1231TIP3    H225253   1.184   1.276   1.572 -0.0570 -0.5719 -0.0200
 1232TIP3   OH225254   3.112   1.070   2.178  0.2654 -0.3923  0.0395
 1232TIP3    H125255   3.096   1.026   2.262 -0.4531 -1.3959 -0.6100
 1232TIP3    H225256   3.064   1.018   2.114  0.1926  0.7972 -0.9015
 1233TIP3   OH225257   1.225   2.615   0.311  0.8329  0.1464  0.7017
 1233TIP3    H125258   1.299   2.632   0.370  0.2015 -1.0345  1.8895
 1233TIP3    H225259   1.234   2.523   0.288  0.9868  0.5558 -0.9851
 1234TIP3   OH225260   0.725   2.758   1.081 -0.5299  0.0460 -0.2074
 1234TIP3    H125261   0.713   2.663   1.078  0.2655 -0.0967  0.6549
 1234TIP3    H225262   0.663   2.789   1.147  0.5793 -0.1416  0.9685
 1235TIP3   OH225263   2.670   4.619   7.346  0.1302  0.3095  0.1025
 1235TIP3    H125264   2.590   4.671   7.332  0.4939  0.5224 -1.3691
 1235TIP3    H225265   2.640   4.539   7.389 -0.8288  0.5423 -0.1157
 1236TIP3   OH225266   0.420   6.118   1.688  0.3385  0.2624 -0.1470
 1236TIP3    H125267   0.376   6.115   1.603  0.7791  0.1155 -0.3785
 1236TIP3    H225268   0.350   6.122   1.752 -0.1095 -1.8612 -0.4038
 1237TIP3   OH225269   0.290   0.004   0.224 -0.2564 -0.1979  0.8193
 1237TIP3    H125270   0.200  -0.010   0.194 -0.5991 -0.5847  1.9616
 1237TIP3    H225271   0.327  -0.083   0.232  0.6218  0.0107 -0.7532
 1238TIP3   OH225272   3.042   5.060   8.480 -0.4584  0.5469 -0.4535
 1238TIP3    H125273   3.011   5.036   8.567  0.5360  0.4322 -0.1158
 1238TIP3    H225274   3.133   5.031   8.479 -0.6729 -0.1233 -1.8009
 1239TIP3   OH225275   1.163   2.410   0.590 -0.4557 -0.6408 -0.1677
 1239TIP3    H125276   1.182   2.355   0.666  0.3729 -0.3246 -0.1377
 1239TIP3    H225277   1.194   2.497   0.614  0.3653 -0.6645 -1.0839
 1240TIP3   OH225278   1.401   2.438   7.981 -0.2354 -0.2706  0.2544
 1240TIP3    H125279   1.378   2.516   7.931  1.2172  0.1603  0.2286
 1240TIP3    H225280   1.407   2.468   8.072  0.6962 -0.2586  0.1946
 1241TIP3   OH225281   6.410   2.343   8.112 -0.0319 -0.3411  0.1276
 1241TIP3    H125282   6.462   2.311   8.186  1.5100  0.8332 -0.3845
 1241TIP3    H225283   6.327   2.370   8.151  0.7076  0.1606  1.4203
 1242TIP3   OH225284   4.393   1.302   7.001 -0.0399 -0.0049 -0.0061
 1242TIP3    H125285   4.302   1.310   6.973  0.3779 -0.2007 -1.5147
 1242TIP3    H225286   4.420   1.216   6.969  0.1468 -0.7846  2.1004
 1243TIP3   OH225287   3.550   2.808   2.189 -0.0358  0.1556 -0.1635
 1243TIP3    H125288   3.501   2.889   2.200 -0.2586 -0.1562  1.3112
 1243TIP3    H225289   3.506   2.762   2.118 -2.4979 -0.5312  1.6953
 1244TIP3   OH225290   1.850   5.842   2.949 -0.6479 -0.5247  0.2236
 1244TIP3    H125291   1.847   5.747   2.944 -0.6381 -0.5103 -0.0638
 1244TIP3    H225292   1.940   5.864   2.926 -1.2946 -0.2919 -2.4417
 1245TIP3   OH225293   4.161   2.809   2.050  0.4332 -0.4383 -0.2598
 1245TIP3    H125294   4.090   2.872   2.056 -0.1806 -1.0775 -0.6113
 1245TIP3    H225295   4.124   2.728   2.085  0.9634 -0.7923 -0.4977
 1246TIP3   OH225296   1.923   0.131   0.496 -0.6883 -0.3192 -0.4223
 1246TIP3    H125297   1.837   0.126   0.453 -0.2040 -1.6919 -1.2828
 1246TIP3    H225298   1.979   0.177   0.433 -0.8563  0.9234  0.2998
 1247TIP3   OH225299   0.374   6.127   0.056  0.1819 -0.3479  0.1954
 1247TIP3    H125300   0.459   6.103   0.094  0.4003  0.5661  0.2915
 1247TIP3    H225301   0.356   6.057  -0.007 -0.5405 -2.3179  2.4614
 1248TIP3   OH225302   3.602   2.452   0.779  0.1089 -0.0605  0.3277
 1248TIP3    H125303   3.669   2.424   0.841 -2.2999  2.0796  4.3563
 1248TIP3    H225304   3.645   2.517   0.724  2.1599 -1.4427  0.1717
 1249TIP3   OH225305   3.592   3.926   0.612  0.3460 -0.3242 -0.4359
 1249TIP3    H125306   3.509   3.924   0.564 -0.0578  2.3443 -0.0394
 1249TIP3    H225307   3.566   3.935   0.704  1.0167  1.2673 -0.3711
 1250TIP3   OH225308   2.670   5.318   6.821  0.0002 -0.7004 -0.0835
 1250TIP3    H125309   2.595   5.310   6.762 -0.5108 -1.4253  0.6188
 1250TIP3    H225310   2.730   5.378   6.778 -1.0224 -0.0581 -0.6378
 1251TIP3   OH225311   3.515   0.596   2.023  0.3742  0.1528  0.5637
 1251TIP3    H125312   3.540   0.560   1.938  1.5854  0.0050  0.9678
 1251TIP3    H225313   3.469   0.524   2.067 -0.8981  0.4517 -0.2104
 1252TIP3   OH225314   6.735   4.469   1.677  0.5613  0.7958 -0.2779
 1252TIP3    H125315   6.682   4.498   1.603  0.9740  1.7918 -0.2160
 1252TIP3    H225316   6.740   4.374   1.668 -4.3924  0.0270  1.8535
 1253TIP3   OH225317   1.386   4.906   0.548 -0.8330  0.3513  1.2135
 1253TIP3    H125318   1.341   4.860   0.478  0.8247  1.2779 -0.5335
 1253TIP3    H225319   1.460   4.850   0.571  0.5991  1.5624 -0.2155
 1254TIP3   OH225320   1.242   1.910   1.177 -0.1781 -0.0088  0.1178
 1254TIP3    H125321   1.183   1.957   1.236 -0.2789  0.8885 -0.6674
 1254TIP3    H225322   1.329   1.922   1.216 -0.3738 -0.3843  0.6773
 1255TIP3   OH225323   2.412   0.262   7.322 -0.3103 -0.2939 -0.1154
 1255TIP3    H125324   2.381   0.222   7.403 -0.3048  1.5679  0.8547
 1255TIP3    H225325   2.350   0.231   7.255 -0.4899 -1.6158  0.6284
 1256TIP3   OH225326   1.912   1.263   2.038 -0.3376  0.4193  0.0303
 1256TIP3    H125327   1.988   1.308   2.073 -0.7999 -0.6677  2.6906
 1256TIP3    H225328   1.878   1.212   2.112 -1.4612 -2.0887 -2.0446
 1257TIP3   OH225329   4.471   0.063   2.040 -0.4889  0.1109 -0.1332
 1257TIP3    H125330   4.404   0.071   2.107 -0.2117 -1.3316  0.3497
 1257TIP3    H225331   4.427   0.025   1.964 -0.5260  0.5677 -0.3486
 1258TIP3   OH225332   2.838   4.201   0.202 -0.1410 -0.0625 -0.5526
 1258TIP3    H125333   2.824   4.273   0.263  0.3290  0.4601 -1.0533
 1258TIP3    H225334   2.913   4.153   0.239  0.0710  0.1881 -0.6522
 1259TIP3   OH225335   3.700   2.255   8.784 -0.5010  0.3842  0.3444
 1259TIP3    H125336   3.612   2.247   8.745  0.1549 -0.4055 -1.0484
 1259TIP3    H225337   3.731   2.165   8.791  1.1676  0.7379 -1.5668
 1260TIP3   OH225338   6.528   0.893   1.740 -0.3243  0.0744  0.1528
 1260TIP3    H125339   6.622   0.909   1.727 -0.4740  0.0741 -1.0726
 1260TIP3    H225340   6.491   0.900   1.652 -1.4135 -0.3578  0.5688
 1261TIP3   OH225341   2.190   3.058   8.807 -0.5643 -0.5983  0.2495
 1261TIP3    H125342   2.275   3.033   8.843  0.1472  1.2743 -0.0141
 1261TIP3    H225343   2.135   3.074   8.884 -0.4354 -0.9759  0.4253
 1262TIP3   OH225344   4.729   1.240   8.380  0.2377 -0.0673  0.3430
 1262TIP3    H125345   4.768   1.311   8.329 -2.0260  0.4184 -0.8564
 1262TIP3    H225346   4.637   1.238   8.351 -0.4030 -1.7372  2.2982
 1263TIP3   OH225347   5.957   0.660   1.146 -1.3354  0.6296  0.0750
 1263TIP3    H125348   6.019   0.733   1.144 -1.6982  0.9260 -0.6640
 1263TIP3    H225349   6.011   0.583   1.127 -1.4909  1.1410 -2.9443
 1264TIP3   OH225350   5.967   5.334   8.677  0.0059  0.6597 -0.0994
 1264TIP3    H125351   5.932   5.317   8.590  0.6399  1.6990 -0.5794
 1264TIP3    H225352   6.050   5.379   8.661 -0.0225  1.1551  1.0390
 1265TIP3   OH225353   6.084   0.516   8.503 -0.4749  0.3769  0.1802
 1265TIP3    H125354   6.138   0.501   8.425 -1.7343 -0.8862 -0.4926
 1265TIP3    H225355   6.026   0.440   8.507 -1.6524  1.2936  1.3361
 1266TIP3   OH225356   3.302   4.804   0.422 -0.0579  0.5426 -0.3061
 1266TIP3    H125357   3.235   4.738   0.404  0.0862  0.1766  0.4338
 1266TIP3    H225358   3.301   4.861   0.346  0.2541 -0.6882 -1.2663
 1267TIP3   OH225359   1.586   5.273   1.294  0.2466  0.4253  0.1545
 1267TIP3    H125360   1.523   5.252   1.363  0.6924 -0.1385  0.4015
 1267TIP3    H225361   1.646   5.336   1.336  1.5492 -1.2123  0.8836
 1268TIP3   OH225362   1.664   5.947   3.191 -0.7709  0.1222 -0.9159
 1268TIP3    H125363   1.743   5.923   3.240 -0.5705  0.1869 -1.2038
 1268TIP3    H225364   1.690   6.023   3.140 -1.1560  0.4266 -0.6642
 1269TIP3   OH225365   4.566   3.065   1.154 -0.4598  0.2561  0.8153
 1269TIP3    H125366   4.563   3.125   1.079 -0.1870  2.2305  2.2956
 1269TIP3    H225367   4.499   3.000   1.135 -1.7896  1.8418 -0.2479
 1270TIP3   OH225368   1.116   6.601   8.781  0.1189  0.0041 -0.2245
 1270TIP3    H125369   1.108   6.608   8.877  0.7631 -0.9468 -0.0899
 1270TIP3    H225370   1.191   6.543   8.768 -1.8299 -2.4452 -1.2694
 1271TIP3   OH225371   6.706   4.781   1.015  0.0781  0.2141 -0.0333
 1271TIP3    H125372   6.655   4.768   0.935  0.0141 -1.0718  0.1964
 1271TIP3    H225373   6.690   4.702   1.066 -1.4675  1.7927  2.1487
 1272TIP3   OH225374   6.073   6.762   7.400  0.2693  0.8492 -0.2994
 1272TIP3    H125375   6.165   6.761   7.425 -0.2584  1.9267  1.9222
 1272TIP3    H225376   6.074   6.758   7.304  2.5771  0.2926 -0.3104
 1273TIP3   OH225377   1.214   3.805   8.341  0.0420 -0.5692  0.3047
 1273TIP3    H125378   1.154   3.856   8.286 -0.0545  1.3859  2.0770
 1273TIP3    H225379   1.163   3.730   8.369 -0.4672 -0.6733 -0.8397
 1274TIP3   OH225380   3.606   3.617   2.042 -0.2188  0.0276  0.3691
 1274TIP3    H125381   3.680   3.658   2.086  0.6343 -0.7895 -0.2400
 1274TIP3    H225382   3.599   3.530   2.083 -0.4126 -0.1481 -0.0302
 1275TIP3   OH225383   5.687   2.968   0.211  0.0595 -0.1776 -0.2379
 1275TIP3    H125384   5.628   2.935   0.278 -0.7381  0.7283 -0.4745
 1275TIP3    H225385   5.753   3.018   0.259 -0.7176  0.7716 -0.1443
 1276TIP3   OH225386   5.238   6.233   0.548 -0.3202  0.3557 -0.5339
 1276TIP3    H125387   5.195   6.317   0.530  1.0129  1.0283 -0.6741
 1276TIP3    H225388   5.221   6.181   0.469 -0.2237  0.8852 -0.9104
 1277TIP3   OH225389   5.347   1.834   0.707 -0.2419 -0.3264  0.2135
 1277TIP3    H125390   5.387   1.892   0.773 -0.6086  0.1058  0.0632
 1277TIP3    H225391   5.256   1.862   0.704 -0.0003  0.3612 -1.2406
 1278TIP3   OH225392   4.833   1.112   1.953  0.4485 -0.0614  0.4647
 1278TIP3    H125393   4.852   1.036   1.898 -1.3160  0.5774 -1.1072
 1278TIP3    H225394   4.769   1.080   2.017 -0.2946  0.0691 -0.1970
 1279TIP3   OH225395   5.213   6.131   8.689 -0.4655  0.4575  0.1314
 1279TIP3    H125396   5.161   6.063   8.647 -1.5801  1.3715 -0.0181
 1279TIP3    H225397   5.174   6.140   8.776  0.1847  0.3648  0.4400
 1280TIP3   OH225398   2.001   0.469   8.057 -0.3191  0.2345  0.5114
 1280TIP3    H125399   2.020   0.389   8.009 -2.3940 -0.2178  0.3617
 1280TIP3    H225400   1.912   0.457   8.091 -0.0878  1.8300  1.8225
 1281TIP3   OH225401   3.773   2.358   8.038  0.1656 -0.0062  0.0411
 1281TIP3    H125402   3.832   2.282   8.038 -2.0885 -1.9429  1.7411
 1281TIP3    H225403   3.702   2.332   7.979 -0.4537  0.9534  0.3550
 1282TIP3   OH225404   3.571   2.651   1.939  0.0255  0.5641 -0.5922
 1282TIP3    H125405   3.483   2.616   1.954  0.8057 -0.9476  0.7303
 1282TIP3    H225406   3.623   2.575   1.912  1.1407  1.2588 -0.4723
 1283TIP3   OH225407   5.090   2.102   1.622 -0.1449  0.0122  0.3097
 1283TIP3    H125408   5.061   2.159   1.550 -0.5180 -0.0025  0.4442
 1283TIP3    H225409   5.090   2.159   1.699  0.4756  0.0859  0.2590
 1284TIP3   OH225410   2.740   5.247   0.695  0.2508  0.1357  0.0422
 1284TIP3    H125411   2.753   5.152   0.692 -1.0159 -0.3602  3.8583
 1284TIP3    H225412   2.817   5.281   0.740  0.5744  0.9315 -1.0667
 1285TIP3   OH225413   4.702   2.617   1.784  0.0554 -0.1215  0.8110
 1285TIP3    H125414   4.608   2.624   1.768  0.5623  0.9308 -2.5760
 1285TIP3    H225415   4.731   2.708   1.794  1.3565  0.3387 -4.2629
 1286TIP3   OH225416   5.358   3.545   2.095  0.1866 -0.5365 -0.0628
 1286TIP3    H125417   5.363   3.621   2.038  1.6761  0.4164  1.2241
 1286TIP3    H225418   5.284   3.563   2.153 -0.2074 -0.6445 -0.5318
 1287TIP3   OH225419   0.167   4.663   6.966 -0.1012 -0.3547 -0.4805
 1287TIP3    H125420   0.091   4.720   6.978 -0.3170 -0.9268  1.2958
 1287TIP3    H225421   0.136   4.576   6.993  1.0511 -0.6721 -0.1148
 1288TIP3   OH225422   5.581   2.266   8.190  0.0714  0.2513  0.0066
 1288TIP3    H125423   5.579   2.288   8.283 -0.3855  0.9545 -0.1596
 1288TIP3    H225424   5.525   2.332   8.148  0.4382  0.0750 -0.7923
 1289TIP3   OH225425   2.311   2.691   1.977 -0.3219 -0.5215  0.2103
 1289TIP3    H125426   2.269   2.737   2.050 -1.4767  1.7586 -1.7773
 1289TIP3    H225427   2.404   2.704   1.991 -0.5765  1.1429  0.5576
 1290TIP3   OH225428   0.015   1.788   0.494 -0.2045  0.0022 -0.1531
 1290TIP3    H125429   0.086   1.841   0.458 -1.4317  0.8322 -1.4799
 1290TIP3    H225430   0.056   1.733   0.560  1.6060  0.6531 -0.6965
 1291TIP3   OH225431   4.122   1.957   0.072  0.2170 -0.2622  0.0890
 1291TIP3    H125432   4.029   1.961   0.092  0.1272  0.6936 -0.4328
 1291TIP3    H225433   4.164   2.004   0.145  0.5203 -2.5091  1.4548
 1292TIP3   OH225434   5.070   4.370   6.879 -0.2521  0.3358  0.1921
 1292TIP3    H125435   5.125   4.410   6.812 -2.3211  0.7823 -1.3670
 1292TIP3    H225436   5.080   4.276   6.866  1.4154  0.3453  1.1042
 1293TIP3   OH225437   0.200   1.173   8.288 -0.1266  0.5156  0.6686
 1293TIP3    H125438   0.137   1.144   8.222  0.0890  0.9683  0.2525
 1293TIP3    H225439   0.153   1.165   8.371 -1.8463  3.5269  0.1591
 1294TIP3   OH225440   6.300   4.036   0.501 -0.2032 -0.4180 -0.1271
 1294TIP3    H125441   6.283   3.942   0.489 -0.0389 -0.2991 -1.4475
 1294TIP3    H225442   6.221   4.079   0.467 -1.0566 -0.0813  2.0956
 1295TIP3   OH225443   2.996   3.149   1.877  0.1413 -0.2334  0.4971
 1295TIP3    H125444   2.933   3.108   1.936 -1.5670  1.7105  0.1585
 1295TIP3    H225445   2.957   3.138   1.790  0.4149  0.6929  0.2424
 1296TIP3   OH225446   1.020   3.285   1.315 -0.2803 -0.2084  0.4633
 1296TIP3    H125447   1.090   3.349   1.326 -0.0466 -0.4579  0.4525
 1296TIP3    H225448   0.990   3.268   1.404  0.1973 -0.6727  0.5434
 1297TIP3   OH225449   4.141   1.405   6.934 -0.4424 -0.1475 -0.0988
 1297TIP3    H125450   4.164   1.480   6.989  1.1645 -0.4366 -0.3286
 1297TIP3    H225451   4.110   1.442   6.852  1.0984  0.2911 -0.5069
 1298TIP3   OH225452   5.936   4.785   8.193 -0.0529  0.0019 -0.0706
 1298TIP3    H125453   5.880   4.749   8.124  1.5596 -2.2567 -0.3253
 1298TIP3    H225454   5.963   4.870   8.160 -1.5137  0.1657 -0.9394
 1299TIP3   OH225455   2.198   6.509   1.097 -0.7585 -0.2602  0.6580
 1299TIP3    H125456   2.236   6.489   1.012 -0.2045  0.5331  0.7080
 1299TIP3    H225457   2.270   6.498   1.159 -0.5292  1.4282  0.7345
 1300TIP3   OH225458   2.466   0.395   1.637  0.1446  0.3275 -0.4816
 1300TIP3    H125459   2.486   0.365   1.548 -1.0317  0.0824 -0.6836
 1300TIP3    H225460   2.551   0.411   1.677  0.6943  0.7300 -1.7539
 1301TIP3   OH225461   5.881   4.082   0.789  0.1691  0.5079  0.0604
 1301TIP3    H125462   5.831   4.156   0.825  0.1247  0.0275  1.0152
 1301TIP3    H225463   5.832   4.056   0.711 -1.5865 -0.4894  1.4179
 1302TIP3   OH225464   1.185   3.657   2.149  0.3677  0.3601  0.0355
 1302TIP3    H125465   1.184   3.605   2.068  1.2064  0.8757 -0.3193
 1302TIP3    H225466   1.157   3.744   2.121 -0.8889  0.1644  0.6012
 1303TIP3   OH225467   5.669   0.783   0.167 -0.1011  0.5327 -0.0177
 1303TIP3    H125468   5.630   0.724   0.102  1.0490  0.5742 -0.7807
 1303TIP3    H225469   5.724   0.843   0.115  0.0579  1.2114  0.9031
 1304TIP3   OH225470   6.664   2.450   0.698  0.0259  0.1522  0.0282
 1304TIP3    H125471   6.655   2.508   0.622  1.3893  0.1410 -0.1597
 1304TIP3    H225472   6.684   2.508   0.771 -0.1823  0.0612  0.1587
 1305TIP3   OH225473   4.243   4.846   0.405  0.3863  0.8328  0.6504
 1305TIP3    H125474   4.184   4.869   0.334 -0.5062  1.3177  1.5273
 1305TIP3    H225475   4.235   4.918   0.468  0.4194 -0.0478  1.6973
 1306TIP3   OH225476   4.492   4.669   1.466  0.3734  0.2204 -0.6614
 1306TIP3    H125477   4.550   4.595   1.447 -1.3446 -1.8464  1.5251
 1306TIP3    H225478   4.404   4.632   1.459 -0.5440  2.0543  0.5572
 1307TIP3   OH225479   3.359   6.550   8.050 -0.2907 -0.3905 -1.1631
 1307TIP3    H125480   3.308   6.476   8.019  1.6022 -2.4690  0.3177
 1307TIP3    H225481   3.394   6.590   7.970  0.0331 -2.1883 -1.9809
 1308TIP3   OH225482   4.646   5.158   7.807 -0.1028 -0.4495 -0.1118
 1308TIP3    H125483   4.669   5.069   7.781 -1.0088 -0.4923 -0.7881
 1308TIP3    H225484   4.624   5.202   7.725  1.8420  0.8711  0.0075
 1309TIP3   OH225485   4.965   1.283   1.569 -0.2255 -0.1542 -0.3291
 1309TIP3    H125486   4.899   1.325   1.514 -0.0244 -0.2700 -0.6643
 1309TIP3    H225487   4.958   1.328   1.653  0.7775  1.3921 -1.0161
 1310TIP3   OH225488   1.299   2.575   6.267 -0.7352 -0.6573  0.1322
 1310TIP3    H125489   1.353   2.637   6.315 -0.5041 -0.2797 -0.6030
 1310TIP3    H225490   1.210   2.593   6.295 -0.8392  0.9941 -1.1094
 1311TIP3   OH225491   3.343   1.028   0.017 -0.4054 -0.3875  1.2564
 1311TIP3    H125492   3.394   1.082  -0.044 -1.2237  0.7308  1.5338
 1311TIP3    H225493   3.326   1.086   0.091 -3.7686 -0.0141  0.3332
 1312TIP3   OH225494   3.283   0.818   8.622 -0.3072 -0.0699 -0.1717
 1312TIP3    H125495   3.294   0.765   8.701 -1.2597 -1.2359 -0.7845
 1312TIP3    H225496   3.298   0.908   8.651  0.4022 -0.5662  1.1046
 1313TIP3   OH225497   4.451   1.765   8.619 -0.1228 -0.0681  0.5285
 1313TIP3    H125498   4.396   1.826   8.571  0.7234 -0.2487 -0.7140
 1313TIP3    H225499   4.531   1.814   8.637 -0.0258 -0.3351  0.8389
 1314TIP3   OH225500   0.112   2.689   0.073 -0.3687 -0.3803  0.1905
 1314TIP3    H125501   0.199   2.647   0.079  0.4113  0.9125 -1.3892
 1314TIP3    H225502   0.055   2.619   0.042  0.2970 -1.0189  0.3536
 1315TIP3   OH225503   6.601   5.124   2.516  0.2996 -0.0212  0.3727
 1315TIP3    H125504   6.660   5.135   2.442  0.6175 -0.8906  0.4941
 1315TIP3    H225505   6.535   5.061   2.486  0.2684 -0.1618  0.7274
 1316TIP3   OH225506   2.907   5.915   1.689  0.3294  0.0779  0.0976
 1316TIP3    H125507   2.975   5.849   1.700  1.5133  1.4826  1.4549
 1316TIP3    H225508   2.949   5.998   1.710 -0.9878  1.3804 -2.0272
 1317TIP3   OH225509   4.489   0.283   1.395  0.4974  0.1559  0.1564
 1317TIP3    H125510   4.471   0.256   1.485  0.7238  0.6009  0.3391
 1317TIP3    H225511   4.417   0.341   1.373  0.6177  0.3099  0.1678
 1318TIP3   OH225512   3.871   4.741   0.394 -0.2689  0.0353 -0.3811
 1318TIP3    H125513   3.784   4.728   0.357 -0.0337 -0.0532 -0.9169
 1318TIP3    H225514   3.929   4.691   0.337  0.1919  0.4778 -0.3116
 1319TIP3   OH225515   0.032   4.060   2.092  0.8503  0.3987 -0.1573
 1319TIP3    H125516  -0.009   3.975   2.081 -2.1590  1.6685  0.3079
 1319TIP3    H225517   0.058   4.086   2.004 -1.4040  0.4055 -0.8900
 1320TIP3   OH225518   6.558   0.149   0.505 -0.3900  0.0684  0.6776
 1320TIP3    H125519   6.573   0.140   0.599 -0.1338  0.9566  0.7274
 1320TIP3    H225520   6.640   0.121   0.465 -0.4827 -0.2631  0.7103
 1321TIP3   OH225521   2.072   0.365   0.326 -0.2638 -0.3448 -0.2671
 1321TIP3    H125522   2.081   0.339   0.234  0.7735 -0.7963 -0.0512
 1321TIP3    H225523   1.992   0.417   0.328 -1.1757 -1.6527 -1.1289
 1322TIP3   OH225524   3.025   5.542   7.478  0.0482 -0.0500 -0.3230
 1322TIP3    H125525   2.996   5.630   7.504  0.0035  0.3064 -1.4905
 1322TIP3    H225526   3.097   5.558   7.417  0.4940 -0.8499 -0.0096
 1323TIP3   OH225527   2.226   1.032   2.204  0.0955 -0.5747 -0.0787
 1323TIP3    H125528   2.204   0.973   2.276 -0.0134  0.7077  0.9705
 1323TIP3    H225529   2.144   1.042   2.155 -0.6366  0.8249  1.3443
 1324TIP3   OH225530   4.021   2.847   7.430 -0.4873  0.0211 -0.8018
 1324TIP3    H125531   4.097   2.814   7.477 -1.2181 -1.1228 -0.4067
 1324TIP3    H225532   4.045   2.840   7.337 -0.4424 -1.1584 -0.7058
 1325TIP3   OH225533   6.659   2.970   3.175  0.3127 -0.1011 -0.0042
 1325TIP3    H125534   6.659   2.913   3.098 -1.8999  0.9719 -0.9110
 1325TIP3    H225535   6.583   3.027   3.162  0.0458  0.3431  2.8381
 1326TIP3   OH225536   2.667   1.203   0.298 -0.7562  0.3116 -0.3399
 1326TIP3    H125537   2.618   1.230   0.376 -0.9275  0.4143 -0.4828
 1326TIP3    H225538   2.679   1.109   0.309  2.8454  0.8330  1.8962
 1327TIP3   OH225539   5.625   5.895   2.130 -0.3843 -0.1709 -0.2530
 1327TIP3    H125540   5.593   5.807   2.150  0.8099 -0.4022  0.7258
 1327TIP3    H225541   5.653   5.931   2.214 -1.3837  1.3859 -0.5363
 1328TIP3   OH225542   6.019   3.789   0.474  0.1307 -0.6493  0.0863
 1328TIP3    H125543   6.104   3.748   0.460  0.5462  0.2662 -0.1948
 1328TIP3    H225544   5.968   3.768   0.396 -0.4265 -2.3924  0.8672
 1329TIP3   OH225545   3.704   4.475   8.332  0.0896 -0.1789  0.8680
 1329TIP3    H125546   3.755   4.402   8.367  1.7229  0.8973  0.8173
 1329TIP3    H225547   3.760   4.513   8.265  0.2159  2.4186  2.3224
 1330TIP3   OH225548   5.494   1.091   1.588  0.2759  0.2895  0.5760
 1330TIP3    H125549   5.457   1.045   1.513 -0.1211  0.7664  0.4697
 1330TIP3    H225550   5.418   1.122   1.637  0.4948  2.2196 -0.2200
 1331TIP3   OH225551   1.724   4.701   1.361  0.1130 -0.1094  0.3504
 1331TIP3    H125552   1.802   4.724   1.310 -1.0839 -0.3052 -1.6572
 1331TIP3    H225553   1.688   4.785   1.389 -0.1582  0.1042 -0.6097
 1332TIP3   OH225554   6.123   4.278   2.636 -0.0109 -0.8776  0.5597
 1332TIP3    H125555   6.183   4.318   2.699 -0.7377 -1.0548  1.3839
 1332TIP3    H225556   6.143   4.321   2.553 -1.5512  2.1343  1.5882
 1333TIP3   OH225557   4.322   2.188   1.115  0.1004  0.0849 -1.0877
 1333TIP3    H125558   4.298   2.103   1.079 -0.5120  0.7169 -2.2318
 1333TIP3    H225559   4.321   2.176   1.210 -0.8099 -0.9505 -1.2204
 1334TIP3   OH225560   1.890   3.449   1.356 -0.1543  0.5863 -0.4149
 1334TIP3    H125561   1.934   3.529   1.328 -0.1418  0.4350 -0.8210
 1334TIP3    H225562   1.959   3.383   1.359 -0.3055  0.4137 -0.7895
 1335TIP3   OH225563   2.113   0.373   1.229 -0.0186 -0.1867 -0.5314
 1335TIP3    H125564   2.136   0.333   1.313  0.5629  1.9653  0.3884
 1335TIP3    H225565   2.032   0.421   1.247 -0.1036 -0.0353 -1.3062
 1336TIP3   OH225566   5.607   2.160   0.773  0.0762 -0.2145  0.0977
 1336TIP3    H125567   5.682   2.168   0.832 -0.0168 -1.0374  0.3345
 1336TIP3    H225568   5.637   2.200   0.691  0.4033  0.4131  0.5078
 1337TIP3   OH225569   6.094   2.988   3.037  0.4565 -0.1980  0.0037
 1337TIP3    H125570   6.110   2.924   2.968 -0.3780  0.6719 -1.0284
 1337TIP3    H225571   5.999   2.989   3.046  0.5306  0.1009  0.7993
 1338TIP3   OH225572   5.764   4.570   2.287  0.2208  0.5207  0.2994
 1338TIP3    H125573   5.809   4.617   2.217  0.1586  0.3277  0.1291
 1338TIP3    H225574   5.814   4.592   2.366  1.1154 -0.3344 -0.0039
 1339TIP3   OH225575   2.958   1.425   7.363  0.0724 -0.6919 -0.3433
 1339TIP3    H125576   2.996   1.339   7.379  0.9949 -0.2776 -0.2680
 1339TIP3    H225577   2.975   1.442   7.270 -0.1060 -0.5887 -0.3583
 1340TIP3   OH225578   0.787   5.200   1.650  0.2025  0.1820  0.4571
 1340TIP3    H125579   0.788   5.129   1.586  0.7654  0.8046 -0.2409
 1340TIP3    H225580   0.877   5.203   1.684  0.7569  1.8467 -1.0068
 1341TIP3   OH225581   1.730   1.509   1.323 -0.5174  0.6398 -0.1265
 1341TIP3    H125582   1.647   1.541   1.287  0.4496  1.9760 -1.2890
 1341TIP3    H225583   1.714   1.417   1.342 -1.4133  0.0302 -3.2268
 1342TIP3   OH225584   2.966   6.159   1.043 -0.1025 -0.1191 -0.3312
 1342TIP3    H125585   2.902   6.223   1.073  1.0593  1.4732 -1.0826
 1342TIP3    H225586   2.997   6.193   0.959  2.5978 -0.1488  0.5475
 1343TIP3   OH225587   0.415   2.916   0.230  0.7388  0.6506  0.3309
 1343TIP3    H125588   0.398   2.835   0.278 -1.1799  0.5951 -0.3418
 1343TIP3    H225589   0.476   2.965   0.285  0.9786 -0.7140  1.3316
 1344TIP3   OH225590   3.308   0.008   8.668 -0.2091  0.4538 -0.0851
 1344TIP3    H125591   3.269   0.095   8.663  0.7145  0.9333  0.7953
 1344TIP3    H225592   3.266  -0.033   8.744 -0.3778  0.2691 -0.2775
 1345TIP3   OH225593   5.966   3.122   1.835 -0.1375  0.4784  0.2626
 1345TIP3    H125594   6.060   3.135   1.848 -0.0052 -1.9207  2.5426
 1345TIP3    H225595   5.959   3.074   1.752  0.8238 -0.6359  0.8043
 1346TIP3   OH225596   5.576   6.129   7.651 -0.1361  0.0267  0.3076
 1346TIP3    H125597   5.604   6.161   7.737  0.6542 -1.1231  0.5004
 1346TIP3    H225598   5.523   6.200   7.615  0.2139  0.8647  1.3945
 1347TIP3   OH225599   5.078   1.889   1.483 -0.0855 -0.4052  0.7556
 1347TIP3    H125600   5.170   1.876   1.506 -0.1517 -0.6920  0.8623
 1347TIP3    H225601   5.057   1.978   1.514  0.8103  0.6103 -1.3681
 1348TIP3   OH225602   3.979   4.463   0.680  0.1235  0.2466  0.4742
 1348TIP3    H125603   3.984   4.558   0.688  0.4122  0.2026  0.8400
 1348TIP3    H225604   3.972   4.447   0.586  4.5507  0.4408 -0.1132
 1349TIP3   OH225605   3.547   6.655   0.901  0.0212 -0.2424  0.3636
 1349TIP3    H125606   3.503   6.695   0.826 -0.0741 -2.5891 -0.9125
 1349TIP3    H225607   3.637   6.643   0.872  0.7312  1.3777  1.7124
 1350TIP3   OH225608   4.029   5.994   0.872  0.2034  0.0919  0.3155
 1350TIP3    H125609   4.043   5.944   0.952 -0.0195 -0.2688  0.1330
 1350TIP3    H225610   3.984   6.073   0.900 -0.3073 -0.2575  0.4851
 1351TIP3   OH225611   5.928   5.314   0.550  0.2792  0.3229 -0.5149
 1351TIP3    H125612   5.960   5.322   0.460  0.1480  0.3947 -0.5559
 1351TIP3    H225613   5.833   5.312   0.541  0.2494  0.7539 -0.3472
 1352TIP3   OH225614   1.009   5.536   2.106  0.4306 -0.2441  0.0021
 1352TIP3    H125615   0.916   5.557   2.093  1.2642  2.1459 -3.7048
 1352TIP3    H225616   1.036   5.591   2.179 -0.9134 -0.5818  0.7987
 1353TIP3   OH225617   6.141   1.739   1.091  0.3284 -0.3429 -0.1427
 1353TIP3    H125618   6.192   1.686   1.152 -0.6410  0.9266  1.8840
 1353TIP3    H225619   6.192   1.820   1.080 -0.7720  0.5964  1.2611
 1354TIP3   OH225620   2.411   2.865   2.174  0.0199 -0.2149  0.1810
 1354TIP3    H125621   2.368   2.824   2.250 -0.6318  0.5803  0.2606
 1354TIP3    H225622   2.363   2.947   2.162 -0.0622 -0.4614 -1.2717
 1355TIP3   OH225623   4.183   5.081   0.542 -0.1646  0.1224 -0.3389
 1355TIP3    H125624   4.199   5.090   0.636  0.6239  1.1006 -0.5482
 1355TIP3    H225625   4.192   5.170   0.508 -2.2700  0.1109 -1.0855
 1356TIP3   OH225626   4.316   3.904   0.587  0.0685  0.1643  0.2383
 1356TIP3    H125627   4.274   3.823   0.616 -0.0064  0.5531  1.2917
 1356TIP3    H225628   4.249   3.971   0.600  0.1288  0.3996 -0.6244
 1357TIP3   OH225629   0.162   6.507   0.278  0.1406 -0.0048 -0.0914
 1357TIP3    H125630   0.158   6.486   0.184 -0.9361 -3.4189  0.6026
 1357TIP3    H225631   0.219   6.439   0.315 -0.6167  0.4192  1.9517
 1358TIP3   OH225632   5.654   6.545   7.710  0.0221 -0.7464 -0.0959
 1358TIP3    H125633   5.598   6.529   7.786  0.5830  1.1066  0.7660
 1358TIP3    H225634   5.743   6.544   7.746  0.3116 -0.1671 -0.7778
 1359TIP3   OH225635   3.077   1.941   8.331  0.3899 -0.1725 -0.2738
 1359TIP3    H125636   3.103   1.860   8.287  1.6878 -0.2154  0.5110
 1359TIP3    H225637   2.992   1.962   8.294 -0.5169 -2.5027  0.3396
 1360TIP3   OH225638   4.679   4.264   7.561 -0.0038 -0.3989 -0.7773
 1360TIP3    H125639   4.663   4.300   7.474  0.2823  0.3053 -0.5444
 1360TIP3    H225640   4.718   4.336   7.610 -1.8781 -0.1927  0.5016
 1361TIP3   OH225641   1.541   1.391   0.388  0.7812 -0.4644  0.1045
 1361TIP3    H125642   1.496   1.467   0.427  2.0679 -0.3605  1.4530
 1361TIP3    H225643   1.486   1.316   0.412  0.8291 -0.2393  0.9340
 1362TIP3   OH225644   2.219   5.114   1.643 -0.5726 -0.2675  0.1511
 1362TIP3    H125645   2.211   5.210   1.649  0.2136 -0.1175 -0.8994
 1362TIP3    H225646   2.145   5.081   1.694 -1.8686  0.9313 -0.8416
 1363TIP3   OH225647   3.279   1.604   2.899 -0.1106 -0.0211  0.1232
 1363TIP3    H125648   3.233   1.653   2.968 -1.4894 -1.3230  0.1835
 1363TIP3    H225649   3.248   1.643   2.817  1.3431  1.3646  0.1835
 1364TIP3   OH225650   0.778   5.083   7.744  0.0582 -0.1373 -0.3245
 1364TIP3    H125651   0.827   5.007   7.774 -0.1784 -0.6892 -1.3145
 1364TIP3    H225652   0.802   5.093   7.652  1.1720  1.8454  0.1121
 1365TIP3   OH225653   5.326   6.788   1.084 -0.4279  0.0227  0.0787
 1365TIP3    H125654   5.246   6.743   1.111 -0.3764 -1.8127 -2.3756
 1365TIP3    H225655   5.296   6.864   1.034 -0.7734 -1.1365 -1.5913
 1366TIP3   OH225656   0.109   2.673   8.471  0.3589 -0.4589 -0.0884
 1366TIP3    H125657   0.202   2.674   8.494  0.7640  1.0208 -1.5733
 1366TIP3    H225658   0.093   2.585   8.436  2.0990  0.2192 -2.9440
 1367TIP3   OH225659   3.793   5.869   0.427  0.0860 -0.9750  0.7454
 1367TIP3    H125660   3.769   5.777   0.436  0.1684 -1.0564  0.1960
 1367TIP3    H225661   3.773   5.908   0.512 -2.5630 -0.9043  0.1680
 1368TIP3   OH225662   3.855   6.799   1.623  0.5107 -0.1856  0.5680
 1368TIP3    H125663   3.797   6.782   1.697  2.2802 -2.0439  1.5998
 1368TIP3    H225664   3.800   6.783   1.546 -1.1683  1.1429  1.4093
 1369TIP3   OH225665   5.022   6.293   7.564  0.6199 -0.5246  0.6656
 1369TIP3    H125666   4.969   6.304   7.485  3.1073 -1.2226 -1.2262
 1369TIP3    H225667   5.092   6.359   7.555  2.8560 -2.7783  0.5161
 1370TIP3   OH225668   6.552   5.077   0.806  0.3713  0.0400  0.0758
 1370TIP3    H125669   6.599   4.995   0.792 -0.9585 -1.1189  1.8842
 1370TIP3    H225670   6.561   5.125   0.724  1.4531 -1.7812 -0.9231
 1371TIP3   OH225671   3.118   1.850   1.596 -0.5753  0.2280 -0.1063
 1371TIP3    H125672   3.090   1.888   1.513  1.8715  1.0938 -0.6251
 1371TIP3    H225673   3.211   1.829   1.583 -0.1900  0.0941  2.2986
 1372TIP3   OH225674   2.041   6.642   1.272  0.2127 -0.6565  0.0335
 1372TIP3    H125675   2.081   6.579   1.212  1.3067 -1.5540  1.6193
 1372TIP3    H225676   1.982   6.589   1.326  0.6646 -0.2228  0.9713
 1373TIP3   OH225677   2.952   2.051   7.435 -0.4156 -0.3378 -0.7491
 1373TIP3    H125678   2.969   1.962   7.404  1.0932  0.5290 -2.6383
 1373TIP3    H225679   2.959   2.106   7.357 -0.4236  1.5440  0.4931
 1374TIP3   OH225680   2.993   6.412   2.126 -0.7947 -0.2785  0.1159
 1374TIP3    H125681   3.011   6.455   2.210 -1.9839 -0.5265  0.5173
 1374TIP3    H225682   3.015   6.320   2.142 -0.5171 -0.2329 -0.0070
 1375TIP3   OH225683   4.826   3.197   1.014 -0.0503  0.4027  0.0763
 1375TIP3    H125684   4.834   3.285   1.049 -0.4592  0.3655  0.2652
 1375TIP3    H225685   4.737   3.193   0.978 -0.6651 -0.4858  1.6176
 1376TIP3   OH225686   5.310   5.947   7.173 -0.4624  0.0334 -0.2974
 1376TIP3    H125687   5.347   6.032   7.197 -1.8854  0.1103  1.9088
 1376TIP3    H225688   5.372   5.911   7.111  1.6754  1.4627  0.8848
 1377TIP3   OH225689   2.645   2.048   7.067 -0.6051 -0.2657 -0.5003
 1377TIP3    H125690   2.663   2.142   7.064 -0.2933 -0.3147 -0.2475
 1377TIP3    H225691   2.587   2.032   6.993  1.1558 -0.2791 -1.9570
 1378TIP3   OH225692   2.050   3.924   8.774 -0.3377  0.1418  0.2459
 1378TIP3    H125693   2.113   3.867   8.730 -1.2089 -0.7474  0.1172
 1378TIP3    H225694   1.972   3.923   8.718 -1.3705 -0.7802  1.6294
 1379TIP3   OH225695   0.393   4.974   8.020  0.0292 -0.2872 -0.3097
 1379TIP3    H125696   0.381   4.880   8.006  0.6812 -0.3260 -0.6627
 1379TIP3    H225697   0.488   4.985   8.030 -0.0253  0.3554 -0.4450
 1380TIP3   OH225698   5.238   0.165   7.747  0.2299 -0.0733  0.6654
 1380TIP3    H125699   5.320   0.213   7.748  0.2696 -0.1117 -0.0947
 1380TIP3    H225700   5.181   0.216   7.689 -0.6706  0.5609  2.0457
 1381TIP3   OH225701   2.172   6.207   7.506 -0.3901  0.0866 -0.4955
 1381TIP3    H125702   2.250   6.260   7.523 -1.2992  1.2745  0.1272
 1381TIP3    H225703   2.099   6.260   7.538 -1.5811 -0.4954 -2.0834
 1382TIP3   OH225704   0.326   0.866   1.018 -0.1649  0.3098  0.3658
 1382TIP3    H125705   0.365   0.920   1.087 -0.5503 -1.4982  2.1001
 1382TIP3    H225706   0.242   0.839   1.053 -1.2284  0.8216 -1.6312
 1383TIP3   OH225707   0.684   2.467   1.636 -0.5420 -0.0381  0.1800
 1383TIP3    H125708   0.629   2.545   1.632 -0.9738 -0.2905  0.9785
 1383TIP3    H225709   0.733   2.468   1.553 -2.2512 -0.1967 -0.8780
 1384TIP3   OH225710   4.246   2.275   6.801  0.2895  0.2682 -0.0216
 1384TIP3    H125711   4.150   2.271   6.803  0.2352  1.0188  2.0547
 1384TIP3    H225712   4.266   2.368   6.792  0.7476  0.3654  1.6074
 1385TIP3   OH225713   0.418   5.006   7.717  0.5937 -0.3995  0.0496
 1385TIP3    H125714   0.406   5.101   7.713  0.6326 -0.3463  0.9311
 1385TIP3    H225715   0.415   4.986   7.811 -0.7015 -1.4342 -0.1895
 1386TIP3   OH225716   2.770   4.700   8.716 -0.4909 -0.0139  0.1058
 1386TIP3    H125717   2.794   4.662   8.800 -0.9856 -0.1365  0.1981
 1386TIP3    H225718   2.730   4.628   8.667 -1.1490  0.2948  0.1657
 1387TIP3   OH225719   3.421   2.824   1.793  0.0993 -0.0632  0.4652
 1387TIP3    H125720   3.358   2.872   1.847 -0.6698  0.8306 -1.1655
 1387TIP3    H225721   3.464   2.764   1.855 -2.6787 -1.0904  1.5596
 1388TIP3   OH225722   3.181   5.248   2.998  0.4463 -0.3273 -0.4038
 1388TIP3    H125723   3.108   5.298   2.962 -1.2926 -1.2731  1.5675
 1388TIP3    H225724   3.244   5.314   3.025 -1.4540  0.8598  1.4286
 1389TIP3   OH225725   0.852   2.305   7.826 -0.3539  0.7650 -0.5088
 1389TIP3    H125726   0.886   2.287   7.738 -1.5745  0.6084 -0.9582
 1389TIP3    H225727   0.772   2.254   7.832  0.0658  0.2351  0.9670
 1390TIP3   OH225728   4.657   2.042   2.115  0.0703  0.3437 -0.1348
 1390TIP3    H125729   4.644   2.083   2.200  1.0895  0.5100 -0.0398
 1390TIP3    H225730   4.577   2.061   2.067 -0.3950  0.5050  0.6838
 1391TIP3   OH225731   5.592   1.441   1.260  0.1919 -0.0499 -0.0277
 1391TIP3    H125732   5.609   1.346   1.258  0.0746 -0.0964  0.9050
 1391TIP3    H225733   5.625   1.472   1.176 -0.7010 -1.0697 -0.7884
 1392TIP3   OH225734   0.987   2.697   7.611  0.0645  1.2851  0.4528
 1392TIP3    H125735   0.975   2.663   7.523 -1.4040  1.2344  0.6531
 1392TIP3    H225736   1.080   2.719   7.616  0.6947 -0.9830 -0.2781
 1393TIP3   OH225737   0.939   4.631   8.028  0.2635 -0.1487  0.1190
 1393TIP3    H125738   0.876   4.563   8.003  0.4800 -0.6880  1.0183
 1393TIP3    H225739   0.937   4.693   7.954  0.3711 -1.3238 -0.9096
 1394TIP3   OH225740   4.093   1.811   8.095  0.5531 -0.2013  0.2145
 1394TIP3    H125741   4.052   1.732   8.060  3.2165 -1.0553 -1.2773
 1394TIP3    H225742   4.122   1.785   8.183  0.3524 -0.4807  0.2010
 1395TIP3   OH225743   1.097   1.607   2.056 -0.4257 -0.0634 -0.5850
 1395TIP3    H125744   1.058   1.547   2.119 -0.1928 -0.3023 -0.6675
 1395TIP3    H225745   1.118   1.685   2.107  1.4881 -0.9386  0.0533
 1396TIP3   OH225746   4.313   6.104   8.671 -0.4553 -0.0529  0.0477
 1396TIP3    H125747   4.307   6.136   8.761 -1.8565 -0.6345  0.1900
 1396TIP3    H225748   4.369   6.027   8.677  0.1753  0.4055  0.2562
 1397TIP3   OH225749   5.934   1.589   0.149  0.0690  0.1548 -0.2199
 1397TIP3    H125750   5.946   1.495   0.140 -1.3072 -0.6211  4.0112
 1397TIP3    H225751   6.014   1.619   0.192 -0.1000  0.6964 -0.2750
 1398TIP3   OH225752   3.623   1.161   2.279 -0.5828  0.4681  0.1917
 1398TIP3    H125753   3.659   1.135   2.364 -1.8392  0.5080  0.7547
 1398TIP3    H225754   3.530   1.174   2.296 -0.9419 -0.0160 -1.3123
 1399TIP3   OH225755   5.236   3.848   6.866 -0.4341  0.5452 -0.3040
 1399TIP3    H125756   5.140   3.849   6.871 -0.5141 -0.8110 -1.0854
 1399TIP3    H225757   5.255   3.876   6.776  0.0140  2.7150  0.4097
 1400TIP3   OH225758   2.291   0.159   7.535  0.3178  0.1783  0.5655
 1400TIP3    H125759   2.215   0.112   7.570  0.2338  0.2031  0.4171
 1400TIP3    H225760   2.348   0.171   7.611  0.1547  0.1971  0.6868
 1401TIP3   OH225761   4.482   2.339   2.286  0.1779 -0.0873 -0.2601
 1401TIP3    H125762   4.400   2.307   2.248 -1.2987  0.6016  2.1388
 1401TIP3    H225763   4.528   2.259   2.313 -0.4268 -0.4185 -0.2047
 1402TIP3   OH225764   2.909   5.865   2.178 -0.0684 -0.8243  0.0958
 1402TIP3    H125765   2.917   5.953   2.217 -1.7372  0.1062 -1.4977
 1402TIP3    H225766   2.994   5.825   2.191  1.6346  2.0091 -1.3677
 1403TIP3   OH225767   2.470   3.786   8.152  0.1254 -0.1521  0.3069
 1403TIP3    H125768   2.479   3.844   8.077 -1.6719  1.2203  1.0559
 1403TIP3    H225769   2.376   3.789   8.174  0.2014 -2.3108  1.2108
 1404TIP3   OH225770   1.151   6.206   1.707  0.2136 -0.5533  0.0708
 1404TIP3    H125771   1.193   6.285   1.739 -0.2069 -0.2170 -0.2011
 1404TIP3    H225772   1.211   6.172   1.641  0.4717 -0.5529  0.3022
 1405TIP3   OH225773   6.129   2.774   2.873  0.6092  0.1800  0.1414
 1405TIP3    H125774   6.149   2.744   2.784 -0.0177  2.2465 -0.7486
 1405TIP3    H225775   6.085   2.699   2.914 -0.1320 -0.4372 -1.6753
 1406TIP3   OH225776   3.612   4.390   1.221  0.1330 -0.2655 -0.2748
 1406TIP3    H125777   3.619   4.411   1.314  0.1791  0.5205 -0.4525
 1406TIP3    H225778   3.560   4.461   1.184  1.6606  0.4153 -1.1874
 1407TIP3   OH225779   4.950   2.538   1.266  0.5547  0.0144  0.1553
 1407TIP3    H125780   4.918   2.592   1.338 -1.5560  0.7650 -1.2731
 1407TIP3    H225781   4.871   2.502   1.226  1.7789 -2.2143 -0.4512
 1408TIP3   OH225782   2.976   5.802   1.434  0.0054  0.1969  0.4640
 1408TIP3    H125783   2.905   5.861   1.456  0.1323  0.6441 -0.2963
 1408TIP3    H225784   3.037   5.855   1.382 -0.6076 -0.9469 -1.5482
 1409TIP3   OH225785   4.683   5.842   7.676  0.8174  0.1279  0.7905
 1409TIP3    H125786   4.766   5.861   7.719  0.9547 -1.8704  1.4863
 1409TIP3    H225787   4.650   5.764   7.720  0.4958 -1.4871 -2.0817
 1410TIP3   OH225788   3.344   6.326   7.322 -0.5400  0.1337  0.2603
 1410TIP3    H125789   3.432   6.299   7.296  0.5635  1.8393  2.0359
 1410TIP3    H225790   3.287   6.285   7.257  1.4491 -1.8541 -0.3565
 1411TIP3   OH225791   0.666   2.792   7.480 -0.8019  0.1431  0.6865
 1411TIP3    H125792   0.700   2.784   7.391 -0.4339 -2.3703  0.9844
 1411TIP3    H225793   0.707   2.872   7.514  1.2314 -0.3166 -0.4945
 1412TIP3   OH225794   0.491   0.544   7.707  0.1410 -0.6156 -0.2726
 1412TIP3    H125795   0.453   0.460   7.732  1.0583 -0.4382  1.9220
 1412TIP3    H225796   0.432   0.578   7.640 -1.5953 -1.9062  0.5260
 1413TIP3   OH225797   3.314   5.093   8.823  0.4288 -0.4602 -0.4988
 1413TIP3    H125798   3.276   5.129   8.743  0.7548  0.3788 -0.2892
 1413TIP3    H225799   3.299   4.999   8.817 -0.8135 -0.2553 -0.8826
 1414TIP3   OH225800   5.838   3.165   0.758 -0.0770  0.0608  0.7080
 1414TIP3    H125801   5.777   3.100   0.724  0.6570 -0.6171  0.6455
 1414TIP3    H225802   5.811   3.247   0.717  0.1425 -0.5472 -0.7264
 1415TIP3   OH225803   1.524   5.713   7.844  0.5073  0.4822 -0.0735
 1415TIP3    H125804   1.438   5.671   7.848 -0.6381  2.6905  3.4111
 1415TIP3    H225805   1.506   5.801   7.811  1.9172  0.1854 -1.7610
 1416TIP3   OH225806   3.579   0.271   0.093 -0.5281 -0.0498  0.2522
 1416TIP3    H125807   3.533   0.317   0.023  0.2973  0.4502  0.0259
 1416TIP3    H225808   3.511   0.219   0.137 -1.0301 -0.4836 -0.9948
 1417TIP3   OH225809   2.328   4.992   0.331 -1.0903  0.3476  0.4265
 1417TIP3    H125810   2.323   5.033   0.244 -5.2701  3.5281  1.8353
 1417TIP3    H225811   2.246   4.943   0.339 -1.1332  0.6824  2.7905
 1418TIP3   OH225812   4.127   4.367   1.642 -0.5950 -0.4717  0.2293
 1418TIP3    H125813   4.195   4.367   1.575 -0.7600 -1.1684  0.0538
 1418TIP3    H225814   4.170   4.404   1.719 -0.5079  0.6737 -0.3446
 1419TIP3   OH225815   2.743   4.369   1.591  0.0795 -0.4382  0.9137
 1419TIP3    H125816   2.705   4.448   1.630 -0.7870  0.1508 -0.9747
 1419TIP3    H225817   2.836   4.374   1.611  0.2142  1.5997  0.0637
 1420TIP3   OH225818   2.556   0.237   1.102  0.5460  0.2055  0.9258
 1420TIP3    H125819   2.584   0.179   1.031 -1.8303  0.5979 -0.4512
 1420TIP3    H225820   2.524   0.177   1.170 -1.4920 -0.2027 -0.3104
 1421TIP3   OH225821   5.796   4.618   0.044  0.2124  0.3329 -0.3536
 1421TIP3    H125822   5.852   4.688   0.010  1.0420 -0.1274  0.0342
 1421TIP3    H225823   5.707   4.652   0.036  0.6451  1.7466  0.5378
 1422TIP3   OH225824   4.516   6.443   2.276  0.1129 -0.3495 -0.3121
 1422TIP3    H125825   4.515   6.480   2.364 -1.3329 -0.1656 -0.3869
 1422TIP3    H225826   4.428   6.409   2.263  0.0703  0.3158 -1.9908
 1423TIP3   OH225827   1.678   1.048   2.164 -0.0181  0.2537 -0.0121
 1423TIP3    H125828   1.718   0.983   2.106  0.2227  0.0004  0.4375
 1423TIP3    H225829   1.613   0.998   2.213  0.0930  0.3766  0.2579
 1424TIP3   OH225830   6.195   3.642   1.241  0.5128 -0.1895  0.6434
 1424TIP3    H125831   6.288   3.623   1.230 -0.1934 -3.3167 -1.2066
 1424TIP3    H225832   6.175   3.611   1.329  1.1494  0.1899  0.9285
 1425TIP3   OH225833   4.954   3.070   8.118 -0.1129 -0.2117  0.6176
 1425TIP3    H125834   4.899   3.110   8.050 -1.0227 -0.4730  1.1909
 1425TIP3    H225835   4.978   3.143   8.175 -0.5685 -0.2395  0.8453
 1426TIP3   OH225836   6.736   5.831   2.030  0.3791 -0.0878 -0.3622
 1426TIP3    H125837   6.701   5.838   2.119 -2.1598  0.9386 -1.3405
 1426TIP3    H225838   6.750   5.921   2.002 -0.2340 -0.3193 -1.4886
 1427TIP3   OH225839   1.721   5.396   8.684 -0.5081  0.4462 -0.1833
 1427TIP3    H125840   1.687   5.464   8.743 -1.1385  0.1286 -0.1734
 1427TIP3    H225841   1.688   5.314   8.720 -0.6198  0.2234 -0.7828
 1428TIP3   OH225842   4.207   0.405   1.670  0.1745  0.3787 -0.2567
 1428TIP3    H125843   4.141   0.338   1.687 -0.3355  0.7110 -0.8999
 1428TIP3    H225844   4.219   0.403   1.575  1.4534 -0.0207 -0.1115
 1429TIP3   OH225845   3.655   5.452   7.373  0.2809  0.0689  0.0303
 1429TIP3    H125846   3.691   5.384   7.316  0.7728  1.1616 -0.9996
 1429TIP3    H225847   3.581   5.488   7.324  0.3982  0.6747  0.2833
 1430TIP3   OH225848   3.999   5.104   1.350  0.1356  0.0070 -0.4822
 1430TIP3    H125849   4.047   5.152   1.418 -1.5469  0.7917  0.2124
 1430TIP3    H225850   4.008   5.158   1.272 -0.2872  0.5930 -0.1407
 1431TIP3   OH225851   5.060   3.676   7.556 -0.4878 -0.1226 -0.0435
 1431TIP3    H125852   5.138   3.642   7.513 -0.0342 -1.8124  1.9392
 1431TIP3    H225853   5.013   3.724   7.488  0.4256 -2.1697 -2.2211
 1432TIP3   OH225854   3.030   2.672   0.477  0.0159 -0.3006  0.2629
 1432TIP3    H125855   3.072   2.585   0.478  1.4434  0.3632  0.8170
 1432TIP3    H225856   2.937   2.653   0.464  0.4251 -1.8643 -0.7228
 1433TIP3   OH225857   4.059   6.138   8.039  0.0253 -0.5830 -0.1104
 1433TIP3    H125858   4.047   6.065   7.979  3.0697 -2.1970  1.0299
 1433TIP3    H225859   4.151   6.162   8.030 -0.4559  2.0016  0.8588
 1434TIP3   OH225860   1.484   4.491   0.281 -0.0671 -0.2650  0.3393
 1434TIP3    H125861   1.474   4.396   0.271  0.2658 -0.1803 -0.8750
 1434TIP3    H225862   1.394   4.524   0.282 -0.1880 -0.5846  0.8249
 1435TIP3   OH225863   1.753   5.173   0.288 -0.4874 -0.7741 -0.7789
 1435TIP3    H125864   1.664   5.201   0.309  0.3525  0.4605  1.4974
 1435TIP3    H225865   1.741   5.093   0.236 -2.9327 -1.5933  0.8333
 1436TIP3   OH225866   4.815   2.611   0.926  0.2491 -0.1856 -0.3782
 1436TIP3    H125867   4.784   2.583   1.012 -0.2917  0.5466 -0.3206
 1436TIP3    H225868   4.773   2.551   0.865 -1.5129  0.8855 -0.3125
 1437TIP3   OH225869   4.182   4.167   0.288 -0.5403 -0.1077  0.4820
 1437TIP3    H125870   4.137   4.216   0.220  1.8285  0.8465 -0.5046
 1437TIP3    H225871   4.126   4.091   0.304 -2.7322  1.2848 -0.2037
 1438TIP3   OH225872   1.191   2.650   1.424  0.5443 -0.1432  0.3431
 1438TIP3    H125873   1.207   2.642   1.518 -0.1028  0.3940  0.5049
 1438TIP3    H225874   1.213   2.564   1.388  1.4144 -0.1551  0.8898
 1439TIP3   OH225875   6.300   6.016   0.003 -0.1148 -0.3180  0.4089
 1439TIP3    H125876   6.260   6.081   0.062  0.1138 -0.5707  0.8457
 1439TIP3    H225877   6.282   5.932   0.045 -1.0280 -0.6113 -0.5091
 1440TIP3   OH225878   2.579   3.302   2.617 -0.2615  0.5374  0.1250
 1440TIP3    H125879   2.597   3.273   2.528  1.8288  0.3414  0.5689
 1440TIP3    H225880   2.572   3.222   2.668  0.0724  0.6791  0.3989
 1441TIP3   OH225881   6.787   4.689   1.417  0.4160 -0.2066  0.1138
 1441TIP3    H125882   6.876   4.722   1.404  0.9365 -1.8423 -0.7994
 1441TIP3    H225883   6.754   4.675   1.328 -0.4001 -0.5175  0.4583
 1442TIP3   OH225884   1.470   2.800   3.215  1.0060  0.4819 -0.6178
 1442TIP3    H125885   1.560   2.821   3.241  1.3662  0.8178 -2.0381
 1442TIP3    H225886   1.474   2.709   3.187  0.3647 -0.2574  1.4877
 1443TIP3   OH225887   1.770   3.628   7.972  0.7667 -0.4848  0.7600
 1443TIP3    H125888   1.855   3.669   7.984  1.2802 -1.0139 -0.8545
 1443TIP3    H225889   1.769   3.554   8.032  1.1469 -0.0416  1.3133
 1444TIP3   OH225890   5.956   6.624   0.490  0.6530  0.2223 -0.1875
 1444TIP3    H125891   6.008   6.603   0.568  0.7483 -2.5499 -0.8861
 1444TIP3    H225892   5.932   6.539   0.454 -1.5767  1.4240 -1.7847
 1445TIP3   OH225893   0.956   3.314   1.051  0.0528 -0.0174  0.3608
 1445TIP3    H125894   1.039   3.353   1.021 -0.3403  1.5437  1.2289
 1445TIP3    H225895   0.972   3.292   1.142  0.0117 -1.2515  0.0901
 1446TIP3   OH225896   4.640   3.354   7.315 -0.1029  0.1505  0.2517
 1446TIP3    H125897   4.555   3.381   7.279  0.0279  1.8879  1.1648
 1446TIP3    H225898   4.623   3.342   7.408  0.3576 -0.8667  0.2147
 1447TIP3   OH225899   1.180   3.894   8.657 -1.0105  0.2681  0.4022
 1447TIP3    H125900   1.204   3.817   8.707 -3.1135 -0.3226  0.6185
 1447TIP3    H225901   1.108   3.865   8.601  0.3085  1.2676 -1.9687
 1448TIP3   OH225902   0.769   3.669   8.181 -0.0063 -0.4633 -0.0972
 1448TIP3    H125903   0.708   3.725   8.133 -0.6153 -1.0203  0.0197
 1448TIP3    H225904   0.736   3.580   8.168  1.0924 -0.8331 -0.4840
 1449TIP3   OH225905   3.246   1.306   0.862 -0.5872  1.0600  0.2852
 1449TIP3    H125906   3.278   1.360   0.934  0.5189  2.6540 -1.3280
 1449TIP3    H225907   3.154   1.290   0.883 -0.5671  2.3750  1.5272
 1450TIP3   OH225908   5.485   4.728   0.058  0.4805 -0.0194  0.0209
 1450TIP3    H125909   5.439   4.648   0.083  1.7648 -0.4783  1.0325
 1450TIP3    H225910   5.514   4.767   0.141  1.7558  0.3313 -0.5535
 1451TIP3   OH225911   5.225   5.315   8.719  0.0623 -0.3892  0.4615
 1451TIP3    H125912   5.154   5.358   8.766  0.5433  0.1670  0.6932
 1451TIP3    H225913   5.236   5.231   8.764 -0.9173 -0.7960 -0.0288
 1452TIP3   OH225914   2.040   4.439   2.185 -0.1384  0.0626 -0.0690
 1452TIP3    H125915   2.084   4.378   2.126  0.5234 -0.7583  1.2328
 1452TIP3    H225916   2.101   4.512   2.196 -0.2836  0.2393 -0.4374
 1453TIP3   OH225917   1.018   5.293   0.864  0.0895  0.1864 -0.3024
 1453TIP3    H125918   1.033   5.383   0.834  1.1190  0.1818  0.1437
 1453TIP3    H225919   0.930   5.272   0.835 -0.5491  1.6941  0.4473
 1454TIP3   OH225920   0.523   5.678   0.763  0.3440 -0.1571  0.5135
 1454TIP3    H125921   0.600   5.734   0.775 -1.0451  1.6668  1.3397
 1454TIP3    H225922   0.505   5.642   0.849  0.2458 -0.5511  0.3311
 1455TIP3   OH225923   5.199   0.365   7.563  0.0015  0.2208  0.2844
 1455TIP3    H125924   5.291   0.391   7.552  0.1557  0.2894  1.5480
 1455TIP3    H225925   5.172   0.335   7.476  1.6178 -1.0355  0.1632
 1456TIP3   OH225926   3.180   6.064   7.663  0.0240  0.8676  0.0238
 1456TIP3    H125927   3.234   6.143   7.652  0.4241  0.4593 -1.0292
 1456TIP3    H225928   3.128   6.059   7.583 -1.3443  1.0435  0.8598
 1457TIP3   OH225929   5.529   6.741   1.755 -0.2948  0.5686 -0.4812
 1457TIP3    H125930   5.436   6.762   1.757 -0.1178  1.2996  0.4670
 1457TIP3    H225931   5.539   6.666   1.813 -0.2492  0.6719 -0.3558
 1458TIP3   OH225932   6.728   2.107   0.538 -0.0929  0.0008 -0.0734
 1458TIP3    H125933   6.683   2.025   0.556  0.5082  0.0184  1.6313
 1458TIP3    H225934   6.766   2.133   0.622  0.6373  1.4702 -0.8223
 1459TIP3   OH225935   4.462   1.147   1.965  0.2449  0.2801  0.5315
 1459TIP3    H125936   4.510   1.074   2.005 -0.5553 -0.9894 -0.7062
 1459TIP3    H225937   4.370   1.123   1.975 -0.0090  0.6542 -0.7103
 1460TIP3   OH225938   5.123   3.434   6.980 -0.2051 -0.2551  0.0362
 1460TIP3    H125939   5.077   3.351   6.993  0.3717 -0.5681  0.0746
 1460TIP3    H225940   5.215   3.410   6.968  0.1775  0.4565  1.3472
 1461TIP3   OH225941   4.986   3.207   7.041 -0.1677  0.1012 -0.5912
 1461TIP3    H125942   4.951   3.170   6.960 -0.9117 -1.4176  0.3707
 1461TIP3    H225943   5.049   3.142   7.072 -1.0773 -0.1519  0.8482
 1462TIP3   OH225944   1.545   6.074   7.122  0.0777 -0.2927 -0.0363
 1462TIP3    H125945   1.529   5.987   7.087 -0.3735 -0.5857  0.8673
 1462TIP3    H225946   1.574   6.060   7.212 -0.3715  0.4880  0.2502
 1463TIP3   OH225947   1.805   3.705   1.492  0.3817 -0.4696  0.7891
 1463TIP3    H125948   1.712   3.726   1.501  0.1151 -0.9959 -0.4816
 1463TIP3    H225949   1.836   3.763   1.423  0.2558 -2.2799 -0.9035
 1464TIP3   OH225950   2.201   2.034   1.435  0.2138 -0.3040  0.5741
 1464TIP3    H125951   2.215   2.082   1.516  0.5608 -0.4038  0.5744
 1464TIP3    H225952   2.106   2.035   1.422 -0.1463 -2.4436  2.3358
 1465TIP3   OH225953   5.398   6.594   8.775 -0.8454 -0.2917 -0.2884
 1465TIP3    H125954   5.450   6.580   8.855  0.0481 -0.1300 -0.8315
 1465TIP3    H225955   5.351   6.512   8.763 -0.8138 -0.4006  0.2776
 1466TIP3   OH225956   2.182   0.924   8.084  0.0398 -0.2289 -0.2367
 1466TIP3    H125957   2.248   0.921   8.015 -0.1612 -0.4171 -0.4212
 1466TIP3    H225958   2.224   0.884   8.159  0.6245  0.9027  0.0600
 1467TIP3   OH225959   1.950   2.289   8.184  0.5152  0.7837  0.5375
 1467TIP3    H125960   1.884   2.240   8.233  0.8326  0.9737  1.1597
 1467TIP3    H225961   1.943   2.379   8.217  2.2513  0.4785  1.8829
 1468TIP3   OH225962   6.238   0.123   2.498  0.9782 -0.3860  0.1105
 1468TIP3    H125963   6.313   0.081   2.540 -0.6111 -2.3261  1.1503
 1468TIP3    H225964   6.192   0.167   2.569  1.0613  0.7805 -0.5216
 1469TIP3   OH225965   5.762   5.848   8.589  0.2495  0.3159  0.2669
 1469TIP3    H125966   5.713   5.767   8.606  0.8172 -0.0651  0.1397
 1469TIP3    H225967   5.712   5.916   8.634 -0.2714 -0.0950  0.3273
 1470TIP3   OH225968   1.984   3.406   2.157  0.3807  0.5034 -0.0321
 1470TIP3    H125969   1.914   3.470   2.168 -1.7590 -1.8633  1.1570
 1470TIP3    H225970   2.001   3.373   2.245  1.4049 -0.5885 -0.6056
 1471TIP3   OH225971   2.026   2.743   8.740  0.6107 -0.3254  0.4068
 1471TIP3    H125972   1.954   2.806   8.746  0.9799  0.3365 -1.3671
 1471TIP3    H225973   2.062   2.738   8.828  0.2933  1.6400  0.6875
 1472TIP3   OH225974   1.697   3.129   0.717 -0.1357  0.0290 -0.0208
 1472TIP3    H125975   1.668   3.217   0.739  1.0725  1.5381 -3.7083
 1472TIP3    H225976   1.623   3.072   0.742 -2.4348  2.5069 -0.7388
 1473TIP3   OH225977   2.759   3.683   1.221 -0.2154  0.1088  0.0438
 1473TIP3    H125978   2.705   3.667   1.144  0.4402 -1.0327 -0.2094
 1473TIP3    H225979   2.706   3.655   1.295 -0.4281  0.1405 -0.0983
 1474TIP3   OH225980   2.657   0.978   7.617  0.0543 -0.1846 -0.0467
 1474TIP3    H125981   2.718   0.916   7.655 -0.2183 -1.1935 -1.1750
 1474TIP3    H225982   2.709   1.030   7.556 -0.1639 -0.9872 -0.9446
 1475TIP3   OH225983   2.362   4.907   7.673  0.0052 -0.1189  0.0499
 1475TIP3    H125984   2.350   4.865   7.758  0.6901  0.5278  0.4746
 1475TIP3    H225985   2.330   4.842   7.610 -2.3389  0.1274  0.8806
 1476TIP3   OH225986   5.596   1.616   8.630 -0.4192  0.8280 -0.4783
 1476TIP3    H125987   5.686   1.634   8.655 -0.3344 -1.3193  1.0501
 1476TIP3    H225988   5.604   1.561   8.551 -0.4486  1.4990 -0.9576
 1477TIP3   OH225989   5.702   5.072   1.916 -0.1988  0.2163  0.4425
 1477TIP3    H125990   5.748   5.104   1.839 -3.0227  5.0249  0.3479
 1477TIP3    H225991   5.726   5.134   1.986 -1.4817 -1.0666  2.1180
 1478TIP3   OH225992   4.729   6.465   7.729  0.5540  0.3592 -0.1682
 1478TIP3    H125993   4.714   6.451   7.636 -0.5144  0.3818 -0.0127
 1478TIP3    H225994   4.763   6.555   7.735 -2.5111  1.6610 -0.2991
 1479TIP3   OH225995   6.484   5.274   1.335  0.6555 -0.0175 -0.5496
 1479TIP3    H125996   6.418   5.285   1.403  1.7229  0.2726  0.4812
 1479TIP3    H225997   6.459   5.193   1.291 -0.1370 -0.1514  0.1048
 1480TIP3   OH225998   2.912   6.420   1.398 -0.1156 -0.3974  0.7705
 1480TIP3    H125999   2.880   6.395   1.485  0.5414 -1.3217  0.7575
 1480TIP3    H226000   3.006   6.437   1.412 -0.3858  1.3910  0.6298
 1481TIP3   OH226001   3.146   4.136   6.946  0.2004 -0.1169 -0.2432
 1481TIP3    H126002   3.179   4.224   6.964 -0.0319 -0.2815  1.0735
 1481TIP3    H226003   3.087   4.147   6.872 -1.1501  1.1682  0.9613
 1482TIP3   OH226004   6.163   5.579   0.053  0.3575 -0.0520 -0.0306
 1482TIP3    H126005   6.234   5.635   0.082 -1.6094  2.1996  0.7462
 1482TIP3    H226006   6.083   5.621   0.087 -1.2779 -3.2702  0.4981
 1483TIP3   OH226007   1.860   6.017   7.741  0.4599 -0.0992  0.0997
 1483TIP3    H126008   1.900   6.014   7.654  1.3120  1.3379  0.4155
 1483TIP3    H226009   1.803   6.094   7.739  0.1650 -0.2960  0.6768
 1484TIP3   OH226010   2.210   4.925   8.373 -0.0750  0.8923  0.1395
 1484TIP3    H126011   2.124   4.884   8.385 -0.5989  1.2410 -1.9811
 1484TIP3    H226012   2.270   4.871   8.424 -1.3734 -0.0339  0.7483
 1485TIP3   OH226013   2.795   6.392   0.103 -0.3799  0.2355 -0.2879
 1485TIP3    H126014   2.852   6.463   0.132 -0.6989  0.1634  0.5237
 1485TIP3    H226015   2.785   6.336   0.180  0.6717 -1.2356 -1.1794
 1486TIP3   OH226016   2.760   3.975   1.230  0.1717 -0.1262 -0.0215
 1486TIP3    H126017   2.769   3.880   1.242 -2.2444 -0.5120 -0.6651
 1486TIP3    H226018   2.749   4.009   1.319  0.2448 -0.5610  0.1581
 1487TIP3   OH226019   1.502   1.845   1.364 -0.0045 -0.2164  0.3093
 1487TIP3    H126020   1.580   1.793   1.345  1.1441  1.9862 -1.6175
 1487TIP3    H226021   1.513   1.872   1.456  1.5034 -0.0322  0.1095
 1488TIP3   OH226022   3.272   0.746   1.726 -0.2816 -0.1237  0.2401
 1488TIP3    H126023   3.241   0.718   1.812  0.5201  0.3230  0.6870
 1488TIP3    H226024   3.348   0.801   1.745  1.4848 -2.0602 -0.8352
 1489TIP3   OH226025   2.754   1.525   0.233  0.0989 -0.0688  0.0563
 1489TIP3    H126026   2.755   1.574   0.315 -0.4022  0.3964 -0.2098
 1489TIP3    H226027   2.818   1.455   0.247  0.4010  0.3095  0.6530
 1490TIP3   OH226028   5.698   4.456   8.189 -0.1495 -0.1605  0.0781
 1490TIP3    H126029   5.626   4.484   8.133 -0.4943  0.0987  0.6313
 1490TIP3    H226030   5.671   4.484   8.277 -1.2468 -3.5771  0.9882
 1491TIP3   OH226031   4.041   5.938   0.023  0.5251 -0.2207 -0.1223
 1491TIP3    H126032   4.085   5.861  -0.011  0.7865 -0.5713  0.9806
 1491TIP3    H226033   3.997   5.976  -0.054  2.1312 -0.2507 -1.1125
 1492TIP3   OH226034   4.662   4.116   0.665  0.0349 -0.2865  0.2660
 1492TIP3    H126035   4.736   4.101   0.723  0.6536  0.1447 -0.3870
 1492TIP3    H226036   4.700   4.160   0.589 -0.5829 -1.6921 -0.9026
 1493TIP3   OH226037   2.518   5.144   6.621 -0.4996  0.6080 -0.1385
 1493TIP3    H126038   2.469   5.110   6.696  1.6441 -0.5631  0.8485
 1493TIP3    H226039   2.556   5.065   6.581  0.6275  1.4529 -0.7795
 1494TIP3   OH226040   0.740   1.353   8.709  0.3743  0.1353 -0.1593
 1494TIP3    H126041   0.799   1.280   8.693 -0.0169 -0.4215  0.8644
 1494TIP3    H226042   0.701   1.335   8.794 -0.4852  1.0268 -0.3379
 1495TIP3   OH226043   4.124   5.878   6.935  0.6004  0.5427 -0.1210
 1495TIP3    H126044   4.175   5.938   6.991  0.9792 -1.7547  2.1750
 1495TIP3    H226045   4.112   5.800   6.989 -2.4522 -0.3517 -1.8818
 1496TIP3   OH226046   0.302   5.289   8.060 -0.3525  0.2131 -0.3170
 1496TIP3    H126047   0.318   5.299   7.966 -1.5835 -0.8574 -0.6667
 1496TIP3    H226048   0.338   5.202   8.081  1.5505  1.1557  0.6192
 1497TIP3   OH226049   0.930   5.084   3.352 -0.2331 -0.0156  0.1435
 1497TIP3    H126050   0.869   5.131   3.409  1.3278  0.2592  1.6676
 1497TIP3    H226051   1.015   5.127   3.367  0.1643  0.5150 -2.8964
 1498TIP3   OH226052   1.186   6.786   8.606  0.1908 -0.5746  0.1753
 1498TIP3    H126053   1.127   6.757   8.676 -2.2389  2.4246 -0.3762
 1498TIP3    H226054   1.129   6.798   8.530  2.3567 -1.5535 -1.7257
 1499TIP3   OH226055   0.660   1.786   1.700 -0.2400 -0.6943  0.4637
 1499TIP3    H126056   0.697   1.874   1.706  2.8145 -1.9360  3.1806
 1499TIP3    H226057   0.623   1.770   1.787 -0.5090 -2.1602  0.1047
 1500TIP3   OH226058   5.501   3.396   1.558  0.0033 -0.3499 -0.1826
 1500TIP3    H126059   5.423   3.359   1.515 -0.3963  0.8558 -0.5371
 1500TIP3    H226060   5.560   3.321   1.568 -1.2687 -1.3347  0.2605
 1501TIP3   OH226061   2.271   4.880   1.371 -0.4422  0.1227 -0.2833
 1501TIP3    H126062   2.176   4.869   1.382 -0.4489 -0.6790 -1.0246
 1501TIP3    H226063   2.286   4.974   1.385 -1.1153  0.0196  1.3594
 1502TIP3   OH226064   5.376   0.542   2.345 -0.0229  1.2491 -0.1426
 1502TIP3    H126065   5.367   0.637   2.345  0.9520  1.3589  0.3030
 1502TIP3    H226066   5.450   0.526   2.286 -1.1867  0.6314 -1.5101
 1503TIP3   OH226067   2.196   2.027   8.238 -0.0057 -0.2359 -0.1307
 1503TIP3    H126068   2.103   2.012   8.257 -0.3432  1.0109 -0.6511
 1503TIP3    H226069   2.209   1.987   8.153 -0.5083  0.9638 -0.8076
 1504TIP3   OH226070   5.685   0.220   7.942  0.1555  0.7997 -0.0143
 1504TIP3    H126071   5.714   0.129   7.941 -0.6838  0.5158 -1.6779
 1504TIP3    H226072   5.604   0.219   7.992 -0.6844  0.3323 -1.3515
 1505TIP3   OH226073   2.404   4.419   2.456 -0.4254 -0.1680  0.5914
 1505TIP3    H126074   2.430   4.368   2.380 -2.5172 -0.6285  0.1135
 1505TIP3    H226075   2.399   4.355   2.527 -1.0699 -0.2676  0.4657
 1506TIP3   OH226076   4.139   2.109   8.695  0.0463  0.0446 -0.1178
 1506TIP3    H126077   4.136   2.068   8.782 -0.6648 -0.0880 -0.2008
 1506TIP3    H226078   4.202   2.181   8.705  0.3277 -0.2675  0.3775
 1507TIP3   OH226079   6.557   1.996   8.741  0.0985  0.1688  0.0128
 1507TIP3    H126080   6.540   2.083   8.705  1.0266  0.4058  0.1232
 1507TIP3    H226081   6.480   1.945   8.718 -0.1325  0.8218 -0.6914
 1508TIP3   OH226082   1.360   0.597   0.056  0.0935 -0.0448 -0.2592
 1508TIP3    H126083   1.419   0.627  -0.013  0.6409 -0.2995  0.0866
 1508TIP3    H226084   1.414   0.538   0.109  0.1243  1.2573  1.2442
 1509TIP3   OH226085   0.164   4.882   7.646 -0.2692 -0.2567  0.0081
 1509TIP3    H126086   0.202   4.795   7.655  0.8200  0.0332 -1.5060
 1509TIP3    H226087   0.234   4.942   7.670 -1.0156  0.2219  1.0507
 1510TIP3   OH226088   2.427   6.499   1.254  0.0643 -0.5079 -0.4634
 1510TIP3    H126089   2.382   6.522   1.335  2.3553  0.5873  0.5913
 1510TIP3    H226090   2.457   6.409   1.269 -0.0886 -0.5449 -0.3749
 1511TIP3   OH226091   1.207   3.462   1.117  0.2667 -0.0842  0.4516
 1511TIP3    H126092   1.232   3.476   1.209 -0.1495  0.6871  0.4569
 1511TIP3    H226093   1.263   3.523   1.068 -0.3317  0.3547  0.3037
 1512TIP3   OH226094   3.193   1.187   8.069 -0.2964  0.0639 -0.1620
 1512TIP3    H126095   3.233   1.269   8.096 -0.4153  0.0431  0.0833
 1512TIP3    H226096   3.101   1.208   8.055 -0.5513 -0.2395  0.9198
 1513TIP3   OH226097   6.218   2.902   7.133  0.6857  0.0993  0.6105
 1513TIP3    H126098   6.144   2.842   7.127  0.0932  0.8627  0.2015
 1513TIP3    H226099   6.295   2.845   7.132  0.1777 -0.6133 -0.8506
 1514TIP3   OH226100   3.613   0.095   7.563 -0.2067 -0.0382 -0.0969
 1514TIP3    H126101   3.684   0.062   7.509  1.8649  1.1785  1.6932
 1514TIP3    H226102   3.566   0.157   7.507 -0.3385 -1.3766 -1.5215
 1515TIP3   OH226103   6.518   3.762   0.431  0.3084 -0.0873 -0.1715
 1515TIP3    H126104   6.564   3.714   0.363  0.5342 -0.6146  0.3436
 1515TIP3    H226105   6.516   3.853   0.400  2.1997  0.0730  0.0481
 1516TIP3   OH226106   4.445   3.003   8.796  0.4576 -0.2983  0.3697
 1516TIP3    H126107   4.409   2.963   8.875 -0.6979  0.4262  0.2337
 1516TIP3    H226108   4.413   2.949   8.724 -1.9501  1.2944  0.0960
 1517TIP3   OH226109   1.724   0.040   1.813 -0.0322 -0.0244  0.6611
 1517TIP3    H126110   1.691   0.106   1.874  1.3862 -0.4796  1.9975
 1517TIP3    H226111   1.771   0.091   1.746  0.1025  0.3976  1.0667
 1518TIP3   OH226112   1.688   1.911   1.100 -0.2651  0.4310  0.2450
 1518TIP3    H126113   1.664   1.823   1.128  1.3233 -0.6180 -1.4589
 1518TIP3    H226114   1.635   1.927   1.022  1.8139 -0.4588 -1.4386
 1519TIP3   OH226115   3.668   3.919   8.167 -0.0738  0.8050 -0.6165
 1519TIP3    H126116   3.608   3.981   8.207 -0.3042  0.5551 -0.5726
 1519TIP3    H226117   3.711   3.968   8.097 -0.4762  0.9252 -0.7786
 1520TIP3   OH226118   5.772   1.914   2.190 -0.3383 -0.4127  0.7936
 1520TIP3    H126119   5.735   1.989   2.144 -0.4132  0.0146  1.5350
 1520TIP3    H226120   5.747   1.838   2.137 -0.0181  0.1006 -0.1179
 1521TIP3   OH226121   2.173   5.883   1.783  0.3885 -0.1824  0.1884
 1521TIP3    H126122   2.120   5.956   1.751 -0.5767 -0.4851  1.0539
 1521TIP3    H226123   2.198   5.908   1.872  3.1202  0.6898 -0.7077
 1522TIP3   OH226124   3.877   1.179   0.917  0.3937 -0.0228  0.4575
 1522TIP3    H126125   3.837   1.186   0.830 -0.8423  0.9446  1.0577
 1522TIP3    H226126   3.902   1.087   0.926 -0.5683 -0.3882 -0.4601
 1523TIP3   OH226127   0.592   3.658   8.791  0.2261  0.3544  0.4376
 1523TIP3    H126128   0.635   3.597   8.731  1.1399 -0.1433  1.5543
 1523TIP3    H226129   0.620   3.744   8.761 -0.7401  0.2390 -0.9017
 1524TIP3   OH226130   6.554   5.062   0.073  0.2489  0.4696 -0.0800
 1524TIP3    H126131   6.523   5.151   0.090 -0.9693 -0.1201  0.9094
 1524TIP3    H226132   6.548   5.017   0.157  1.8529 -0.2869 -0.3207
 1525TIP3   OH226133   6.040   5.946   1.911  0.8888 -0.3500 -0.5911
 1525TIP3    H126134   6.075   5.990   1.833  0.6234  2.6996  0.8840
 1525TIP3    H226135   6.114   5.944   1.972  0.2437  0.2892  0.2289
 1526TIP3   OH226136   5.829   5.044   8.012  0.6582 -0.0633  0.5449
 1526TIP3    H126137   5.896   5.036   7.944  0.5887 -0.3789  0.5122
 1526TIP3    H226138   5.748   5.061   7.964  0.6471 -0.0599  0.5643
 1527TIP3   OH226139   5.810   1.004   2.227 -0.3244 -0.2725 -0.2092
 1527TIP3    H126140   5.852   0.918   2.225  3.6614  1.5163 -1.4108
 1527TIP3    H226141   5.775   1.017   2.139  0.9740  0.1452 -0.6772
 1528TIP3   OH226142   6.433   0.861   1.197 -1.3084  0.0646 -0.5157
 1528TIP3    H126143   6.368   0.796   1.225 -2.8969  2.1297  0.9412
 1528TIP3    H226144   6.389   0.945   1.210  1.9731  1.6621  1.5094
 1529TIP3   OH226145   5.878   2.307   7.563 -0.3717  0.3302  0.2995
 1529TIP3    H126146   5.871   2.396   7.595 -0.8615 -0.0482  1.2933
 1529TIP3    H226147   5.906   2.316   7.471  0.1307  1.4677  0.5475
 1530TIP3   OH226148   1.975   2.883   6.819 -0.0521  0.3724  0.7241
 1530TIP3    H126149   1.966   2.855   6.728 -0.1463 -0.5520  0.9990
 1530TIP3    H226150   1.931   2.968   6.823  0.6076  0.7788 -0.2488
 1531TIP3   OH226151   5.074   4.128   6.734 -0.0524  0.5301 -0.2481
 1531TIP3    H126152   5.039   4.039   6.741  1.2170 -0.2392 -2.5195
 1531TIP3    H226153   5.064   4.151   6.642  3.2725  1.0663 -0.6253
 1532TIP3   OH226154   5.272   2.027   0.311  0.3754 -0.1937  0.1832
 1532TIP3    H126155   5.181   1.999   0.322  0.5749 -1.2303 -0.6455
 1532TIP3    H226156   5.285   2.094   0.378 -0.9838 -0.0559  0.3385
 1533TIP3   OH226157   2.150   2.513   6.409  0.0512 -0.1036  0.2345
 1533TIP3    H126158   2.215   2.498   6.340  0.4031 -0.3724  0.6247
 1533TIP3    H226159   2.066   2.494   6.366  0.2826 -0.4946 -0.0582
 1534TIP3   OH226160   3.189   6.064   7.943  0.0293 -0.4029  0.2087
 1534TIP3    H126161   3.116   6.104   7.989 -1.0197 -1.1418 -0.7717
 1534TIP3    H226162   3.164   6.067   7.850  1.6089  0.0833 -0.2313
 1535TIP3   OH226163   4.677   5.393   6.718  0.3993 -0.2412 -0.3527
 1535TIP3    H126164   4.699   5.300   6.704 -2.5255 -0.8662 -1.4873
 1535TIP3    H226165   4.632   5.395   6.802  2.9433  0.7158  1.0846
 1536TIP3   OH226166   2.203   2.774   2.829  0.0284  0.7048  0.1327
 1536TIP3    H126167   2.112   2.788   2.801 -0.0335  0.2230  0.0829
 1536TIP3    H226168   2.194   2.725   2.911  0.2729 -2.0126 -1.3591
 1537TIP3   OH226169   4.234   1.758   8.340  0.6951 -0.4580  0.3045
 1537TIP3    H126170   4.252   1.826   8.405 -0.1017 -0.2224  0.2807
 1537TIP3    H226171   4.309   1.698   8.347  0.8641 -0.1635  1.0820
 1538TIP3   OH226172   6.790   5.185   2.323  0.2102  0.8039 -0.3192
 1538TIP3    H126173   6.884   5.192   2.340 -0.0820  1.2277  1.2357
 1538TIP3    H226174   6.781   5.212   2.231  1.3902  2.7161  0.0545
 1539TIP3   OH226175   3.128   2.452   2.417 -0.3353 -0.1209 -0.5236
 1539TIP3    H126176   3.061   2.394   2.455  0.3627 -1.2435 -0.9709
 1539TIP3    H226177   3.121   2.438   2.323  0.5699 -0.2971 -0.5704
 1540TIP3   OH226178   4.903   4.553   8.377  0.1295  0.2373 -0.2276
 1540TIP3    H126179   4.937   4.620   8.436 -0.1399  0.9161 -0.8312
 1540TIP3    H226180   4.874   4.602   8.300 -0.7227 -0.5028 -0.3846
 1541TIP3   OH226181   1.536   4.742   0.736 -0.1237 -0.2789 -0.6242
 1541TIP3    H126182   1.564   4.797   0.809  0.2805  0.5350 -1.3686
 1541TIP3    H226183   1.586   4.661   0.746  0.5712  0.1563 -0.4732
 1542TIP3   OH226184   5.603   3.879   0.978  0.5844  0.1277  0.8210
 1542TIP3    H126185   5.517   3.871   1.018 -0.2536 -0.6769 -1.0463
 1542TIP3    H226186   5.623   3.791   0.946  1.2832  0.6920 -0.3696
 1543TIP3   OH226187   2.097   5.781   1.208 -0.7935 -0.2707 -0.3111
 1543TIP3    H126188   2.160   5.721   1.167 -1.7015 -1.5882  0.1512
 1543TIP3    H226189   2.102   5.761   1.301 -0.6452  0.8509 -0.0723
 1544TIP3   OH226190   5.569   6.261   1.817  0.3758 -0.0150  0.1295
 1544TIP3    H126191   5.598   6.350   1.839 -1.5692  1.5500 -2.9238
 1544TIP3    H226192   5.647   6.218   1.782  0.8471  1.3924 -0.6361
 1545TIP3   OH226193   3.405   1.220   7.655  0.6952  0.2514 -0.0421
 1545TIP3    H126194   3.369   1.209   7.567  1.2274  0.4298 -0.2849
 1545TIP3    H226195   3.357   1.293   7.692  0.4779  0.1835 -0.1881
 1546TIP3   OH226196   5.430   0.876   8.264 -0.6502 -0.2269  0.2286
 1546TIP3    H126197   5.382   0.900   8.343  1.2777  1.1522  1.0556
 1546TIP3    H226198   5.419   0.781   8.257 -2.9162 -0.0424  0.7114
 1547TIP3   OH226199   2.903   0.726   2.345  0.3990 -0.5600  0.9479
 1547TIP3    H126200   2.884   0.635   2.370 -0.2348 -0.7287 -0.1226
 1547TIP3    H226201   2.885   0.730   2.251  0.6944  0.6091  0.9262
 1548TIP3   OH226202   2.249   5.853   0.420  0.4159 -0.3912  0.6416
 1548TIP3    H126203   2.154   5.849   0.430  0.2224 -0.0502 -0.8964
 1548TIP3    H226204   2.264   5.914   0.348  1.8162 -0.2970  0.9780
 1549TIP3   OH226205   1.501   6.747   2.249 -0.3433 -0.4269 -0.3418
 1549TIP3    H126206   1.568   6.811   2.274 -2.2926  1.1807  1.1213
 1549TIP3    H226207   1.545   6.662   2.255  1.5676  0.5490  0.4376
 1550TIP3   OH226208   0.981   1.704   0.328  0.2128 -0.5615 -0.3188
 1550TIP3    H126209   1.036   1.726   0.404 -0.4756  0.1102 -0.0072
 1550TIP3    H226210   1.027   1.631   0.286  1.0935 -0.3276  0.2101
 1551TIP3   OH226211   2.110   5.437   8.615 -0.6467 -0.4025  0.3658
 1551TIP3    H126212   2.151   5.351   8.606 -0.0725 -0.4220  2.5182
 1551TIP3    H226213   2.120   5.478   8.529  1.1814 -1.5901 -0.0417
 1552TIP3   OH226214   2.383   5.069   6.839  0.6380  0.3934 -0.1436
 1552TIP3    H126215   2.461   5.074   6.894  1.0535 -0.9034 -0.5835
 1552TIP3    H226216   2.313   5.045   6.899  0.6123  1.3007  0.2065
 1553TIP3   OH226217   5.593   0.403   2.193  0.4777  0.4685 -0.0688
 1553TIP3    H126218   5.689   0.407   2.190  0.4180  1.4295 -1.3613
 1553TIP3    H226219   5.567   0.385   2.103 -0.5345 -1.0041  0.4822
 1554TIP3   OH226220   3.916   3.288   8.755  0.6351  0.3357 -0.0591
 1554TIP3    H126221   3.822   3.280   8.740  0.3847  2.3213  0.1354
 1554TIP3    H226222   3.928   3.262   8.846  0.5301 -1.2823 -0.4657
 1555TIP3   OH226223   4.035   3.388   7.735 -0.9374  0.3147 -0.0113
 1555TIP3    H126224   4.053   3.465   7.790  3.3218 -0.5606  0.1270
 1555TIP3    H226225   4.068   3.412   7.649 -0.7621 -0.9174 -0.2956
 1556TIP3   OH226226   0.539   0.870   1.753  0.1372  0.1132  0.2541
 1556TIP3    H126227   0.587   0.825   1.823 -1.6307 -1.5275  0.5128
 1556TIP3    H226228   0.538   0.962   1.780  0.6757 -0.2601  1.6712
 1557TIP3   OH226229   2.525   5.203   2.436  0.6232  0.2202  0.4412
 1557TIP3    H126230   2.551   5.255   2.513 -1.3375 -0.3946  1.5863
 1557TIP3    H226231   2.555   5.114   2.456  1.0278  0.2537  0.0010
 1558TIP3   OH226232   3.536   1.284   0.899 -0.1921  0.1172 -0.0486
 1558TIP3    H126233   3.443   1.267   0.886 -0.5585  2.3531 -0.8205
 1558TIP3    H226234   3.548   1.283   0.994 -1.5954  2.2378  0.2294
 1559TIP3   OH226235   0.688   0.674   7.869 -0.0616  0.3682 -0.3945
 1559TIP3    H126236   0.626   0.644   7.802  1.1009 -2.0250 -0.4917
 1559TIP3    H226237   0.666   0.623   7.947  0.2492  1.2760  0.3022
 1560TIP3   OH226238   3.320   5.075   6.880  0.6622  0.0747 -0.2292
 1560TIP3    H126239   3.271   5.155   6.857  0.1329 -0.2606 -0.2864
 1560TIP3    H226240   3.290   5.010   6.816 -0.0990 -0.6004  0.7802
 1561TIP3   OH226241   3.216   1.650   0.431  0.3947 -0.1397  1.0983
 1561TIP3    H126242   3.225   1.617   0.342 -1.0802 -2.4763  1.7312
 1561TIP3    H226243   3.130   1.694   0.432  0.0033 -0.8944  1.5636
 1562TIP3   OH226244   5.156   0.057   0.600 -0.5980 -0.7096 -0.1815
 1562TIP3    H126245   5.204   0.110   0.663  1.0217 -0.7927 -1.2769
 1562TIP3    H226246   5.079   0.026   0.647 -0.6935  1.2132  0.9889
 1563TIP3   OH226247   1.874   4.873   7.552  0.2086 -0.1771  0.8433
 1563TIP3    H126248   1.928   4.860   7.630 -2.0962 -2.0940  2.2357
 1563TIP3    H226249   1.820   4.795   7.547  0.0342  0.0316 -2.5597
 1564TIP3   OH226250   4.619   2.820   7.392 -0.4609  0.0494 -0.5708
 1564TIP3    H126251   4.653   2.902   7.428 -1.5480  0.3744 -0.2697
 1564TIP3    H226252   4.689   2.789   7.334  0.5306  0.4714  0.3722
 1565TIP3   OH226253   5.344   1.887   1.426  0.2234  0.1926 -0.0666
 1565TIP3    H126254   5.396   1.878   1.347  0.3002 -0.3940  0.0481
 1565TIP3    H226255   5.407   1.877   1.498  0.5969  3.0564  0.1178
 1566TIP3   OH226256   2.660   6.266   8.151  0.2726 -0.2871  0.3355
 1566TIP3    H126257   2.709   6.219   8.218  2.1385  0.6723 -0.2856
 1566TIP3    H226258   2.641   6.200   8.084  1.7737 -0.4427  0.0445
 1567TIP3   OH226259   3.958   6.512   0.435 -0.0162 -0.1192 -0.1486
 1567TIP3    H126260   3.876   6.464   0.432  0.0809 -0.2910 -0.0255
 1567TIP3    H226261   4.018   6.461   0.380  0.6964 -1.2716  1.6343
 1568TIP3   OH226262   6.186   4.051   2.025  0.2473  0.2269  0.0502
 1568TIP3    H126263   6.119   4.112   2.057  0.0066 -0.1110  0.1933
 1568TIP3    H226264   6.257   4.058   2.089  0.1392  0.2128  0.1708
 1569TIP3   OH226265   2.526   1.728   0.208  0.0181  0.1040  0.3041
 1569TIP3    H126266   2.533   1.661   0.140 -1.0888  0.2592  0.0167
 1569TIP3    H226267   2.592   1.793   0.186  1.1313 -0.8906  0.5985
 1570TIP3   OH226268   1.530   2.045   1.905  0.1478 -0.1056 -0.0222
 1570TIP3    H126269   1.504   2.084   1.988 -0.1079 -0.7812  0.2152
 1570TIP3    H226270   1.626   2.044   1.908  0.2173  1.4666 -0.4820
 1571TIP3   OH226271   0.417   4.121   2.104 -0.1433  0.0117  0.2560
 1571TIP3    H126272   0.323   4.129   2.085 -0.2651 -0.1909  0.7616
 1571TIP3    H226273   0.428   4.031   2.135  0.0911  0.2657  0.9157
 1572TIP3   OH226274   2.667   3.580   1.459  0.5215 -0.3496  0.2686
 1572TIP3    H126275   2.625   3.513   1.406  0.6060  0.4388 -0.8276
 1572TIP3    H226276   2.736   3.534   1.506  1.7293 -0.7465 -1.7828
 1573TIP3   OH226277   0.595   1.708   8.474  0.5097  0.1245  0.9383
 1573TIP3    H126278   0.603   1.617   8.502 -2.1142  0.0097  1.6145
 1573TIP3    H226279   0.546   1.704   8.392  0.5279  0.9119  0.8808
 1574TIP3   OH226280   6.114   5.994   0.957 -0.3708 -0.3244  0.1912
 1574TIP3    H126281   6.144   5.977   0.867 -1.0056 -0.5449  0.0207
 1574TIP3    H226282   6.179   5.950   1.012  1.2461  1.5596 -0.0576
 1575TIP3   OH226283   1.401   3.153   2.570  0.2761 -0.2056  0.2293
 1575TIP3    H126284   1.430   3.242   2.547 -1.2159 -0.0716 -1.3762
 1575TIP3    H226285   1.453   3.130   2.647 -0.7830  2.8900  2.0532
 1576TIP3   OH226286   2.948   3.428   0.622  0.0279 -0.0134  0.3300
 1576TIP3    H126287   2.864   3.462   0.653  0.4087  0.6312  0.6779
 1576TIP3    H226288   2.987   3.387   0.699 -0.0297 -0.4447  0.1326
 1577TIP3   OH226289   3.958   2.842   1.131 -0.4215  0.4201  0.0719
 1577TIP3    H126290   4.004   2.777   1.184  0.1279  1.3855  0.8160
 1577TIP3    H226291   3.890   2.877   1.188 -1.3925 -0.2086 -0.6637
 1578TIP3   OH226292   3.980   3.652   1.712 -0.0139 -0.0340 -0.0933
 1578TIP3    H126293   4.038   3.719   1.675  0.0756  0.8295  1.5320
 1578TIP3    H226294   3.902   3.654   1.657 -0.0471  1.4769 -0.0184
 1579TIP3   OH226295   0.600   0.169   7.846  0.5884  0.3249 -0.3075
 1579TIP3    H126296   0.588   0.221   7.767  2.0777 -1.4969 -1.8300
 1579TIP3    H226297   0.685   0.198   7.881  1.6612 -1.2604 -1.4285
 1580TIP3   OH226298   6.803   2.229   0.784  0.0982 -0.0475  0.4130
 1580TIP3    H126299   6.751   2.305   0.758 -1.7942 -1.1257  0.9159
 1580TIP3    H226300   6.882   2.267   0.823 -0.0956  1.6273 -0.7184
 1581TIP3   OH226301   0.393   6.669   8.166  0.6518 -0.5722 -0.2285
 1581TIP3    H126302   0.428   6.589   8.207 -0.0218 -0.6571  0.1883
 1581TIP3    H226303   0.310   6.641   8.127  0.1449  0.0590  0.4001
 1582TIP3   OH226304   4.122   2.712   8.805  0.0165  0.1425  0.1325
 1582TIP3    H126305   4.107   2.667   8.888 -0.8124 -0.1424 -0.1606
 1582TIP3    H226306   4.216   2.707   8.791  0.3621  1.3429  1.7108
 1583TIP3   OH226307   4.637   0.419   2.746  0.0647  0.0904 -0.4187
 1583TIP3    H126308   4.542   0.430   2.736  0.2066  3.9483  0.8790
 1583TIP3    H226309   4.674   0.461   2.668  0.7112 -0.1807 -0.2581
 1584TIP3   OH226310   2.145   4.701   7.274  0.3653 -0.3685 -0.6910
 1584TIP3    H126311   2.101   4.758   7.210 -1.7595  0.7871  1.6305
 1584TIP3    H226312   2.111   4.613   7.254 -1.0053  0.1149 -0.6397
 1585TIP3   OH226313   1.239   3.936   2.362 -0.5193  0.7812  0.0834
 1585TIP3    H126314   1.164   3.888   2.327 -0.0610  0.5007 -0.5133
 1585TIP3    H226315   1.208   3.968   2.447 -1.3569  0.7744 -0.2062
 1586TIP3   OH226316   4.341   5.415   1.706  0.0309  0.0060  0.3194
 1586TIP3    H126317   4.389   5.445   1.783  0.2117  0.4226  0.0472
 1586TIP3    H226318   4.347   5.319   1.710 -0.3106  0.0122  1.0354
 1587TIP3   OH226319   2.531   5.950   3.265  0.4518  0.6758 -0.1800
 1587TIP3    H126320   2.546   6.044   3.278  0.0330  0.6638  0.4346
 1587TIP3    H226321   2.438   5.943   3.243  0.6938  0.4875 -1.2064
 1588TIP3   OH226322   0.436   4.319   1.138 -0.2411  0.1431 -0.3024
 1588TIP3    H126323   0.463   4.358   1.055 -0.4866  2.3860  0.6054
 1588TIP3    H226324   0.413   4.394   1.193  0.9863 -1.1937  2.1672
 1589TIP3   OH226325   1.355   4.883   2.207 -0.1023 -0.5258  0.1892
 1589TIP3    H126326   1.437   4.838   2.225  0.0775 -0.6296 -0.8328
 1589TIP3    H226327   1.377   4.976   2.211 -0.2089 -0.5396  1.1243
 1590TIP3   OH226328   5.390   1.335   8.158 -0.0605  0.1858  0.5261
 1590TIP3    H126329   5.382   1.289   8.241 -0.4040  0.1068  0.4495
 1590TIP3    H226330   5.482   1.323   8.133  0.1950  0.7495  1.1973
 1591TIP3   OH226331   6.548   2.377   0.256  0.2268  0.4115 -0.4052
 1591TIP3    H126332   6.558   2.457   0.308 -0.1089  0.5692 -0.5763
 1591TIP3    H226333   6.481   2.400   0.191 -0.5147 -0.2746  0.0904
 1592TIP3   OH226334   3.134   6.435   2.393  0.3829 -0.9103 -0.1332
 1592TIP3    H126335   3.198   6.365   2.379  1.6385  0.4059 -1.1922
 1592TIP3    H226336   3.123   6.439   2.488  1.0035 -1.9100 -0.0034
 1593TIP3   OH226337   5.077   3.861   7.776 -0.5238 -0.1748  0.0479
 1593TIP3    H126338   5.117   3.813   7.703  1.1355  2.3728 -0.8372
 1593TIP3    H226339   5.142   3.859   7.845 -0.1342  1.2737 -0.2373
 1594TIP3   OH226340   6.065   1.438   8.510  0.2914 -0.2457  0.2184
 1594TIP3    H126341   6.031   1.366   8.563  0.4793  1.0264  2.1749
 1594TIP3    H226342   6.160   1.430   8.517  0.4186 -1.4857 -2.0139
 1595TIP3   OH226343   6.143   1.772   1.939 -0.1822 -0.1132  0.5495
 1595TIP3    H126344   6.095   1.820   2.007  0.4036  0.1224  0.8013
 1595TIP3    H226345   6.097   1.794   1.858 -0.1238  0.6257  0.7045
 1596TIP3   OH226346   4.093   3.478   1.884 -0.4004 -0.1523 -0.0827
 1596TIP3    H126347   4.028   3.466   1.954 -2.0862 -0.4082 -1.6168
 1596TIP3    H226348   4.048   3.532   1.819  2.0910  2.5258  0.2239
 1597TIP3   OH226349   3.156   4.669   7.168  0.2339  0.0433 -0.2800
 1597TIP3    H126350   3.124   4.757   7.189 -1.3805 -0.4950 -0.3601
 1597TIP3    H226351   3.079   4.622   7.137  1.0593 -1.4251 -0.1988
 1598TIP3   OH226352   6.105   4.647   8.756 -0.5369 -0.1445 -0.2039
 1598TIP3    H126353   6.044   4.720   8.770 -1.2343 -0.4703 -1.4580
 1598TIP3    H226354   6.191   4.686   8.769 -0.9533  0.6064  0.3985
 1599TIP3   OH226355   1.051   0.824   0.536 -0.0456  0.1176 -0.0226
 1599TIP3    H126356   1.055   0.757   0.467  0.5115 -0.0094  0.1319
 1599TIP3    H226357   1.077   0.778   0.616  0.7333  0.6077  0.0137
 1600TIP3   OH226358   5.768   4.198   1.507  0.5487  0.3823 -0.0974
 1600TIP3    H126359   5.781   4.277   1.455  0.5326  0.6832  0.3554
 1600TIP3    H226360   5.795   4.222   1.596 -1.3363  0.4697  0.4837
 1601TIP3   OH226361   6.347   2.386   6.675 -0.4416  0.3675  0.1126
 1601TIP3    H126362   6.301   2.407   6.756 -1.1546 -0.7735  0.0351
 1601TIP3    H226363   6.424   2.443   6.675 -0.5432  0.5435  1.4754
 1602TIP3   OH226364   2.445   5.590   7.921  0.2375 -0.4525  0.3721
 1602TIP3    H126365   2.534   5.618   7.899  1.8490 -1.7084  4.4350
 1602TIP3    H226366   2.436   5.503   7.881  0.2077  0.2478 -1.2259
 1603TIP3   OH226367   5.966   1.095   2.709  0.1095 -0.2402  0.5439
 1603TIP3    H126368   6.054   1.104   2.673 -0.4203 -0.5137 -0.8607
 1603TIP3    H226369   5.940   1.005   2.688 -1.5088  0.6103 -1.4756
 1604TIP3   OH226370   0.270   2.289   1.765  0.3832 -0.5662  0.1477
 1604TIP3    H126371   0.315   2.260   1.844  1.6730  0.2969 -0.2192
 1604TIP3    H226372   0.315   2.244   1.694  0.0136 -0.4391 -0.1698
 1605TIP3   OH226373   3.380   5.710   0.007 -0.0469  0.0130 -0.4078
 1605TIP3    H126374   3.336   5.647   0.064  0.8526 -1.1833 -0.9874
 1605TIP3    H226375   3.313   5.774  -0.015 -1.8351 -2.2914 -2.1125
 1606TIP3   OH226376   0.109   3.525   8.475 -0.0869 -0.1588 -0.0055
 1606TIP3    H126377   0.028   3.571   8.453  0.2785  0.8537  0.6961
 1606TIP3    H226378   0.171   3.549   8.406 -0.4666 -1.2205 -0.7426
 1607TIP3   OH226379   4.233   2.904   8.185 -0.3406 -0.4237 -0.3393
 1607TIP3    H126380   4.289   2.963   8.235  0.8375 -1.0837 -0.8162
 1607TIP3    H226381   4.248   2.818   8.224 -0.0141 -0.8161 -1.2867
 1608TIP3   OH226382   4.439   3.196   8.127 -0.4272  0.2599  0.7287
 1608TIP3    H126383   4.356   3.239   8.107  0.6468  1.7399 -0.8294
 1608TIP3    H226384   4.506   3.261   8.106  1.1906 -1.3089  0.7521
 1609TIP3   OH226385   6.298   5.961   7.031 -0.2353 -0.1749  0.2745
 1609TIP3    H126386   6.359   6.007   7.088  1.1746 -2.0004  0.3131
 1609TIP3    H226387   6.267   6.029   6.971 -0.3054  1.3783  1.9645
 1610TIP3   OH226388   3.922   3.591   7.925  0.1260  0.0209 -0.4284
 1610TIP3    H126389   3.833   3.597   7.890  0.3597  0.7310 -0.9340
 1610TIP3    H226390   3.914   3.536   8.002 -0.8400  0.4467 -0.2087
 1611TIP3   OH226391   6.212   1.751   0.086 -0.1420  0.6127 -0.1209
 1611TIP3    H126392   6.295   1.782   0.122 -0.2105  1.2225 -0.4753
 1611TIP3    H226393   6.146   1.806   0.128 -0.2635  0.9666 -0.7705
 1612TIP3   OH226394   5.828   6.427   1.470 -0.0505  0.3816 -0.1750
 1612TIP3    H126395   5.827   6.355   1.407  1.3342 -0.7028  0.9922
 1612TIP3    H226396   5.770   6.493   1.431  1.1131 -0.0246 -2.8390
 1613TIP3   OH226397   4.008   1.759   8.702  0.4005 -0.2780  0.2577
 1613TIP3    H126398   3.968   1.682   8.744 -1.2842  0.7044  0.5621
 1613TIP3    H226399   4.019   1.822   8.772  0.2820  0.3303 -0.2611
 1614TIP3   OH226400   0.035   6.156   8.209  0.0626  0.6461  0.4664
 1614TIP3    H126401   0.068   6.104   8.136 -0.7360  0.4093  0.2621
 1614TIP3    H226402   0.036   6.095   8.283 -1.2527  0.1797  0.1392
 1615TIP3   OH226403   0.553   2.022   1.244 -0.2772 -0.1852 -0.7599
 1615TIP3    H126404   0.562   2.004   1.150 -2.4295 -0.2997 -0.9931
 1615TIP3    H226405   0.494   1.954   1.276  1.7100 -1.1483  1.0611
 1616TIP3   OH226406   3.764   0.655   7.925 -0.6469  0.3043  0.7697
 1616TIP3    H126407   3.673   0.627   7.912  0.0575 -1.8202 -0.0064
 1616TIP3    H226408   3.804   0.649   7.838  0.5852 -0.2210  1.3421
 1617TIP3   OH226409   5.389   1.603   7.809  0.4601 -0.0745 -0.2609
 1617TIP3    H126410   5.352   1.582   7.723  1.3390 -1.7016 -0.2648
 1617TIP3    H226411   5.428   1.690   7.797  0.8398 -0.4055 -1.5924
 1618TIP3   OH226412   0.850   4.082   1.719 -0.3857  0.2379  0.2847
 1618TIP3    H126413   0.928   4.032   1.742 -1.0724 -1.2837 -0.6181
 1618TIP3    H226414   0.777   4.027   1.745 -1.1803 -0.0075 -2.2424
 1619TIP3   OH226415   0.077   0.200   2.114  0.0999  0.3317 -0.3666
 1619TIP3    H126416   0.077   0.293   2.137  1.2528  0.4599 -0.8152
 1619TIP3    H226417  -0.007   0.186   2.071  0.1582  1.3172 -0.8333
 1620TIP3   OH226418   2.352   5.356   0.411  0.2247  0.3220 -0.0782
 1620TIP3    H126419   2.325   5.413   0.484 -0.1158  1.2113 -0.8737
 1620TIP3    H226420   2.395   5.415   0.350 -2.1157  0.2297 -1.9832
 1621TIP3   OH226421   5.000   1.492   0.207 -0.5705  0.3911 -0.3988
 1621TIP3    H126422   5.085   1.501   0.250 -1.2127 -1.0131  1.3052
 1621TIP3    H226423   4.955   1.574   0.225  0.7113  1.5687 -2.1715
 1622TIP3   OH226424   0.079   0.482   7.924  0.3553  0.2489 -0.2728
 1622TIP3    H126425   0.027   0.411   7.961  0.8127  1.9552  4.1799
 1622TIP3    H226426   0.165   0.442   7.908  0.5421 -0.3727  1.9138
 1623TIP3   OH226427   5.635   2.238   8.506 -0.6606 -0.3440  0.2826
 1623TIP3    H126428   5.646   2.143   8.506 -0.0630 -0.2828  0.0299
 1623TIP3    H226429   5.707   2.271   8.560 -0.7083 -0.0263  0.1596
 1624TIP3   OH226430   0.252   5.503   1.755 -0.0178 -0.5742 -0.4245
 1624TIP3    H126431   0.291   5.574   1.704  1.2747  0.7731  2.2561
 1624TIP3    H226432   0.186   5.546   1.810  0.4064 -1.5271  0.8740
 1625TIP3   OH226433   1.705   5.648   0.415 -0.1690  0.5075  0.1959
 1625TIP3    H126434   1.646   5.719   0.388 -0.4691 -0.4457 -1.7827
 1625TIP3    H226435   1.671   5.621   0.500 -2.5249  0.1097 -0.8075
 1626TIP3   OH226436   0.776   2.135   1.002  0.0021 -0.2068  0.2116
 1626TIP3    H126437   0.739   2.050   1.026  1.3758 -0.7579  0.4681
 1626TIP3    H226438   0.854   2.144   1.057  0.5639  0.6489 -0.6822
 1627TIP3   OH226439   4.771   3.280   0.526  0.1245 -0.0696  0.1167
 1627TIP3    H126440   4.698   3.340   0.509 -1.0117 -1.5025 -0.3075
 1627TIP3    H226441   4.737   3.194   0.501  1.6759 -0.9079  0.7685
 1628TIP3   OH226442   2.211   6.716   2.340  0.3126  0.2698  0.3269
 1628TIP3    H126443   2.184   6.626   2.358  2.7596 -0.6442 -0.2335
 1628TIP3    H226444   2.134   6.756   2.298 -0.3826 -1.9505 -0.6381
 1629TIP3   OH226445   4.387   3.445   2.965  0.0405  0.0844 -0.0126
 1629TIP3    H126446   4.468   3.482   2.929 -1.1902  1.0270 -1.9708
 1629TIP3    H226447   4.359   3.382   2.898 -0.0010 -1.5054  1.4322
 1630TIP3   OH226448   5.447   3.950   1.505 -0.2430  0.7274 -0.8877
 1630TIP3    H126449   5.382   3.881   1.518  0.0115  0.3956 -1.3139
 1630TIP3    H226450   5.398   4.023   1.469 -0.3678  0.4444 -1.2981
 1631TIP3   OH226451   0.683   3.747   1.309  0.0307 -0.7361  0.2984
 1631TIP3    H126452   0.617   3.777   1.372 -0.2173 -0.7766  0.0580
 1631TIP3    H226453   0.656   3.786   1.226 -0.9828 -2.5979 -0.2852
 1632TIP3   OH226454   6.767   6.061   3.172  0.2020 -0.0818  0.0806
 1632TIP3    H126455   6.691   6.096   3.218  0.6533 -0.0153  0.7930
 1632TIP3    H226456   6.813   6.138   3.139  0.9189 -0.0108  1.2056
 1633TIP3   OH226457   1.078   4.139   2.240 -0.1587 -0.7115  1.0679
 1633TIP3    H126458   1.160   4.095   2.264  0.3871 -0.7178 -0.6866
 1633TIP3    H226459   1.043   4.087   2.169  1.9888  2.9760 -3.2509
 1634TIP3   OH226460   0.517   5.811   7.524 -0.4969  0.1070 -0.4140
 1634TIP3    H126461   0.501   5.745   7.457 -2.6986 -0.2618  0.3982
 1634TIP3    H226462   0.467   5.887   7.496 -0.8671  0.1897  0.4329
 1635TIP3   OH226463   0.030   6.629   0.462 -0.1326  0.0872  0.3829
 1635TIP3    H126464  -0.050   6.585   0.434  0.6272 -1.2339  0.2355
 1635TIP3    H226465   0.090   6.621   0.388  0.5911 -0.1296  0.9707
 1636TIP3   OH226466   4.696   1.116   1.183  0.0885  0.2056  0.0355
 1636TIP3    H126467   4.755   1.186   1.209 -0.0629  0.5842 -0.6144
 1636TIP3    H226468   4.753   1.043   1.159  0.3285  0.8022 -1.2534
 1637TIP3   OH226469   1.825   0.804   2.066  0.3968 -0.2331 -0.0452
 1637TIP3    H126470   1.885   0.736   2.096 -0.2883 -0.9924 -0.3648
 1637TIP3    H226471   1.861   0.832   1.981 -0.7509 -2.1235 -1.2408
 1638TIP3   OH226472   5.249   0.803   2.294 -0.2414 -0.2287  0.2124
 1638TIP3    H126473   5.215   0.842   2.213  1.8194 -0.6335 -0.9111
 1638TIP3    H226474   5.260   0.877   2.353  0.3614  0.4252 -0.6895
 1639TIP3   OH226475   5.710   6.266   0.605 -0.5527  0.2632  0.7606
 1639TIP3    H126476   5.744   6.230   0.687  0.7060 -0.9593 -0.2384
 1639TIP3    H226477   5.623   6.299   0.627  0.0300  0.6128  2.7277
 1640TIP3   OH226478   3.382   4.726   1.156  0.4312 -0.3811  0.4173
 1640TIP3    H126479   3.389   4.792   1.225 -0.9187  0.8850 -0.5847
 1640TIP3    H226480   3.335   4.653   1.197 -2.0226  1.0826  0.4386
 1641TIP3   OH226481   3.140   1.752   2.038 -0.5072  0.2648 -0.4813
 1641TIP3    H126482   3.129   1.835   1.991  0.1617  0.2622 -0.6562
 1641TIP3    H226483   3.119   1.772   2.129 -4.1224 -0.2355 -1.0537
 1642TIP3   OH226484   0.257   0.407   2.034 -0.6087  0.3738  0.1823
 1642TIP3    H126485   0.325   0.465   2.069 -1.0465  0.7126  0.5010
 1642TIP3    H226486   0.255   0.333   2.095 -1.9911  1.3879  1.4847
 1643TIP3   OH226487   5.743   6.474   2.182 -0.4188  0.0034  0.0334
 1643TIP3    H126488   5.793   6.415   2.238  0.3213  0.5719 -0.0170
 1643TIP3    H226489   5.656   6.478   2.222 -0.6114 -1.4152 -0.1784
 1644TIP3   OH226490   5.777   4.317   1.922 -0.0474 -0.0866  0.2489
 1644TIP3    H126491   5.697   4.300   1.872  0.2466  0.8944 -0.5898
 1644TIP3    H226492   5.773   4.255   1.995 -0.2960 -1.8606 -1.1880
 1645TIP3   OH226493   6.077   2.075   0.514 -0.9406 -0.3184  0.2336
 1645TIP3    H126494   6.062   2.098   0.422 -2.3568  1.2209  0.7890
 1645TIP3    H226495   6.164   2.035   0.515 -0.5907  0.2821 -1.6579
 1646TIP3   OH226496   0.801   6.249   8.624 -0.8681  0.2331 -0.2306
 1646TIP3    H126497   0.722   6.239   8.570 -1.0853 -1.6727  0.3767
 1646TIP3    H226498   0.868   6.199   8.578 -0.6984 -0.2851  0.5682
 1647TIP3   OH226499   1.869   2.916   7.492 -0.2736 -0.3861 -0.3493
 1647TIP3    H126500   1.902   3.005   7.501 -1.0976 -0.2183  1.7813
 1647TIP3    H226501   1.946   2.860   7.500  0.1151  0.1147 -0.5773
 1648TIP3   OH226502   4.524   2.748   8.330 -0.3801  0.2638 -0.2462
 1648TIP3    H126503   4.566   2.737   8.244 -2.3509 -0.2255 -1.2135
 1648TIP3    H226504   4.510   2.843   8.337  1.4836  0.5293  0.4435
 1649TIP3   OH226505   3.225   6.692   1.544  0.0192  0.1620 -0.1750
 1649TIP3    H126506   3.185   6.632   1.481 -0.1462  0.4038 -0.3013
 1649TIP3    H226507   3.156   6.707   1.609 -0.3232  1.0773 -0.7308
 1650TIP3   OH226508   3.169   3.386   1.602  0.0137 -0.0764 -0.1394
 1650TIP3    H126509   3.238   3.452   1.594  0.1335 -0.1625  0.1789
 1650TIP3    H226510   3.171   3.339   1.519  1.2752 -0.9851  0.3758
 1651TIP3   OH226511   3.912   3.236   1.790 -0.4677  0.0769 -0.5664
 1651TIP3    H126512   3.886   3.149   1.821 -2.2112  0.1030 -1.7965
 1651TIP3    H226513   3.868   3.297   1.850 -2.5430  0.1033 -1.9970
 1652TIP3   OH226514   1.013   5.951   1.156 -0.2074 -0.4769  0.5834
 1652TIP3    H126515   0.983   6.041   1.148 -0.0899 -0.5031 -0.3067
 1652TIP3    H226516   1.090   5.956   1.213 -0.3554 -0.0521  0.7458
 1653TIP3   OH226517   0.768   2.109   0.476  0.0276  0.0318 -0.2132
 1653TIP3    H126518   0.722   2.142   0.399  0.8632  0.3606 -0.5888
 1653TIP3    H226519   0.700   2.074   0.533 -0.6803  0.6031 -0.7084
 1654TIP3   OH226520   6.618   5.511   1.759  0.0809  0.5108  0.4491
 1654TIP3    H126521   6.660   5.425   1.767  0.0539  0.2778 -1.5261
 1654TIP3    H226522   6.626   5.533   1.666 -1.8314  1.6663  0.5132
 1655TIP3   OH226523   3.144   4.792   1.596  0.2903  0.1621 -0.1163
 1655TIP3    H126524   3.085   4.761   1.527  1.0819  0.6983 -1.0665
 1655TIP3    H226525   3.123   4.737   1.672  0.0720 -1.1147 -1.0628
 1656TIP3   OH226526   0.668   1.015   8.157  0.4045  0.5288  0.2858
 1656TIP3    H126527   0.619   1.058   8.087 -0.3442 -1.4435 -0.4651
 1656TIP3    H226528   0.727   0.955   8.113  1.7654  1.0689  1.2893
 1657TIP3   OH226529   1.190   3.244   8.616  0.3193 -0.3733 -0.1473
 1657TIP3    H126530   1.141   3.205   8.544 -2.6490  0.9613  0.9670
 1657TIP3    H226531   1.280   3.248   8.585 -0.4998 -1.5827 -2.9886
 1658TIP3   OH226532   1.878   4.218   0.844 -0.0050 -0.3218  0.4773
 1658TIP3    H126533   1.855   4.225   0.936 -1.9149  0.6751 -0.0164
 1658TIP3    H226534   1.793   4.214   0.799  0.8549 -2.6587 -1.1342
 1659TIP3   OH226535   1.314   3.302   1.908  0.2913 -0.4169 -0.1107
 1659TIP3    H126536   1.389   3.254   1.874  1.2467  1.5554 -0.9934
 1659TIP3    H226537   1.260   3.318   1.830 -0.7170 -1.2343  0.4053
 1660TIP3   OH226538   2.772   4.965   0.629 -0.6183 -0.0791  0.1792
 1660TIP3    H126539   2.688   4.935   0.664 -1.3921  0.5158 -1.0730
 1660TIP3    H226540   2.816   4.885   0.600 -0.5630 -0.4332  1.1859
 1661TIP3   OH226541   0.096   6.151   0.345  0.1718  0.4462  0.1820
 1661TIP3    H126542   0.024   6.190   0.394  0.2372 -0.7503  1.2538
 1661TIP3    H226543   0.172   6.204   0.368  0.4436 -0.7969  2.3482
 1662TIP3   OH226544   4.494   1.559   2.474  0.6521 -0.2882  0.4858
 1662TIP3    H126545   4.439   1.597   2.542  1.3886 -0.0223  0.9437
 1662TIP3    H226546   4.498   1.466   2.496  1.9864  0.0016  1.6207
 1663TIP3   OH226547   6.686   4.133   8.205 -0.0169 -0.4227  0.4656
 1663TIP3    H126548   6.652   4.165   8.121 -2.6189  0.9840  1.9146
 1663TIP3    H226549   6.688   4.210   8.261  2.3047 -1.1992  1.5966
 1664TIP3   OH226550   5.141   2.966   6.688  0.4383  0.2028  0.1877
 1664TIP3    H126551   5.194   2.982   6.766 -1.2827 -2.0425  1.9691
 1664TIP3    H226552   5.150   2.871   6.673  1.1805  0.6523 -2.7492
 1665TIP3   OH226553   1.233   0.185   1.331  0.5347 -0.1534 -0.0887
 1665TIP3    H126554   1.231   0.263   1.275  0.6969  0.8968  1.3079
 1665TIP3    H226555   1.141   0.161   1.341  0.2141  1.6053  1.7489
 1666TIP3   OH226556   4.426   0.565   2.150  0.1724  0.5570  0.1957
 1666TIP3    H126557   4.373   0.518   2.086 -1.3583  2.0458  0.2939
 1666TIP3    H226558   4.446   0.500   2.218  0.7506 -0.7044 -1.1403
 1667TIP3   OH226559   2.616   4.384   1.332 -0.0356  0.2307  0.2538
 1667TIP3    H126560   2.604   4.385   1.427 -1.4227  4.5829  0.2787
 1667TIP3    H226561   2.533   4.352   1.297 -1.0154  2.1989  0.6148
 1668TIP3   OH226562   6.749   1.333   7.565 -0.1667  0.0922 -0.0413
 1668TIP3    H126563   6.765   1.287   7.483 -0.3970  0.9529 -0.5847
 1668TIP3    H226564   6.756   1.426   7.542 -0.5541  0.3505  0.8473
 1669TIP3   OH226565   0.687   3.461   2.350  0.4133  0.0154 -0.1441
 1669TIP3    H126566   0.646   3.440   2.434 -0.0945  0.4078 -0.2841
 1669TIP3    H226567   0.649   3.398   2.289  0.0308  0.3557 -0.2664
 1670TIP3   OH226568   5.487   2.871   0.400  0.1476  0.5220 -0.2363
 1670TIP3    H126569   5.434   2.850   0.477  1.8271  0.5632  0.9534
 1670TIP3    H226570   5.446   2.819   0.330  0.0354 -1.4321  1.1820
 1671TIP3   OH226571   5.372   5.050   2.038 -0.3294  0.1364  0.4762
 1671TIP3    H126572   5.348   4.969   2.082  0.7819 -0.7611 -0.4954
 1671TIP3    H226573   5.465   5.039   2.016 -0.9000  0.2933 -2.4781
 1672TIP3   OH226574   4.043   3.387   1.483 -0.0834 -0.7317 -0.0513
 1672TIP3    H126575   4.007   3.410   1.568 -0.4217 -2.7595  0.3948
 1672TIP3    H226576   4.109   3.320   1.501  1.0005 -0.0577 -1.2558
 1673TIP3   OH226577   6.643   2.824   2.951  0.3220 -0.0252 -0.1539
 1673TIP3    H126578   6.729   2.811   2.909  0.7149 -0.4047  0.7417
 1673TIP3    H226579   6.588   2.754   2.916  0.9469 -0.9849  0.7349
 1674TIP3   OH226580   3.277   4.947   8.082  0.1784 -0.2392  0.2581
 1674TIP3    H126581   3.344   5.012   8.063  0.5789 -0.4163  0.9936
 1674TIP3    H226582   3.197   4.981   8.041  0.1651  1.1669  1.3374
 1675TIP3   OH226583   3.975   3.885   0.748  0.5989 -0.6246  0.2811
 1675TIP3    H126584   3.938   3.863   0.662  0.4197 -1.3137  0.5219
 1675TIP3    H226585   4.030   3.809   0.770  0.6536 -0.4487  0.7636
 1676TIP3   OH226586   6.266   2.858   1.054  0.3273  0.1755 -0.4798
 1676TIP3    H126587   6.247   2.768   1.080 -0.5246  0.3418 -0.4810
 1676TIP3    H226588   6.261   2.856   0.958  1.7683 -0.0746 -0.5720
 1677TIP3   OH226589   5.403   4.099   2.075 -0.0828  0.0107 -0.1706
 1677TIP3    H126590   5.334   4.118   2.011  0.1393  0.5729 -0.2464
 1677TIP3    H226591   5.357   4.054   2.147 -0.8762  1.9156  0.5944
 1678TIP3   OH226592   2.242   0.506   0.537  0.3713 -0.1299 -0.0775
 1678TIP3    H126593   2.250   0.534   0.445  0.3201 -1.5544 -0.5361
 1678TIP3    H226594   2.228   0.588   0.585  0.4150  0.6507 -1.3301
 1679TIP3   OH226595   0.281   3.710   7.988  0.3052  0.3364  0.0966
 1679TIP3    H126596   0.274   3.805   7.977  0.0896  0.6551  2.5661
 1679TIP3    H226597   0.242   3.692   8.073 -1.5046 -2.2741 -1.1612
 1680TIP3   OH226598   6.433   6.065   1.227  0.3463 -1.0632 -0.4599
 1680TIP3    H126599   6.426   6.138   1.165 -0.2313 -0.3095  0.4462
 1680TIP3    H226600   6.525   6.039   1.223  0.8262  0.4265 -0.0596
 1681TIP3   OH226601   0.424   2.449   8.734 -0.0509  0.1152  0.1050
 1681TIP3    H126602   0.339   2.406   8.725  0.8666 -1.9450  0.6673
 1681TIP3    H226603   0.413   2.510   8.808 -0.6243 -1.3199  1.2512
 1682TIP3   OH226604   3.060   4.455   0.526 -0.3686 -0.7808  0.3685
 1682TIP3    H126605   3.027   4.485   0.611 -1.5630 -1.3473  0.1378
 1682TIP3    H226606   3.117   4.381   0.546 -1.0199 -1.2131  0.6633
 1683TIP3   OH226607   1.814   5.330   2.636 -0.0269  0.0177  0.3849
 1683TIP3    H126608   1.817   5.418   2.673  0.1546  1.3493 -2.5290
 1683TIP3    H226609   1.732   5.328   2.588  0.1641 -1.2767  0.0916
 1684TIP3   OH226610   2.452   6.570   2.520  0.6910 -0.4650 -0.1724
 1684TIP3    H126611   2.531   6.557   2.573  0.7171 -0.8651 -0.3055
 1684TIP3    H226612   2.405   6.487   2.526  0.0458 -0.0751  0.2817
 1685TIP3   OH226613   1.644   3.688   0.626 -0.2227 -0.2973 -0.0767
 1685TIP3    H126614   1.636   3.622   0.557 -0.1299  1.1628 -1.5495
 1685TIP3    H226615   1.563   3.738   0.622  0.1587  0.3690  0.2571
 1686TIP3   OH226616   4.230   6.656   8.119 -0.1762 -0.2479 -0.3213
 1686TIP3    H126617   4.176   6.577   8.122 -0.4759 -0.0369 -0.1277
 1686TIP3    H226618   4.267   6.656   8.030  0.5070 -1.0524 -0.0447
 1687TIP3   OH226619   3.717   6.373   0.460  0.0755  0.6016  0.3915
 1687TIP3    H126620   3.735   6.365   0.554 -2.7654  0.2516  0.9748
 1687TIP3    H226621   3.710   6.283   0.429 -0.5623  0.7223  0.1833
 1688TIP3   OH226622   0.444   3.103   1.175  0.2049  0.1672 -0.4447
 1688TIP3    H126623   0.429   3.172   1.239  1.1668  1.7490 -1.8571
 1688TIP3    H226624   0.356   3.080   1.144 -0.2067 -0.0728  0.8417
 1689TIP3   OH226625   6.025   2.189   7.283 -0.2024 -0.3530 -0.6880
 1689TIP3    H126626   6.055   2.239   7.207 -0.0177  1.2405  0.3762
 1689TIP3    H226627   5.931   2.176   7.267 -0.2652  0.3861 -0.9831
 1690TIP3   OH226628   1.430   0.019   0.142  0.1140 -0.5880  0.1234
 1690TIP3    H126629   1.520  -0.010   0.159  0.8244  1.3944  0.0249
 1690TIP3    H226630   1.411  -0.013   0.054  1.8776  1.4089 -1.0859
 1691TIP3   OH226631   2.314   0.138   2.723  0.1586  0.1079 -0.7369
 1691TIP3    H126632   2.276   0.112   2.808 -1.1386  0.1741 -1.2707
 1691TIP3    H226633   2.401   0.099   2.723 -0.0158 -0.3343  0.4128
 1692TIP3   OH226634   5.668   0.235   2.824 -0.5860  0.3056 -0.1511
 1692TIP3    H126635   5.756   0.198   2.825 -1.0948 -0.9397  0.3008
 1692TIP3    H226636   5.640   0.227   2.733 -0.6240 -0.2908 -0.0930
 1693TIP3   OH226637   4.107   1.749   2.861  0.5474 -0.1679 -0.2885
 1693TIP3    H126638   4.100   1.653   2.863 -0.6295 -0.1161  2.6174
 1693TIP3    H226639   4.198   1.766   2.887  0.8506 -0.4846 -1.1176
 1694TIP3   OH226640   0.486   2.972   2.831 -0.2862 -0.3088 -0.0487
 1694TIP3    H126641   0.391   2.958   2.830 -0.3621  0.2207 -0.4817
 1694TIP3    H226642   0.498   3.059   2.794  0.3682 -0.3390  0.0779
 1695TIP3   OH226643   6.496   4.411   2.352  0.1351 -0.2935  0.4388
 1695TIP3    H126644   6.467   4.340   2.410  1.1731 -0.3119  0.9548
 1695TIP3    H226645   6.568   4.373   2.302  0.4907  0.2898  0.4948
 1696TIP3   OH226646   1.319   3.157   0.637 -0.3163  0.3103  0.3664
 1696TIP3    H126647   1.298   3.099   0.710 -1.5004  0.2046 -0.0397
 1696TIP3    H226648   1.324   3.244   0.676  3.7599 -0.2030  1.4300
 1697TIP3   OH226649   5.264   1.322   1.232 -0.5469 -0.6402  0.1945
 1697TIP3    H126650   5.241   1.377   1.157  2.7936  1.1132  0.2809
 1697TIP3    H226651   5.264   1.382   1.307  2.0489 -0.8971  0.4907
 1698TIP3   OH226652   5.312   5.546   1.971  0.3059 -0.6757  0.0775
 1698TIP3    H126653   5.295   5.452   1.966  0.7075 -0.7532  0.2060
 1698TIP3    H226654   5.377   5.563   1.903  0.7768 -0.6105  0.5433
 1699TIP3   OH226655   1.138   5.983   2.795 -0.2377 -0.1152  0.8624
 1699TIP3    H126656   1.076   6.052   2.770 -0.2158 -0.5733 -0.5451
 1699TIP3    H226657   1.083   5.908   2.816 -0.2369  0.1361  1.7748
 1700TIP3   OH226658   1.522   1.230   1.567  0.1293 -0.0838  0.3687
 1700TIP3    H126659   1.499   1.236   1.660  0.0209  0.3420  0.3126
 1700TIP3    H226660   1.476   1.152   1.537  1.7911 -1.4462  1.1515
 1701TIP3   OH226661   4.572   6.412   1.846 -0.5053 -0.1313  0.1468
 1701TIP3    H126662   4.615   6.415   1.931 -0.4166  0.6144  0.0733
 1701TIP3    H226663   4.539   6.322   1.840  0.0554 -0.3806  0.6817
 1702TIP3   OH226664   3.915   6.140   8.307 -0.4519  0.5478  0.1228
 1702TIP3    H126665   3.978   6.163   8.375  0.0674 -2.9910  1.0349
 1702TIP3    H226666   3.966   6.137   8.226  0.5417 -1.7091  0.7576
 1703TIP3   OH226667   2.339   0.938   8.351  0.5206  0.2566 -0.2929
 1703TIP3    H126668   2.406   0.955   8.417 -1.5948 -0.0504  2.0507
 1703TIP3    H226669   2.334   0.843   8.346  0.1502  0.2767 -0.3336
 1704TIP3   OH226670   0.787   6.650   0.355 -0.1400 -0.2972  0.1175
 1704TIP3    H126671   0.718   6.683   0.414  0.1616 -0.7293  0.7247
 1704TIP3    H226672   0.827   6.579   0.404  0.0246 -0.7595 -0.6814
 1705TIP3   OH226673   4.473   0.333   1.970 -0.6566 -0.1961  0.6922
 1705TIP3    H126674   4.479   0.244   2.004 -0.7844 -0.0259  1.1603
 1705TIP3    H226675   4.551   0.343   1.915 -0.5629 -0.5435  0.7609
 1706TIP3   OH226676   1.173   5.035   1.241 -0.7971  0.2470  0.2934
 1706TIP3    H126677   1.171   5.051   1.147 -1.6950 -1.0570  0.0677
 1706TIP3    H226678   1.263   5.008   1.259 -1.6214 -4.2851 -1.1140
 1707TIP3   OH226679   2.160   3.386   0.032  0.0725  0.3737 -0.0358
 1707TIP3    H126680   2.221   3.348  -0.032 -2.5234 -1.4058 -1.6641
 1707TIP3    H226681   2.088   3.323   0.036 -0.9391  1.5571  3.0342
 1708TIP3   OH226682   5.562   4.811   8.141  0.1530 -0.0310  0.1420
 1708TIP3    H126683   5.501   4.738   8.128  0.2144  0.1519 -1.3541
 1708TIP3    H226684   5.611   4.816   8.059  0.6465  1.2377  0.4953
 1709TIP3   OH226685   1.767   3.678   8.261  0.4492 -0.1893  0.1859
 1709TIP3    H126686   1.829   3.718   8.321  1.9067 -3.4241  1.0497
 1709TIP3    H226687   1.794   3.707   8.174  1.5863  0.4426  0.7401
 1710TIP3   OH226688   1.795   5.835   2.056  0.5134 -0.1786 -0.1978
 1710TIP3    H126689   1.861   5.847   1.988  1.0812 -1.2505  0.1414
 1710TIP3    H226690   1.819   5.896   2.125  1.6557 -1.1278  0.2786
 1711TIP3   OH226691   6.711   4.307   2.208 -0.1609  0.2270  0.3012
 1711TIP3    H126692   6.738   4.275   2.122  1.9669 -0.2492  1.0871
 1711TIP3    H226693   6.685   4.228   2.256  1.4817  0.0791  1.0125
 1712TIP3   OH226694   6.213   3.142   7.763  0.2409  0.7195 -0.0425
 1712TIP3    H126695   6.238   3.049   7.763 -2.1730 -0.0276 -1.5981
 1712TIP3    H226696   6.293   3.188   7.786  1.6858 -1.7209  0.1770
 1713TIP3   OH226697   0.261   3.713   1.122 -0.0134  0.1602 -0.0789
 1713TIP3    H126698   0.189   3.715   1.185  0.8928 -1.9868  1.1563
 1713TIP3    H226699   0.232   3.770   1.050 -3.0914 -0.8546  0.1881
 1714TIP3   OH226700   1.878   0.756   0.252  0.5398 -0.2152 -0.0567
 1714TIP3    H126701   1.821   0.797   0.316 -0.4940 -0.4522 -0.8070
 1714TIP3    H226702   1.867   0.662   0.266  0.7206 -0.2645 -0.2318
 1715TIP3   OH226703   4.832   0.210   7.160 -0.1666 -0.2449 -0.0246
 1715TIP3    H126704   4.893   0.140   7.186  2.2061  0.9284 -1.9908
 1715TIP3    H226705   4.779   0.171   7.091  0.9094 -0.2625 -0.8714
 1716TIP3   OH226706   5.602   3.436   8.792 -0.1365 -0.1050 -0.1187
 1716TIP3    H126707   5.554   3.478   8.720 -0.5931 -1.0330 -0.3701
 1716TIP3    H226708   5.618   3.347   8.762  2.1519  0.2826 -0.2091
 1717TIP3   OH226709   6.004   2.786   0.179 -0.1123 -0.4667 -0.0560
 1717TIP3    H126710   5.966   2.767   0.265 -0.4740 -0.0037 -0.1090
 1717TIP3    H226711   5.942   2.749   0.116  0.9027 -2.1757 -0.1166
 1718TIP3   OH226712   5.408   3.801   1.175 -0.0797  0.1596 -0.0305
 1718TIP3    H126713   5.460   3.723   1.194 -0.4537  0.2210  1.3869
 1718TIP3    H226714   5.325   3.786   1.221  1.4186  3.2608  4.4248
 1719TIP3   OH226715   6.697   3.297   1.545 -0.4125  0.5516 -0.0600
 1719TIP3    H126716   6.770   3.340   1.500 -0.7410 -1.2834 -2.6274
 1719TIP3    H226717   6.621   3.318   1.491 -1.0744 -0.7492  0.3365
 1720TIP3   OH226718   4.431   2.135   1.985  0.4971 -0.3837  0.1726
 1720TIP3    H126719   4.364   2.077   1.950 -0.4268  1.3675 -1.1028
 1720TIP3    H226720   4.383   2.210   2.021  1.6972  0.3097  0.4067
 1721TIP3   OH226721   4.822   3.237   1.866 -0.3934  0.2659  0.3319
 1721TIP3    H126722   4.823   3.145   1.840 -2.3560  0.0189  0.9658
 1721TIP3    H226723   4.819   3.285   1.784  0.9899 -0.1867 -0.0152
 1722TIP3   OH226724   4.529   1.399   8.677  0.0015  0.6575 -0.2819
 1722TIP3    H126725   4.438   1.426   8.689 -0.0644  0.5322 -0.4987
 1722TIP3    H226726   4.524   1.311   8.639  0.2089  0.8121 -0.6771
 1723TIP3   OH226727   5.096   3.334   1.282 -0.2718  0.0791  0.0653
 1723TIP3    H126728   5.021   3.368   1.233 -1.3809 -0.7539  1.1342
 1723TIP3    H226729   5.162   3.403   1.275 -1.5957  1.4150  0.1808
 1724TIP3   OH226730   3.699   2.750   7.358 -0.7086  0.3780  0.0784
 1724TIP3    H126731   3.680   2.733   7.451  0.2784 -0.6072  0.1130
 1724TIP3    H226732   3.714   2.664   7.320 -0.0438  0.8542 -0.7753
 1725TIP3   OH226733   3.122   5.792   7.689 -0.2634 -0.2063  0.1026
 1725TIP3    H126734   3.140   5.886   7.692  1.2214 -0.4539 -0.0160
 1725TIP3    H226735   3.045   5.784   7.633  0.1266  0.8802 -0.6262
 1726TIP3   OH226736   4.556   0.598   7.327 -0.2959 -0.2553  0.1706
 1726TIP3    H126737   4.594   0.510   7.336 -0.3316 -0.1448  1.5318
 1726TIP3    H226738   4.465   0.582   7.300  0.3779 -0.5395 -2.1757
 1727TIP3   OH226739   4.749   4.208   8.771 -0.1053 -0.2399 -0.0409
 1727TIP3    H126740   4.753   4.114   8.754 -0.0970 -0.2201 -0.1452
 1727TIP3    H226741   4.838   4.231   8.799  0.1158 -0.0989 -0.8447
 1728TIP3   OH226742   6.566   5.333   7.249 -0.0876 -0.2940  0.6835
 1728TIP3    H126743   6.656   5.367   7.254  0.3761 -1.1396 -1.0474
 1728TIP3    H226744   6.576   5.238   7.255 -1.0443 -0.3214  2.1213
 1729TIP3   OH226745   0.079   3.281   7.947 -0.0424 -0.4585 -0.1572
 1729TIP3    H126746   0.095   3.364   7.903  1.5687 -0.7823 -0.2681
 1729TIP3    H226747   0.021   3.303   8.020  0.4700  0.7877 -0.0998
 1730TIP3   OH226748   2.213   4.147   8.144  0.1340  0.1838  0.0576
 1730TIP3    H126749   2.303   4.151   8.176  0.5259 -0.1799 -0.9511
 1730TIP3    H226750   2.160   4.134   8.222  1.0407 -0.5879  0.5615
 1731TIP3   OH226751   3.523   2.595   1.116 -0.0053 -0.1784  0.6261
 1731TIP3    H126752   3.517   2.690   1.129 -0.3576 -0.0520 -0.3405
 1731TIP3    H226753   3.461   2.577   1.045  0.7412 -0.9895  0.1577
 1732TIP3   OH226754   5.799   0.408   8.636  0.3812 -0.2376  0.2430
 1732TIP3    H126755   5.792   0.333   8.577 -1.7716  0.2074 -0.1557
 1732TIP3    H226756   5.817   0.370   8.722  1.3196 -1.0453 -0.2836
 1733TIP3   OH226757   5.649   3.806   8.741 -0.3800 -0.2037 -0.3465
 1733TIP3    H126758   5.607   3.828   8.823 -0.7884  0.3817 -0.7087
 1733TIP3    H226759   5.585   3.828   8.674  0.1985 -0.0429 -0.8596
 1734TIP3   OH226760   2.293   6.677   1.872  0.6843 -0.7681  0.1759
 1734TIP3    H126761   2.222   6.725   1.829 -0.3526 -1.2144  1.3414
 1734TIP3    H226762   2.361   6.672   1.805 -0.3654 -0.3313 -0.9847
 1735TIP3   OH226763   4.150   0.812   0.219  0.2227  0.2945  0.0860
 1735TIP3    H126764   4.237   0.851   0.213  0.6920 -0.8977 -1.4450
 1735TIP3    H226765   4.089   0.884   0.201  0.8655  1.1334  1.1611
 1736TIP3   OH226766   2.680   5.681   0.186 -0.0984  0.4515 -0.4708
 1736TIP3    H126767   2.660   5.669   0.093 -2.2362  0.7898 -0.0887
 1736TIP3    H226768   2.597   5.669   0.231  0.6184  1.6708  1.2985
 1737TIP3   OH226769   3.441   5.437   7.900 -0.3097 -0.3259 -0.2847
 1737TIP3    H126770   3.381   5.450   7.827  0.8465 -1.1454 -1.4335
 1737TIP3    H226771   3.528   5.437   7.860  0.3427 -1.0010  1.0534
 1738TIP3   OH226772   5.743   3.704   0.617 -0.7445 -0.7266  0.3143
 1738TIP3    H126773   5.687   3.695   0.539 -0.5648 -0.7129  0.1829
 1738TIP3    H226774   5.775   3.795   0.613 -0.4769 -0.8251  0.2297
 1739TIP3   OH226775   5.137   5.133   0.685  0.0395  0.4401  0.0434
 1739TIP3    H126776   5.204   5.099   0.626 -0.7367 -0.4911 -0.3268
 1739TIP3    H226777   5.182   5.145   0.768  0.7422  0.1475 -0.2860
 1740TIP3   OH226778   0.695   6.458   7.005 -0.1011 -0.0776 -0.5837
 1740TIP3    H126779   0.754   6.383   7.007  0.8760  0.6801  1.2897
 1740TIP3    H226780   0.622   6.429   6.950  0.9012 -1.8704 -1.0627
 1741TIP3   OH226781   5.322   1.237   7.569 -0.6027  0.2086  0.7044
 1741TIP3    H126782   5.318   1.332   7.571  0.6172  0.2594  1.6273
 1741TIP3    H226783   5.268   1.212   7.494 -0.1936  1.6723 -0.0996
 1742TIP3   OH226784   0.644   0.256   8.243  0.1022 -0.4510 -0.5036
 1742TIP3    H126785   0.738   0.268   8.254 -0.1586  0.5162  1.0263
 1742TIP3    H226786   0.635   0.171   8.200  1.6340 -1.2053  0.5829
 1743TIP3   OH226787   4.866   4.122   8.316 -0.0809 -0.5586 -0.5386
 1743TIP3    H126788   4.794   4.063   8.292 -0.3118 -0.6064  0.2158
 1743TIP3    H226789   4.928   4.115   8.244  0.4652 -2.6577  0.0674
 1744TIP3   OH226790   0.605   3.241   7.688  0.1692 -0.7609 -0.0479
 1744TIP3    H126791   0.675   3.289   7.732 -0.7336 -1.2419  2.0289
 1744TIP3    H226792   0.555   3.200   7.759 -0.8578 -2.3294 -1.5792
 1745TIP3   OH226793   2.801   5.064   6.881  0.2702 -0.3404  0.2835
 1745TIP3    H126794   2.821   5.037   6.791 -1.7798 -0.7078 -0.1228
 1745TIP3    H226795   2.736   5.134   6.870  0.8788  0.4439  1.4766
 1746TIP3   OH226796   5.780   2.642   0.635 -0.2054  0.3579 -0.4933
 1746TIP3    H126797   5.740   2.706   0.695  0.6131  1.6885 -1.3234
 1746TIP3    H226798   5.872   2.639   0.661 -0.0190  0.3209 -1.1411
 1747TIP3   OH226799   6.794   5.019   8.174  0.2101  0.1950  0.1175
 1747TIP3    H126800   6.703   5.038   8.151  0.8875  1.8183 -1.4751
 1747TIP3    H226801   6.819   5.088   8.235  0.6670  0.3622 -0.2544
 1748TIP3   OH226802   2.420   1.196   1.281  0.0093 -0.3609  0.6467
 1748TIP3    H126803   2.421   1.178   1.376 -0.1349  1.4688  1.0262
 1748TIP3    H226804   2.476   1.273   1.271 -0.8470  0.1121 -0.6146
 1749TIP3   OH226805   2.138   6.367   3.324 -0.3767 -0.1047 -0.3307
 1749TIP3    H126806   2.089   6.286   3.338  0.1751 -0.6221 -1.2630
 1749TIP3    H226807   2.077   6.424   3.277 -0.4120 -0.3886 -0.6333
 1750TIP3   OH226808   1.751   2.769   8.773 -0.7316 -0.3905 -0.1287
 1750TIP3    H126809   1.732   2.862   8.760  1.5863  0.0075 -1.1702
 1750TIP3    H226810   1.694   2.743   8.846  0.0155  2.3651  1.5787
 1751TIP3   OH226811   0.941   4.587   1.746  0.0379  0.5714  0.4388
 1751TIP3    H126812   1.028   4.548   1.736 -0.0189  0.4715  0.3270
 1751TIP3    H226813   0.893   4.524   1.800 -0.7793 -0.6713 -1.6444
 1752TIP3   OH226814   3.207   1.603   0.135 -0.3005  0.1094  0.1012
 1752TIP3    H126815   3.290   1.646   0.113 -0.6201  2.5908  2.9728
 1752TIP3    H226816   3.139   1.664   0.106 -1.0156 -0.6161  0.2044
 1753TIP3   OH226817   2.902   5.185   2.579  0.0783  0.3087  0.0241
 1753TIP3    H126818   2.850   5.263   2.596  1.2508  0.9619  0.7695
 1753TIP3    H226819   2.922   5.151   2.666 -0.0323 -0.5708 -0.2838
 1754TIP3   OH226820   2.246   1.747   0.930 -0.3510 -0.0811 -0.0329
 1754TIP3    H126821   2.337   1.755   0.959 -0.4543 -0.1031  0.3028
 1754TIP3    H226822   2.244   1.791   0.845 -0.4749  1.8201  0.8898
 1755TIP3   OH226823   4.086   5.888   7.282 -0.3692 -0.0023 -0.0830
 1755TIP3    H126824   4.150   5.934   7.228  0.5225 -1.7204 -0.5889
 1755TIP3    H226825   4.082   5.800   7.244  0.1193 -1.2228  2.4917
 1756TIP3   OH226826   2.103   5.752   1.470 -0.1140  1.1430  1.3278
 1756TIP3    H126827   2.043   5.685   1.502 -0.6424  1.6418  1.3976
 1756TIP3    H226828   2.188   5.727   1.505 -0.4530  0.9678  2.0400
 1757TIP3   OH226829   2.393   5.024   7.436 -0.7776  0.1834  0.0051
 1757TIP3    H126830   2.401   4.988   7.524 -1.5553 -0.8834 -0.3379
 1757TIP3    H226831   2.411   5.117   7.446  1.8363 -0.3371  0.8494
 1758TIP3   OH226832   4.246   1.833   7.340 -0.2274  0.4168 -0.0709
 1758TIP3    H126833   4.277   1.786   7.262 -1.5117  0.3236 -0.5444
 1758TIP3    H226834   4.203   1.911   7.306  0.2730  1.0053  0.6235
 1759TIP3   OH226835   3.134   0.216   1.589 -0.1507 -0.3545 -0.2762
 1759TIP3    H126836   3.131   0.177   1.676 -0.2511  1.8637  0.7917
 1759TIP3    H226837   3.227   0.228   1.571 -0.1425 -0.3918 -0.2573
 1760TIP3   OH226838   3.759   1.994   8.729  0.7047 -0.2275 -0.1123
 1760TIP3    H126839   3.757   1.955   8.641 -0.9192 -1.2203  0.3085
 1760TIP3    H226840   3.777   1.920   8.787  0.6685  0.2207  0.4714
 1761TIP3   OH226841   5.381   2.341   1.111  0.1742  0.5000  0.0236
 1761TIP3    H126842   5.461   2.342   1.163  1.4689 -3.1820 -1.6117
 1761TIP3    H226843   5.320   2.288   1.162 -0.2389  0.9036 -0.0449
 1762TIP3   OH226844   4.293   2.723   7.046 -0.1846 -0.0448  0.0522
 1762TIP3    H126845   4.254   2.680   6.970 -1.0941  0.2124  0.3634
 1762TIP3    H226846   4.378   2.754   7.015 -0.9979  1.0435 -1.1988
 1763TIP3   OH226847   3.482   5.294   2.317  0.2406  0.0417 -0.1081
 1763TIP3    H126848   3.484   5.298   2.222  1.3744 -0.4377 -0.1250
 1763TIP3    H226849   3.399   5.251   2.338 -0.2248  0.5669 -0.8517
 1764TIP3   OH226850   0.623   0.303   2.173 -1.0857  0.7949  0.0469
 1764TIP3    H126851   0.669   0.367   2.227  3.1702 -1.5817 -0.3720
 1764TIP3    H226852   0.635   0.334   2.083  0.1451 -0.0280 -0.0898
 1765TIP3   OH226853   1.211   0.556   3.122  0.1871  0.3730  0.1646
 1765TIP3    H126854   1.194   0.502   3.044  0.7865 -0.7932  0.8120
 1765TIP3    H226855   1.127   0.561   3.166  0.3877 -1.2823  0.8321
 1766TIP3   OH226856   5.944   2.966   8.420 -0.4842 -0.0201 -0.2673
 1766TIP3    H126857   5.901   2.959   8.505  0.6768  0.0721  0.3479
 1766TIP3    H226858   5.872   2.982   8.358 -1.2844  0.6394  0.7865
 1767TIP3   OH226859   0.621   6.735   2.343  0.4313  0.4634  0.1282
 1767TIP3    H126860   0.607   6.672   2.413  1.9787 -0.3742 -0.2770
 1767TIP3    H226861   0.664   6.810   2.386  2.2171 -0.4183 -0.0132
 1768TIP3   OH226862   6.106   5.282   7.792  0.3741 -0.5357 -0.0773
 1768TIP3    H126863   6.037   5.293   7.857  0.4570 -0.3236 -0.0259
 1768TIP3    H226864   6.162   5.359   7.803  0.0741 -0.2128 -0.7911
 1769TIP3   OH226865   4.920   3.111   6.779 -0.3210 -0.3586 -0.2095
 1769TIP3    H126866   4.848   3.106   6.717  0.9286  1.8384 -1.9909
 1769TIP3    H226867   4.989   3.056   6.741 -0.9121 -2.3609  1.4284
 1770TIP3   OH226868   3.013   6.179   1.718  0.3316  0.0582  0.3646
 1770TIP3    H126869   2.951   6.224   1.661 -0.4406 -0.9037  0.4118
 1770TIP3    H226870   3.084   6.242   1.731 -0.4768  1.0704  0.0533
 1771TIP3   OH226871   4.009   4.294   7.672  0.4244  0.2955  0.5720
 1771TIP3    H126872   4.019   4.368   7.612 -0.0463  0.0469  0.1874
 1771TIP3    H226873   3.918   4.298   7.700  0.1530 -0.6455 -0.1241
 1772TIP3   OH226874   6.034   1.330   8.787  0.1403 -0.1247  0.1736
 1772TIP3    H126875   6.051   1.245   8.746 -0.2575 -0.4077  0.5835
 1772TIP3    H226876   5.994   1.309   8.871 -2.7994  0.4553 -0.9459
 1773TIP3   OH226877   6.444   4.158   7.368  1.2743  0.3332 -0.5724
 1773TIP3    H126878   6.480   4.094   7.306  0.2591  0.8945 -1.8033
 1773TIP3    H226879   6.366   4.191   7.324 -0.9915 -1.0738  2.0690
 1774TIP3   OH226880   5.626   6.242   0.331  0.8580  0.0879  0.0813
 1774TIP3    H126881   5.637   6.266   0.424 -0.3200 -0.0215  0.2729
 1774TIP3    H226882   5.531   6.247   0.317  0.9367 -0.8891 -0.8571
 1775TIP3   OH226883   1.264   4.703   8.806  0.8383  0.6464  0.0573
 1775TIP3    H126884   1.353   4.732   8.827  0.3260  1.1351  1.6699
 1775TIP3    H226885   1.237   4.652   8.882 -0.0170 -0.0677 -0.7149
 1776TIP3   OH226886   6.755   6.356   2.751 -0.1736 -0.0079 -0.0617
 1776TIP3    H126887   6.812   6.415   2.801 -0.2314  2.2611 -2.4910
 1776TIP3    H226888   6.695   6.321   2.816 -0.8101  3.4417  1.4458
 1777TIP3   OH226889   6.723   6.063   0.874  0.1575  0.2104 -0.1924
 1777TIP3    H126890   6.774   6.007   0.932  0.6881 -1.0071 -1.7551
 1777TIP3    H226891   6.632   6.042   0.894  0.2611  1.1936  1.4683
 1778TIP3   OH226892   5.268   4.075   8.556  0.4593  0.0966  0.2136
 1778TIP3    H126893   5.208   4.004   8.578  0.9610 -0.6623 -0.7513
 1778TIP3    H226894   5.253   4.091   8.462  1.1332  0.5048  0.1649
 1779TIP3   OH226895   3.154   3.160   0.664  0.2488  0.2891  0.3063
 1779TIP3    H126896   3.096   3.180   0.738  0.7191  0.6313  0.5889
 1779TIP3    H226897   3.224   3.108   0.703  0.8559  1.0384  0.2352
 1780TIP3   OH226898   3.937   5.246   8.368  0.0408  0.2661  0.2702
 1780TIP3    H126899   3.894   5.161   8.360  0.7671 -0.1124  0.3309
 1780TIP3    H226900   3.875   5.308   8.330 -0.2201 -0.3771 -0.3651
 1781TIP3   OH226901   4.227   5.475   0.804 -0.3849 -0.0736  0.1495
 1781TIP3    H126902   4.269   5.389   0.796  1.2197  0.6547  0.3298
 1781TIP3    H226903   4.295   5.532   0.839 -0.4501  1.9395 -2.6005
 1782TIP3   OH226904   6.072   5.726   1.730  0.1796 -0.8874 -0.4091
 1782TIP3    H126905   6.069   5.788   1.803 -0.6572  0.2616 -1.3900
 1782TIP3    H226906   6.038   5.644   1.767 -0.3744 -0.2877  0.4391
 1783TIP3   OH226907   0.235   1.639   1.979 -0.4087  0.3494 -0.9864
 1783TIP3    H126908   0.201   1.715   1.931 -1.1179  1.1453  0.6936
 1783TIP3    H226909   0.162   1.577   1.981 -0.0610 -0.0976 -1.7430
 1784TIP3   OH226910   4.402   2.956   2.018 -0.5216  0.2201 -0.5325
 1784TIP3    H126911   4.410   2.981   1.926  0.1561 -0.6648 -0.7340
 1784TIP3    H226912   4.325   2.899   2.021 -0.3478 -0.0251 -0.6280
 1785TIP3   OH226913   5.518   1.436   2.699 -0.5849  0.0065  0.2389
 1785TIP3    H126914   5.606   1.399   2.696 -1.5802 -2.5443 -0.1917
 1785TIP3    H226915   5.487   1.417   2.788 -1.5425 -1.3581 -0.3556
 1786TIP3   OH226916   4.101   1.435   8.706 -0.3095  0.2244  0.1719
 1786TIP3    H126917   4.103   1.466   8.616  0.1126 -0.5418 -0.0865
 1786TIP3    H226918   4.183   1.467   8.744 -0.9599  1.4439  0.6005
 1787TIP3   OH226919   1.607   5.210   0.023 -0.1892 -0.2665 -0.4116
 1787TIP3    H126920   1.520   5.186   0.057 -0.6398  1.5440 -0.1894
 1787TIP3    H226921   1.659   5.130   0.032 -1.5086 -1.0647  0.5233
 1788TIP3   OH226922   2.501   5.901   2.900  0.0625  0.0764  0.6917
 1788TIP3    H126923   2.441   5.892   2.974 -0.5942  0.6833  0.2354
 1788TIP3    H226924   2.549   5.982   2.918  1.5977 -0.9912  1.6462
 1789TIP3   OH226925   6.125   4.941   8.033 -0.5021 -0.3092  0.1603
 1789TIP3    H126926   6.166   4.867   8.076  0.2504  0.2588  0.4437
 1789TIP3    H226927   6.139   4.925   7.939 -0.2320 -0.4639  0.2253
 1790TIP3   OH226928   5.188   5.833   0.058 -0.1841 -0.0695  0.6742
 1790TIP3    H126929   5.206   5.865   0.147  1.7143 -1.5977  0.9235
 1790TIP3    H226930   5.262   5.774   0.039 -0.2615  0.6123 -2.1328
 1791TIP3   OH226931   1.516   5.844   0.334 -0.2209 -0.1905  0.4149
 1791TIP3    H126932   1.483   5.889   0.256  1.5704  2.1286  0.8663
 1791TIP3    H226933   1.439   5.826   0.387 -1.3406 -0.7113 -1.2919
 1792TIP3   OH226934   4.601   5.844   2.246  0.5122  0.1260 -0.1442
 1792TIP3    H126935   4.681   5.791   2.247  1.4829  1.5480  0.0631
 1792TIP3    H226936   4.531   5.781   2.262  1.7426 -0.9309  1.4747
 1793TIP3   OH226937   6.384   3.013   6.944 -0.6127  0.2220  0.2924
 1793TIP3    H126938   6.318   2.990   7.009  0.5337 -1.1070  1.0402
 1793TIP3    H226939   6.368   2.951   6.872 -0.9945  0.7704 -0.1039
 1794TIP3   OH226940   0.886   1.814   7.316  0.1208  0.0537 -0.6448
 1794TIP3    H126941   0.961   1.790   7.261 -0.6892 -0.9949 -1.3313
 1794TIP3    H226942   0.924   1.866   7.387  1.4562 -0.2225 -1.1309
 1795TIP3   OH226943   4.344   3.025   0.972 -0.1475 -0.3863 -0.3628
 1795TIP3    H126944   4.277   2.975   0.926  0.3401 -1.5819  0.1552
 1795TIP3    H226945   4.427   2.984   0.945  0.3556  0.8118 -0.6954
 1796TIP3   OH226946   4.277   1.483   1.550 -0.1941 -0.3635  0.0545
 1796TIP3    H126947   4.273   1.395   1.586  0.4179 -0.1132  0.7686
 1796TIP3    H226948   4.358   1.520   1.586 -1.1016  0.9405  0.8739
 1797TIP3   OH226949   6.787   1.719   2.468  0.0950 -0.1074  0.7621
 1797TIP3    H126950   6.871   1.675   2.474  1.4404  2.2444  0.1847
 1797TIP3    H226951   6.764   1.740   2.559 -1.3776 -3.2666  1.2310
 1798TIP3   OH226952   1.808   1.201   1.098 -0.2123 -0.3363  0.4197
 1798TIP3    H126953   1.763   1.223   1.180  0.9189  2.1473  0.4821
 1798TIP3    H226954   1.848   1.116   1.114 -2.2235 -1.1500  1.4606
 1799TIP3   OH226955   1.702   6.295   1.852  0.3953 -0.6140  0.2429
 1799TIP3    H126956   1.679   6.300   1.945  1.3652 -1.0159  0.5190
 1799TIP3    H226957   1.793   6.322   1.849  0.6204 -1.4130 -0.4798
 1800TIP3   OH226958   0.361   4.160   7.644 -0.0992  0.6135 -0.0026
 1800TIP3    H126959   0.299   4.197   7.582 -1.5840 -1.0719  0.3920
 1800TIP3    H226960   0.408   4.092   7.595  0.5539  1.0264  0.0397
 1801TIP3   OH226961   5.405   1.220   8.404  0.0093  0.1751 -0.2600
 1801TIP3    H126962   5.387   1.126   8.404 -0.6074  0.2827  0.2083
 1801TIP3    H226963   5.378   1.249   8.492  0.8070  0.6752 -0.1696
 1802TIP3   OH226964   5.531   2.436   7.466  0.4272  0.3850  0.0668
 1802TIP3    H126965   5.449   2.455   7.421 -0.1140 -1.7666  0.0539
 1802TIP3    H226966   5.517   2.466   7.556  0.9365  3.2105 -0.7108
 1803TIP3   OH226967   4.651   2.140   1.739  0.0581  0.2989  0.6390
 1803TIP3    H126968   4.643   2.132   1.834  2.4303 -1.5737  0.7713
 1803TIP3    H226969   4.708   2.216   1.726  0.2794  0.1547  0.7574
 1804TIP3   OH226970   6.201   0.809   8.145  0.0903  0.3526  0.3444
 1804TIP3    H126971   6.154   0.889   8.170  0.0865  0.2235  0.7579
 1804TIP3    H226972   6.272   0.802   8.208 -1.1992 -1.1411  1.7125
 1805TIP3   OH226973   5.686   1.567   8.064  0.1034 -0.2358  0.2775
 1805TIP3    H126974   5.701   1.474   8.044  0.4134  0.1551 -1.4150
 1805TIP3    H226975   5.755   1.589   8.128  0.5015 -0.9788  0.1192
 1806TIP3   OH226976   4.349   6.301   7.937  1.0021 -0.3126 -0.4392
 1806TIP3    H126977   4.370   6.278   8.027  1.9305 -1.5232 -0.9441
 1806TIP3    H226978   4.375   6.393   7.929  0.2072  0.0494  0.7105
 1807TIP3   OH226979   4.147   1.353   2.068  0.2080  0.2379 -0.0059
 1807TIP3    H126980   4.074   1.392   2.118 -1.7071 -1.7439 -1.0762
 1807TIP3    H226981   4.222   1.359   2.126 -1.4608 -0.1675  2.3233
 1808TIP3   OH226982   4.166   4.098   7.545  0.0926 -0.8476 -0.1692
 1808TIP3    H126983   4.119   4.158   7.604  1.3190  0.0219 -0.0525
 1808TIP3    H226984   4.217   4.155   7.488  1.5178 -1.7819  0.1306
 1809TIP3   OH226985   1.706   5.047   0.797  0.4017  0.2526  0.2839
 1809TIP3    H126986   1.620   5.072   0.830  0.5661 -0.5997  1.4183
 1809TIP3    H226987   1.764   5.120   0.820 -0.0366  0.9453 -0.7089
 1810TIP3   OH226988   5.254   4.038   1.095 -0.5573 -0.3334 -0.3208
 1810TIP3    H126989   5.237   3.988   1.174  0.4636 -0.0838  0.0724
 1810TIP3    H226990   5.346   4.020   1.074 -0.6957 -0.0642 -1.2071
 1811TIP3   OH226991   5.187   5.319   8.124  0.1836  0.5218  0.1284
 1811TIP3    H126992   5.142   5.403   8.111 -0.9880  0.3241  2.4106
 1811TIP3    H226993   5.124   5.265   8.171  0.1801 -2.4151 -2.8616
 1812TIP3   OH226994   0.938   6.147   3.154 -0.6231  0.2941 -0.2403
 1812TIP3    H126995   0.904   6.058   3.155  0.1394 -0.0102  1.0800
 1812TIP3    H226996   1.018   6.143   3.207 -0.5246  1.7385 -0.2386
 1813TIP3   OH226997   0.741   2.233   3.441 -0.7275 -0.4165  0.1195
 1813TIP3    H126998   0.807   2.303   3.449 -1.2661  0.1260 -0.1483
 1813TIP3    H226999   0.676   2.268   3.381 -0.7422 -1.3643 -0.4357
 1814TIP3   OH227000   2.788   6.041   7.147  0.2405  0.4435 -0.5844
 1814TIP3    H127001   2.842   6.112   7.114  0.7910  0.1816 -0.2805
 1814TIP3    H227002   2.758   5.994   7.069  2.5645 -0.9312 -0.7606
 1815TIP3   OH227003   2.641   3.266   0.907 -1.2258 -0.1759 -0.3326
 1815TIP3    H127004   2.592   3.188   0.881  0.6061 -1.1972 -0.9130
 1815TIP3    H227005   2.577   3.337   0.903 -2.9221 -1.6116  0.1040
 1816TIP3   OH227006   1.930   2.035   1.510 -0.2911 -0.3075 -0.3982
 1816TIP3    H127007   1.846   2.075   1.533  0.7365  0.6278  2.0700
 1816TIP3    H227008   1.963   1.999   1.592  1.3517 -1.4401 -1.4896
 1817TIP3   OH227009   2.870   1.548   1.808  0.0234  0.0424 -0.0745
 1817TIP3    H127010   2.920   1.477   1.766 -1.9052 -0.7797 -1.1038
 1817TIP3    H227011   2.782   1.512   1.818 -0.4688  1.5420  1.4456
 1818TIP3   OH227012   5.464   2.352   1.833  0.2334 -0.1492 -0.1701
 1818TIP3    H127013   5.558   2.366   1.829  0.1213  0.6929 -0.1475
 1818TIP3    H227014   5.445   2.293   1.760  0.6897  0.2277 -0.5964
 1819TIP3   OH227015   0.158   6.300   2.104 -0.3971 -0.0535 -0.2326
 1819TIP3    H127016   0.113   6.384   2.110 -2.2912 -0.9918 -0.3918
 1819TIP3    H227017   0.088   6.235   2.113  0.8612 -1.6116 -1.1433
 1820TIP3   OH227018   4.807   4.509   7.640 -0.3366  0.2963  0.4996
 1820TIP3    H127019   4.899   4.504   7.616 -0.4991 -0.5974  0.0049
 1820TIP3    H227020   4.806   4.513   7.735  0.1652 -2.0881  0.6605
 1821TIP3   OH227021   3.435   2.229   0.709 -0.2912 -0.0677  0.1448
 1821TIP3    H127022   3.454   2.216   0.616 -0.1206 -0.5750  0.2456
 1821TIP3    H227023   3.495   2.298   0.737  0.4153 -0.6620  0.1247
 1822TIP3   OH227024   0.004   4.314   1.952 -0.2869 -0.2121  0.0492
 1822TIP3    H127025   0.056   4.284   1.878 -1.6078 -1.3258 -0.4664
 1822TIP3    H227026  -0.085   4.324   1.916 -0.3928  2.1431  0.7574
 1823TIP3   OH227027   3.599   0.918   0.196  0.0602  0.4671  0.0943
 1823TIP3    H127028   3.648   0.837   0.192 -1.8981 -0.7539 -0.9893
 1823TIP3    H227029   3.646   0.978   0.138  0.4787 -0.5336 -0.6231
 1824TIP3   OH227030   2.497   6.078   7.991 -0.0264 -0.3983 -0.4751
 1824TIP3    H127031   2.578   6.032   7.969  0.6641  0.7550 -0.4707
 1824TIP3    H227032   2.431   6.009   8.000  0.8217 -1.3140 -1.0664
 1825TIP3   OH227033   2.161   1.447   2.111  0.8450 -0.1583 -0.3611
 1825TIP3    H127034   2.117   1.477   2.031  1.0005 -2.4145 -1.3462
 1825TIP3    H227035   2.108   1.484   2.182  0.4362  1.5147 -1.4651
 1826TIP3   OH227036   0.864   0.145   0.486  0.0508 -0.5525  0.0734
 1826TIP3    H127037   0.872   0.112   0.397  0.1738  0.8168 -0.4425
 1826TIP3    H227038   0.792   0.095   0.524  1.3287 -2.6279 -0.0739
 1827TIP3   OH227039   3.906   5.569   7.115 -0.0609  0.5418  0.2447
 1827TIP3    H127040   3.998   5.581   7.092 -0.1905 -2.1910 -2.3132
 1827TIP3    H227041   3.908   5.540   7.207  1.7136 -0.2275  0.0093
 1828TIP3   OH227042   4.246   2.632   1.102  0.4809 -0.5407  0.4693
 1828TIP3    H127043   4.226   2.724   1.118 -0.2608 -0.4402 -0.9133
 1828TIP3    H227044   4.201   2.586   1.173 -2.2059 -0.0721 -0.7991
 1829TIP3   OH227045   3.785   3.229   7.772 -0.7209  0.0026 -0.3560
 1829TIP3    H127046   3.824   3.314   7.752 -0.8196 -0.1718 -1.3422
 1829TIP3    H227047   3.813   3.172   7.700 -0.1900 -0.9552  0.5851
 1830TIP3   OH227048   1.797   5.364   1.473  0.4579  0.2501 -0.3415
 1830TIP3    H127049   1.881   5.387   1.513  1.0021 -1.3220 -0.5367
 1830TIP3    H227050   1.815   5.286   1.422 -0.8505  0.6413 -1.4623
 1831TIP3   OH227051   6.401   5.767   0.085 -0.3116 -0.1553  0.4133
 1831TIP3    H127052   6.453   5.696   0.047 -0.0044  1.6184 -2.8640
 1831TIP3    H227053   6.459   5.810   0.147  1.0633 -0.1300 -0.8523
 1832TIP3   OH227054   1.688   4.164   0.615  0.3628  0.1682 -0.6043
 1832TIP3    H127055   1.667   4.087   0.563 -0.6941  0.9739 -1.4325
 1832TIP3    H227056   1.605   4.188   0.656  1.3715 -1.0664  2.4028
 1833TIP3   OH227057   5.104   6.547   7.486  0.1737 -0.4479 -0.6516
 1833TIP3    H127058   5.030   6.520   7.432 -0.0512  0.4468 -0.8099
 1833TIP3    H227059   5.180   6.538   7.429  0.2172 -1.5113 -0.4418
 1834TIP3   OH227060   6.660   5.858   2.843  0.6135 -0.0316  0.0193
 1834TIP3    H127061   6.665   5.815   2.758 -0.6492  0.9912 -0.6122
 1834TIP3    H227062   6.567   5.878   2.854  1.1639  2.9327  0.0552
 1835TIP3   OH227063   2.558   0.662   0.989  0.3400  0.1636 -0.6962
 1835TIP3    H127064   2.563   0.596   0.920 -0.2420 -1.0719  0.3965
 1835TIP3    H227065   2.475   0.707   0.974  0.1022 -0.2630 -0.6557
 1836TIP3   OH227066   0.470   5.131   0.675  0.5120  0.3608 -0.3729
 1836TIP3    H127067   0.503   5.054   0.629 -1.0674 -0.1924 -0.6554
 1836TIP3    H227068   0.449   5.194   0.606 -2.0881 -0.5602 -0.5389
 1837TIP3   OH227069   5.580   3.732   7.653  0.3374  0.3901  0.0071
 1837TIP3    H127070   5.590   3.812   7.705 -1.7084 -0.4792  1.9417
 1837TIP3    H227071   5.575   3.762   7.563  0.4525  2.3691  0.6060
 1838TIP3   OH227072   0.696   2.396   2.186 -0.1056 -0.0142 -0.0715
 1838TIP3    H127073   0.619   2.386   2.131  0.5743  0.7836 -1.2377
 1838TIP3    H227074   0.729   2.307   2.199 -0.5511 -0.2563 -0.5631
 1839TIP3   OH227075   6.211   4.323   0.651 -0.7057 -0.4912  0.0563
 1839TIP3    H127076   6.263   4.247   0.677 -1.7032 -0.6523  1.7897
 1839TIP3    H227077   6.148   4.290   0.587 -0.1412 -0.7783 -0.3503
 1840TIP3   OH227078   0.009   5.623   0.062 -0.0143  0.0002  0.8586
 1840TIP3    H127079  -0.082   5.594   0.056 -0.6911  2.1583 -0.5191
 1840TIP3    H227080   0.028   5.625   0.156 -1.6576  0.2774  1.2114
 1841TIP3   OH227081   3.095   2.716   8.534  0.5772 -1.5036  0.4152
 1841TIP3    H127082   3.101   2.810   8.552 -0.6453 -1.5140  0.9697
 1841TIP3    H227083   3.151   2.703   8.458  0.7850 -0.3278  0.3438
 1842TIP3   OH227084   5.504   0.694   1.774  0.0941  0.0939  0.1766
 1842TIP3    H127085   5.572   0.760   1.765  0.4425 -0.3099 -0.1866
 1842TIP3    H227086   5.469   0.684   1.686  1.3775 -1.6084 -0.1815
 1843TIP3   OH227087   0.925   1.114   8.751 -0.6851  0.0387 -0.1840
 1843TIP3    H127088   0.863   1.043   8.733 -0.6671  0.1038 -0.5109
 1843TIP3    H227089   0.955   1.097   8.840  0.9202 -1.5786 -0.9657
 1844TIP3   OH227090   3.132   3.475   0.447 -0.2849 -0.3469 -0.1590
 1844TIP3    H127091   3.122   3.406   0.381 -2.1766  0.9446 -1.3429
 1844TIP3    H227092   3.057   3.464   0.505 -0.8117  0.8877 -0.5720
 1845TIP3   OH227093   1.838   3.478   0.281  0.8186  0.1441 -0.1122
 1845TIP3    H127094   1.871   3.482   0.371  0.7574 -0.5646 -0.0521
 1845TIP3    H227095   1.744   3.491   0.289  0.9054  0.8370 -0.1535
 1846TIP3   OH227096   1.568   4.301   8.407  0.1838  0.4310  0.2853
 1846TIP3    H127097   1.478   4.318   8.437 -0.1048  1.2495 -0.9667
 1846TIP3    H227098   1.623   4.332   8.479 -0.5300 -0.9891  1.5048
 1847TIP3   OH227099   5.280   0.801   1.966  0.0808 -0.3877  0.1664
 1847TIP3    H127100   5.251   0.873   1.910  1.4747  0.8221  0.9450
 1847TIP3    H227101   5.352   0.760   1.918  1.7915  1.1240  1.2966
 1848TIP3   OH227102   3.489   2.565   0.490  0.1997 -0.2136 -0.5485
 1848TIP3    H127103   3.573   2.571   0.536 -0.0770 -1.5539  0.1811
 1848TIP3    H227104   3.486   2.476   0.457 -0.8831 -0.1306 -0.6911
 1849TIP3   OH227105   2.872   2.354   7.942  0.3176 -0.4082  0.3466
 1849TIP3    H127106   2.832   2.305   8.014  0.1208 -2.0539 -0.8028
 1849TIP3    H227107   2.948   2.397   7.982 -0.2033 -0.6736  1.6859
 1850TIP3   OH227108   0.862   4.058   8.404 -0.0044  0.0354  0.1744
 1850TIP3    H127109   0.799   3.989   8.423 -1.9797  1.8074  0.4471
 1850TIP3    H227110   0.844   4.083   8.314  0.7566  0.1411  0.0438
 1851TIP3   OH227111   4.690   0.277   1.236  0.7992  0.6154  0.2509
 1851TIP3    H127112   4.610   0.287   1.288 -0.6922  2.7313 -2.2061
 1851TIP3    H227113   4.697   0.182   1.221 -0.7008  0.3005  1.3060
 1852TIP3   OH227114   6.150   4.473   7.442 -0.3536  0.2086 -0.1780
 1852TIP3    H127115   6.176   4.547   7.387 -1.3958  1.7041  1.2689
 1852TIP3    H227116   6.101   4.416   7.383  1.8953 -0.2677 -1.7526
 1853TIP3   OH227117   2.089   1.917   7.339 -0.1329 -0.1999 -0.0759
 1853TIP3    H127118   2.184   1.910   7.329 -0.0728  0.5701 -0.0910
 1853TIP3    H227119   2.070   2.009   7.325 -0.6764 -0.0158  1.6136
 1854TIP3   OH227120   3.706   5.240   1.211 -0.1302  0.5490  0.2780
 1854TIP3    H127121   3.701   5.153   1.251 -0.3218  0.9852  1.2326
 1854TIP3    H227122   3.796   5.246   1.178 -0.0206  0.1120  0.4966
 1855TIP3   OH227123   5.535   1.792   8.043 -0.0307  0.4662 -0.2355
 1855TIP3    H127124   5.601   1.849   8.004 -0.8178  1.0219 -0.7742
 1855TIP3    H227125   5.570   1.703   8.030  1.1853  0.7881  0.5803
 1856TIP3   OH227126   4.377   3.778   2.102  0.0678  0.3572  0.3486
 1856TIP3    H127127   4.350   3.686   2.098  0.4706  0.2768 -1.2321
 1856TIP3    H227128   4.325   3.821   2.034 -1.8504  1.8164  2.5955
 1857TIP3   OH227129   5.300   0.825   0.134 -0.0353  0.2401 -0.2587
 1857TIP3    H127130   5.365   0.855   0.197  0.8158 -1.2487 -0.4030
 1857TIP3    H227131   5.240   0.770   0.185 -0.2883  0.3442 -0.4385
 1858TIP3   OH227132   4.380   2.148   7.725  0.1249  0.0829 -0.0551
 1858TIP3    H127133   4.320   2.078   7.751  0.2254  0.0133 -0.0127
 1858TIP3    H227134   4.451   2.105   7.678  0.6160  0.0530  0.6992
 1859TIP3   OH227135   0.286   5.695   3.046  0.0589 -0.0977  0.4096
 1859TIP3    H127136   0.260   5.769   3.102  1.6945  0.8713 -0.0580
 1859TIP3    H227137   0.362   5.657   3.089  2.7675  2.0134 -2.0613
 1860TIP3   OH227138   4.576   3.897   8.031 -0.3610  0.0546  0.2135
 1860TIP3    H127139   4.565   3.965   7.964 -1.1156  0.9245  1.1962
 1860TIP3    H227140   4.495   3.846   8.028  0.8242 -1.9156 -1.6516
 1861TIP3   OH227141   4.735   4.397   2.341 -0.2191  0.1310 -1.0102
 1861TIP3    H127142   4.729   4.409   2.436  0.6538  0.4362 -0.9893
 1861TIP3    H227143   4.822   4.362   2.326  0.3596  1.8148 -1.8533
 1862TIP3   OH227144   5.794   4.366   2.796  0.0527 -0.1166  0.7096
 1862TIP3    H127145   5.730   4.401   2.858  0.2249 -0.4823  1.0980
 1862TIP3    H227146   5.812   4.278   2.827 -1.0174 -0.8995 -0.7591
 1863TIP3   OH227147   4.105   4.103   0.618  0.1960  0.2056  0.1574
 1863TIP3    H127148   4.059   4.022   0.642 -0.2085  0.7024  1.1076
 1863TIP3    H227149   4.048   4.145   0.554  1.3485 -1.1993 -1.9149
 1864TIP3   OH227150   1.995   0.663   2.490  0.1603  0.1732  0.0171
 1864TIP3    H127151   2.029   0.573   2.489  1.0696  0.4940  0.8262
 1864TIP3    H227152   1.903   0.653   2.515  0.3538 -0.5031  0.5034
 1865TIP3   OH227153   2.007   3.120   7.627  0.1022  0.0011  0.3445
 1865TIP3    H127154   2.089   3.120   7.677  1.4976 -1.2801 -1.7443
 1865TIP3    H227155   1.981   3.212   7.623  1.7833  0.5327  0.5965
 1866TIP3   OH227156   2.569   2.079   1.905 -0.5531 -0.0090  0.1867
 1866TIP3    H127157   2.573   2.174   1.917 -0.7484 -0.2229  2.1198
 1866TIP3    H227158   2.511   2.048   1.974  0.4026 -1.6649  0.2885
 1867TIP3   OH227159   0.781   1.001   0.867  0.1593  0.1529 -0.2327
 1867TIP3    H127160   0.768   0.982   0.960  0.4680 -0.8502 -0.3772
 1867TIP3    H227161   0.694   0.992   0.828  0.1904 -0.3933 -0.1899
 1868TIP3   OH227162   5.273   5.661   8.364 -0.6262 -0.8082  0.6443
 1868TIP3    H127163   5.306   5.750   8.354 -1.1221 -0.7709 -0.9528
 1868TIP3    H227164   5.251   5.654   8.456 -0.3211  0.6354  0.8534
 1869TIP3   OH227165   1.057   6.662   8.195  0.7210  0.3771  0.2313
 1869TIP3    H127166   1.104   6.746   8.200  1.9884 -0.4016  2.7561
 1869TIP3    H227167   0.970   6.681   8.229  1.1549  0.5818  1.2443
 1870TIP3   OH227168   5.869   5.267   1.687 -0.3003  0.2728 -0.3367
 1870TIP3    H127169   5.872   5.330   1.759 -1.3917 -0.7119  0.6132
 1870TIP3    H227170   5.929   5.302   1.622  0.7859  1.1625  1.0807
 1871TIP3   OH227171   3.282   4.104   1.517 -0.1147  0.2010  0.4707
 1871TIP3    H127172   3.189   4.124   1.518  0.3156  2.4418  0.4587
 1871TIP3    H227173   3.308   4.114   1.425  0.6849  2.7312  0.8960
 1872TIP3   OH227174   2.354   4.164   7.053  0.0282  0.5351 -0.8203
 1872TIP3    H127175   2.337   4.124   6.968 -1.1099 -0.0558 -0.3375
 1872TIP3    H227176   2.290   4.234   7.060 -1.8717 -1.2148  0.6942
 1873TIP3   OH227177   0.645   4.465   8.580  0.9109 -0.4538 -0.0094
 1873TIP3    H127178   0.715   4.504   8.526 -0.6162 -0.2519 -1.9715
 1873TIP3    H227179   0.601   4.540   8.619  1.8637 -0.5907  1.4002
 1874TIP3   OH227180   6.579   4.841   0.349 -0.1208 -0.6483 -0.7619
 1874TIP3    H127181   6.503   4.793   0.317  0.5735 -2.2721 -0.0971
 1874TIP3    H227182   6.654   4.786   0.325  0.6271 -0.5798  1.2009
 1875TIP3   OH227183   0.453   0.080   8.767 -0.3440  0.2369  0.3811
 1875TIP3    H127184   0.391   0.139   8.809  1.3165  1.7983  0.7768
 1875TIP3    H227185   0.491   0.132   8.696  0.5688 -0.6315  0.2094
 1876TIP3   OH227186   2.450   2.779   7.160 -0.5453  0.3325 -0.3944
 1876TIP3    H127187   2.515   2.712   7.181  0.4904  1.7054  0.9955
 1876TIP3    H227188   2.411   2.749   7.078  1.4555 -0.8144 -1.0049
 1877TIP3   OH227189   1.748   4.819   0.927  0.7853  0.5728 -0.3254
 1877TIP3    H127190   1.727   4.904   0.889  1.8548  0.6414 -0.7761
 1877TIP3    H227191   1.688   4.811   1.002  0.0457  1.3063 -0.8222
 1878TIP3   OH227192   4.898   5.831   7.837  0.0657  0.2755 -0.0885
 1878TIP3    H127193   4.993   5.838   7.835  0.1185  0.3746  1.6728
 1878TIP3    H227194   4.880   5.740   7.861 -0.2684  0.3661  0.0166
 1879TIP3   OH227195   6.352   0.052   0.235  0.4534  0.4107 -0.5767
 1879TIP3    H127196   6.282   0.032   0.172  0.2877  2.9958 -1.3220
 1879TIP3    H227197   6.427   0.002   0.203  0.1240  0.9832 -2.3734
 1880TIP3   OH227198   4.955   3.295   7.721  0.1269  0.2672  0.1463
 1880TIP3    H127199   5.045   3.263   7.708 -0.1160 -1.2670  1.8960
 1880TIP3    H227200   4.902   3.240   7.663  0.2346  0.8891 -0.5657
 1881TIP3   OH227201   5.385   6.541   8.454  0.1176 -0.1928  0.0916
 1881TIP3    H127202   5.362   6.454   8.421 -0.4929 -0.9061  2.2508
 1881TIP3    H227203   5.301   6.584   8.472  0.4039  0.9738 -1.1550
 1882TIP3   OH227204   6.101   3.659   1.759 -0.2952 -0.3765  0.3490
 1882TIP3    H127205   6.036   3.729   1.769 -0.1051  0.2782 -2.2253
 1882TIP3    H227206   6.169   3.681   1.823 -0.3546  1.6873 -0.2003
 1883TIP3   OH227207   4.557   2.358   2.588  0.0481 -0.0792 -0.3234
 1883TIP3    H127208   4.589   2.268   2.583 -0.5649 -0.3743  0.7970
 1883TIP3    H227209   4.468   2.354   2.553  0.5596  0.4106 -1.7653
 1884TIP3   OH227210   4.243   0.217   7.097 -0.1101 -0.7410  0.0553
 1884TIP3    H127211   4.213   0.129   7.074  1.3583 -1.3401  0.3161
 1884TIP3    H227212   4.268   0.256   7.013 -1.9917 -0.0442 -0.2320
 1885TIP3   OH227213   3.264   1.497   1.682 -0.3165 -0.4368 -0.3065
 1885TIP3    H127214   3.332   1.476   1.746  1.0363 -0.9701 -1.8410
 1885TIP3    H227215   3.289   1.583   1.649 -0.3699 -0.6443 -0.8937
 1886TIP3   OH227216   0.552   0.820   2.053  0.5412  0.2982  0.0798
 1886TIP3    H127217   0.464   0.791   2.077 -0.1385 -1.3599 -3.6647
 1886TIP3    H227218   0.561   0.906   2.093 -3.9886  1.8341 -1.5808
 1887TIP3   OH227219   5.998   4.561   8.504 -0.0339 -0.3251  0.2812
 1887TIP3    H127220   5.924   4.503   8.517  0.1511 -0.5273  0.4510
 1887TIP3    H227221   6.034   4.574   8.592  0.5773 -0.8286  0.1174
 1888TIP3   OH227222   1.177   5.723   1.704  0.2546  0.3340 -0.5372
 1888TIP3    H127223   1.168   5.795   1.642  1.5775  0.9285 -0.0992
 1888TIP3    H227224   1.088   5.695   1.723 -0.2033  0.7343 -2.0054
 1889TIP3   OH227225   1.992   4.269   8.605 -0.4774  0.0769 -0.6894
 1889TIP3    H127226   1.993   4.174   8.616 -1.3052  0.1365  0.0401
 1889TIP3    H227227   2.016   4.303   8.691  0.4465  0.5314 -1.1158
 1890TIP3   OH227228   0.290   0.312   8.174 -0.0414  0.1262 -0.3794
 1890TIP3    H127229   0.212   0.259   8.156 -0.6034  0.1001  1.7877
 1890TIP3    H227230   0.363   0.254   8.154 -0.6385 -1.1033  0.8065
 1891TIP3   OH227231   2.560   6.364   0.887 -0.7121 -0.7104 -0.6143
 1891TIP3    H127232   2.616   6.315   0.948 -1.4551  0.3696  1.0229
 1891TIP3    H227233   2.581   6.456   0.905 -2.5851 -0.3007 -0.3685
 1892TIP3   OH227234   4.265   6.377   1.163  0.0357 -0.4141  0.4850
 1892TIP3    H127235   4.275   6.388   1.068  0.8808 -1.0002  0.4979
 1892TIP3    H227236   4.349   6.342   1.192  0.2885  1.0577  1.6757
 1893TIP3   OH227237   3.779   0.413   2.277  0.3218 -0.3181  0.5019
 1893TIP3    H127238   3.770   0.441   2.368 -0.0837 -0.2887  0.4523
 1893TIP3    H227239   3.747   0.487   2.225  1.0867 -0.1037  0.3124
 1894TIP3   OH227240   0.876   3.536   7.088 -0.6044  0.3305  0.1246
 1894TIP3    H127241   0.793   3.500   7.055 -0.6323 -0.8199  1.3949
 1894TIP3    H227242   0.941   3.468   7.068  0.0063  1.1220 -0.6458
 1895TIP3   OH227243   2.539   0.599   1.231  0.1417  0.0331 -0.2250
 1895TIP3    H127244   2.581   0.671   1.277  1.8530 -0.5460 -0.8020
 1895TIP3    H227245   2.547   0.621   1.139 -0.8554 -0.0971 -0.3561
 1896TIP3   OH227246   1.879   2.490   1.148  0.0239 -0.4013 -0.0960
 1896TIP3    H127247   1.970   2.516   1.159 -0.3733  0.2422  2.2545
 1896TIP3    H227248   1.828   2.569   1.167 -1.0544 -1.3852  1.3487
 1897TIP3   OH227249   6.577   5.541   8.835 -0.0170  0.2679 -0.7945
 1897TIP3    H127250   6.558   5.453   8.867  1.8712  0.1603  0.2027
 1897TIP3    H227251   6.564   5.536   8.741 -2.7857 -0.2339 -0.4739
 1898TIP3   OH227252   5.381   6.663   2.110 -0.2757 -0.8864 -0.3090
 1898TIP3    H127253   5.331   6.708   2.042  0.1119 -0.0879 -0.0685
 1898TIP3    H227254   5.423   6.732   2.159  1.9268 -1.5634 -1.1376
 1899TIP3   OH227255   1.303   0.310   0.767 -0.0754  1.0136  0.7353
 1899TIP3    H127256   1.216   0.314   0.727 -0.6014  2.6680  1.9608
 1899TIP3    H227257   1.360   0.280   0.695 -1.7338 -1.0570  0.1568
 1900TIP3   OH227258   0.105   0.692   1.838 -0.2098  0.0947 -0.2750
 1900TIP3    H127259   0.028   0.660   1.791 -1.1457 -1.6982  2.2576
 1900TIP3    H227260   0.159   0.615   1.853  1.6868  1.1785 -1.2077
 1901TIP3   OH227261   5.214   5.959   1.265  0.3695  0.0902 -0.9724
 1901TIP3    H127262   5.292   5.911   1.293 -1.3454 -2.2245  0.2048
 1901TIP3    H227263   5.226   5.971   1.170  1.5817 -1.3277 -1.0389
 1902TIP3   OH227264   2.644   0.076   2.656 -0.1122  0.0593 -0.4565
 1902TIP3    H127265   2.655   0.168   2.632 -0.1360 -0.3926 -2.3088
 1902TIP3    H227266   2.589   0.039   2.587 -0.1333 -1.3507  0.2771
 1903TIP3   OH227267   3.040   6.001   7.422 -0.1415 -0.6043 -0.4006
 1903TIP3    H127268   2.993   5.931   7.376  0.3544 -1.5550  0.4922
 1903TIP3    H227269   3.091   6.045   7.353 -0.0552 -1.4542 -0.8922
 1904TIP3   OH227270   0.697   4.294   3.084 -0.0524  0.1111  0.1101
 1904TIP3    H127271   0.647   4.214   3.067 -0.3662  0.5259 -1.0607
 1904TIP3    H227272   0.732   4.319   2.998 -0.0647  1.2896  0.4248
 1905TIP3   OH227273   3.936   1.629   8.308  0.1714  0.3573 -0.0630
 1905TIP3    H127274   3.963   1.706   8.357  1.5456  0.1666 -0.4658
 1905TIP3    H227275   3.856   1.599   8.351  0.3534  1.2404  0.9163
 1906TIP3   OH227276   6.064   4.215   0.441  0.3278  0.1905  0.0009
 1906TIP3    H127277   5.970   4.205   0.451  0.3653 -0.0633  0.0989
 1906TIP3    H227278   6.077   4.226   0.347  0.3160 -0.9995 -0.1533
 1907TIP3   OH227279   4.924   2.084   2.080 -0.0970 -0.6599  0.0417
 1907TIP3    H127280   4.961   2.025   2.015 -0.1691 -0.4523 -0.1881
 1907TIP3    H227281   4.830   2.075   2.071 -0.1053 -1.1092  0.5565
 1908TIP3   OH227282   2.844   1.010   2.051 -0.2446 -0.1974 -0.1526
 1908TIP3    H127283   2.748   1.004   2.060 -0.3381 -0.1796 -1.0213
 1908TIP3    H227284   2.859   1.098   2.018 -0.0562 -0.6621 -1.3669
 1909TIP3   OH227285   2.739   6.452   8.479 -0.1895 -0.4449  0.3102
 1909TIP3    H127286   2.693   6.477   8.559 -1.1467 -0.5821 -0.1829
 1909TIP3    H227287   2.814   6.400   8.509 -0.8447 -0.9631  1.0935
 1910TIP3   OH227288   0.885   3.706   1.979 -0.1326  0.1781 -0.1119
 1910TIP3    H127289   0.948   3.655   2.028 -1.4590 -3.0194 -1.4468
 1910TIP3    H227290   0.937   3.759   1.918  1.3227  1.2494  1.9699
 1911TIP3   OH227291   1.814   1.789   0.284 -0.7732  0.7427 -0.5386
 1911TIP3    H127292   1.884   1.850   0.308 -0.6380  0.6715 -0.7548
 1911TIP3    H227293   1.839   1.707   0.326 -0.8168  0.7644 -0.4705
 1912TIP3   OH227294   1.302   1.601   1.804 -0.4863 -0.3818 -0.2979
 1912TIP3    H127295   1.312   1.695   1.789 -0.1599 -0.0598  1.6633
 1912TIP3    H227296   1.331   1.560   1.722  0.6246  1.1728 -0.7190
 1913TIP3   OH227297   4.039   4.927   0.228 -0.7399  0.7789  1.1625
 1913TIP3    H127298   3.966   4.867   0.239 -3.2943  2.7911 -2.4550
 1913TIP3    H227299   4.079   4.902   0.145  0.1664  2.0911  1.1635
 1914TIP3   OH227300   3.804   6.385   7.859  0.1317  0.3254 -0.0114
 1914TIP3    H127301   3.806   6.479   7.880 -1.3688  1.1181 -2.9841
 1914TIP3    H227302   3.820   6.381   7.765  1.4192 -2.5535  0.2316
 1915TIP3   OH227303   0.010   5.696   3.029  0.4764  0.1841  0.1004
 1915TIP3    H127304  -0.040   5.743   2.962  1.9314 -1.4029 -2.2620
 1915TIP3    H227305   0.029   5.761   3.096 -1.9067  1.6132 -0.4913
 1916TIP3   OH227306   0.692   6.664   0.954  0.7140  0.1805  0.0954
 1916TIP3    H127307   0.602   6.655   0.922  1.5043 -0.8320 -2.0247
 1916TIP3    H227308   0.699   6.601   1.026  0.0852 -0.7071 -0.6043
 1917TIP3   OH227309   4.231   5.834   8.492  0.2842 -0.6929 -0.4886
 1917TIP3    H127310   4.310   5.862   8.539 -0.3610  1.2580 -0.4653
 1917TIP3    H227311   4.251   5.849   8.400 -0.5317  1.3032 -0.3969
 1918TIP3   OH227312   5.122   1.180   8.543 -0.3313 -0.0820  0.0015
 1918TIP3    H127313   5.126   1.276   8.545 -1.1914 -0.0326 -0.3498
 1918TIP3    H227314   5.029   1.160   8.554 -0.1728 -0.8748 -0.0884
 1919TIP3   OH227315   4.872   0.189   7.834  0.5153  0.1235 -0.1368
 1919TIP3    H127316   4.931   0.259   7.806  0.3143 -0.5196 -2.4041
 1919TIP3    H227317   4.800   0.235   7.877  2.3830  0.9486  2.3307
 1920TIP3   OH227318   2.325   3.528   1.121 -0.3191 -0.4216  0.0423
 1920TIP3    H127319   2.248   3.553   1.071 -0.4901  0.8870  0.8982
 1920TIP3    H227320   2.395   3.518   1.056 -0.7015  0.5282 -0.5239
 1921TIP3   OH227321   2.431   4.722   1.948  0.5014 -0.3772  0.4651
 1921TIP3    H127322   2.340   4.740   1.926  0.5882 -0.2731  0.1838
 1921TIP3    H227323   2.433   4.718   2.043  0.1122 -0.8753  0.4538
 1922TIP3   OH227324   2.459   4.579   8.174 -0.3767  0.2840 -0.4488
 1922TIP3    H127325   2.475   4.515   8.104 -2.1417  1.4029 -1.9801
 1922TIP3    H227326   2.371   4.559   8.205 -0.5744  1.3538 -0.2885
 1923TIP3   OH227327   0.528   3.203   0.106  0.4059  0.0559 -0.3964
 1923TIP3    H127328   0.469   3.128   0.102 -1.7972  1.7647 -1.6194
 1923TIP3    H227329   0.525   3.242   0.019  1.9077  1.2948  0.0527
 1924TIP3   OH227330   3.805   0.222   8.089 -0.3292 -0.1592  0.2118
 1924TIP3    H127331   3.765   0.167   8.022  0.6199 -0.6800  0.0631
 1924TIP3    H227332   3.735   0.237   8.153 -1.0294 -0.2573 -0.5230
 1925TIP3   OH227333   0.430   1.341   7.466  0.3867  0.1485  0.2866
 1925TIP3    H127334   0.483   1.406   7.421 -1.4636  1.7777  0.3150
 1925TIP3    H227335   0.369   1.392   7.519 -0.8011 -1.6227  0.7354
 1926TIP3   OH227336   0.161   4.555   0.780 -0.1928 -0.4176  0.1696
 1926TIP3    H127337   0.122   4.482   0.828  1.2012 -1.0532  0.3647
 1926TIP3    H227338   0.228   4.515   0.725  0.5572  0.6959  0.2379
 1927TIP3   OH227339   3.613   0.552   1.746  0.7062  0.5423 -0.2055
 1927TIP3    H127340   3.572   0.571   1.661 -1.0872 -0.3706  0.4064
 1927TIP3    H227341   3.688   0.612   1.750  0.0433  1.5599 -1.8300
 1928TIP3   OH227342   1.902   2.540   8.304 -0.2835 -0.0122  0.2197
 1928TIP3    H127343   1.871   2.594   8.377 -4.0537 -0.7881 -0.5943
 1928TIP3    H227344   1.942   2.602   8.244 -0.5827  1.2202  1.2532
 1929TIP3   OH227345   0.777   0.779   0.269 -0.1810  0.0643  0.5740
 1929TIP3    H127346   0.770   0.690   0.302  0.7078  0.4253  1.7950
 1929TIP3    H227347   0.777   0.834   0.347 -3.6499  1.4078 -0.2056
 1930TIP3   OH227348   1.105   4.434   2.074 -0.1136  0.1156  0.4179
 1930TIP3    H127349   1.013   4.421   2.097 -0.6318 -0.6904 -1.8632
 1930TIP3    H227350   1.138   4.346   2.057  0.4868  0.5655 -0.8201
 1931TIP3   OH227351   2.614   1.296   8.283  0.0771  0.1721 -0.5903
 1931TIP3    H127352   2.623   1.228   8.217 -1.0564  0.7869 -1.3988
 1931TIP3    H227353   2.537   1.270   8.334 -0.0316  0.5652 -0.5520
 1932TIP3   OH227354   1.154   1.778   8.123  0.1415 -0.3770  0.6524
 1932TIP3    H127355   1.222   1.711   8.131  0.8272  0.3883  1.4670
 1932TIP3    H227356   1.089   1.754   8.189 -0.8982 -1.6486 -0.7633
 1933TIP3   OH227357   3.476   4.222   7.789 -0.6360 -0.6389  0.2352
 1933TIP3    H127358   3.439   4.275   7.860 -1.8099 -0.8954 -0.1729
 1933TIP3    H227359   3.442   4.134   7.805  0.2600 -1.0139  0.1606
 1934TIP3   OH227360   0.914   3.918   1.044 -0.0724 -0.1335 -0.2157
 1934TIP3    H127361   0.942   3.856   1.111  1.8647  0.3764 -0.4709
 1934TIP3    H227362   0.889   3.865   0.969 -1.3011 -0.6757  0.5650
 1935TIP3   OH227363   5.403   5.265   8.396  0.1647  0.0297 -0.3939
 1935TIP3    H127364   5.494   5.246   8.420 -0.0350  0.4116  0.7345
 1935TIP3    H227365   5.383   5.202   8.326  0.6345 -1.5259  0.8100
 1936TIP3   OH227366   0.014   1.218   1.569  0.7166  0.1733 -0.7968
 1936TIP3    H127367  -0.003   1.305   1.534  2.5596  0.5761 -0.7921
 1936TIP3    H227368   0.053   1.234   1.655 -1.0878 -0.7344  0.2427
 1937TIP3   OH227369   1.637   0.339   8.668  0.2833 -0.1114  0.3789
 1937TIP3    H127370   1.557   0.320   8.717  0.4167 -0.6841  0.3765
 1937TIP3    H227371   1.617   0.312   8.578  0.0155  1.0001  0.0882
 1938TIP3   OH227372   4.588   2.122   2.379  0.1932  0.2649  0.1428
 1938TIP3    H127373   4.579   2.033   2.347 -0.5097  0.9945 -1.8278
 1938TIP3    H227374   4.570   2.116   2.473 -0.3587 -1.5745 -0.0494
 1939TIP3   OH227375   5.405   0.421   1.273 -0.5419 -0.1216  0.3883
 1939TIP3    H127376   5.360   0.346   1.234 -1.2698  0.0356  0.9146
 1939TIP3    H227377   5.336   0.484   1.291  0.2068  1.2354 -1.2410
 1940TIP3   OH227378   1.025   4.338   0.008 -0.1722  0.1745 -0.1056
 1940TIP3    H127379   1.080   4.263   0.030  0.2458  0.5949  0.2964
 1940TIP3    H227380   0.957   4.302  -0.049  0.4331 -0.3750 -0.4844
 1941TIP3   OH227381   5.274   5.392   1.410 -0.6252  0.3742  0.3884
 1941TIP3    H127382   5.200   5.334   1.393 -0.1208 -0.6958  1.6786
 1941TIP3    H227383   5.237   5.480   1.409 -2.0301 -0.1709  1.5104
 1942TIP3   OH227384   1.155   4.189   1.948 -0.3468  0.2821  0.1808
 1942TIP3    H127385   1.188   4.209   1.860  0.8301 -2.5982 -0.1381
 1942TIP3    H227386   1.097   4.114   1.935 -0.4732  0.0649  1.8215
 1943TIP3   OH227387   0.639   2.116   0.750  0.2072 -0.3080 -0.2183
 1943TIP3    H127388   0.565   2.169   0.779 -1.2735 -2.0130 -0.6762
 1943TIP3    H227389   0.704   2.125   0.820  0.2427  2.4237 -0.5111
 1944TIP3   OH227390   3.022   0.780   1.285  0.6560 -0.0078 -0.2150
 1944TIP3    H127391   3.019   0.803   1.378 -0.5498 -0.3110 -0.1691
 1944TIP3    H227392   3.107   0.737   1.274  0.5532 -0.5200  0.8713
 1945TIP3   OH227393   2.102   0.421   2.455 -0.0686 -0.0946  0.0655
 1945TIP3    H127394   2.082   0.347   2.398  0.6571  0.7248 -1.2872
 1945TIP3    H227395   2.191   0.404   2.487  0.5109  0.6809 -1.0806
 1946TIP3   OH227396   1.480   0.964   7.922  0.3359  0.6571  0.0011
 1946TIP3    H127397   1.564   0.923   7.942 -0.0223  0.2457  0.7279
 1946TIP3    H227398   1.416   0.911   7.970 -0.2310  1.5789  0.2938
 1947TIP3   OH227399   5.461   2.179   7.808 -0.4175  0.1703  0.2112
 1947TIP3    H127400   5.495   2.139   7.888  2.3704 -0.5795 -1.2401
 1947TIP3    H227401   5.372   2.144   7.800 -0.0526 -1.2871  1.9157
 1948TIP3   OH227402   5.254   4.259   2.721 -0.4189 -0.0105 -0.1023
 1948TIP3    H127403   5.260   4.256   2.817  0.2208  0.5345 -0.1207
 1948TIP3    H227404   5.331   4.212   2.690 -1.3440 -1.4157 -0.3679
 1949TIP3   OH227405   5.275   1.638   1.844 -0.0503 -0.5984 -0.2944
 1949TIP3    H127406   5.216   1.589   1.787  0.2190 -1.1224 -0.1296
 1949TIP3    H227407   5.274   1.727   1.809  0.0434 -0.8902 -1.0645
 1950TIP3   OH227408   5.167   4.318   1.939  0.5809 -0.0113 -0.2713
 1950TIP3    H127409   5.076   4.344   1.954  0.3286 -1.1773  0.3535
 1950TIP3    H227410   5.219   4.379   1.991  0.1739  0.6852 -0.6621
 1951TIP3   OH227411   3.483   2.848   0.101 -0.5749  0.3476 -0.2649
 1951TIP3    H127412   3.489   2.763   0.143 -0.0518  0.4358 -0.1529
 1951TIP3    H227413   3.399   2.884   0.130 -0.8699 -0.1924 -0.4451
 1952TIP3   OH227414   6.520   3.201   7.074  0.6773  0.0931 -0.0363
 1952TIP3    H127415   6.593   3.141   7.090  0.0413 -1.5450 -2.7411
 1952TIP3    H227416   6.459   3.151   7.021 -2.3247  1.5453  1.8015
 1953TIP3   OH227417   0.941   3.752   8.550 -0.3105 -0.7682  0.9363
 1953TIP3    H127418   0.857   3.783   8.515  0.6041 -0.2308 -0.9375
 1953TIP3    H227419   0.977   3.697   8.480  1.3530 -0.1478  1.2612
 1954TIP3   OH227420   3.624   3.212   6.904  0.1730 -0.1016  0.0838
 1954TIP3    H127421   3.616   3.181   6.814 -1.4449 -0.9765  0.4887
 1954TIP3    H227422   3.609   3.306   6.898  3.8779  0.5809 -0.9970
 1955TIP3   OH227423   4.452   4.195   1.992 -0.3390  0.4737  0.0661
 1955TIP3    H127424   4.359   4.192   1.969  0.1519  0.1912 -1.9946
 1955TIP3    H227425   4.498   4.206   1.909  1.7520 -3.7571  0.3697
 1956TIP3   OH227426   2.152   6.182   8.070  0.3527 -0.0219  0.4500
 1956TIP3    H127427   2.194   6.266   8.051  0.6768  0.1792  1.9571
 1956TIP3    H227428   2.096   6.200   8.145  0.7660 -1.2499  1.0790
 1957TIP3   OH227429   3.692   5.196   0.915 -0.1863 -0.2526  0.0081
 1957TIP3    H127430   3.670   5.233   1.000 -0.4818 -0.8503  0.1960
 1957TIP3    H227431   3.772   5.241   0.889 -1.4660  1.8402 -0.6004
 1958TIP3   OH227432   5.242   2.663   1.213  0.6010 -0.6136 -0.6860
 1958TIP3    H127433   5.184   2.708   1.274  1.8798 -0.3981  0.4230
 1958TIP3    H227434   5.204   2.679   1.127 -1.1514 -0.7763  0.0238
 1959TIP3   OH227435   2.752   5.294   0.993  0.0275  0.1478  0.6078
 1959TIP3    H127436   2.710   5.279   0.908  0.0650 -0.2712  0.6589
 1959TIP3    H227437   2.787   5.208   1.017  1.0835  0.5227  0.4710
 1960TIP3   OH227438   4.061   6.421   8.626  0.0713 -0.5215  0.1031
 1960TIP3    H127439   4.110   6.365   8.566 -0.3036 -1.2518  0.4760
 1960TIP3    H227440   4.114   6.424   8.705  0.6647  0.6043 -0.3097
 1961TIP3   OH227441   2.101   3.583   0.958 -0.4977 -0.8753 -0.6540
 1961TIP3    H127442   2.032   3.553   0.899  0.0404 -1.4142 -1.0193
 1961TIP3    H227443   2.124   3.670   0.925 -0.7823 -0.8253 -0.7251
 1962TIP3   OH227444   1.247   5.339   0.228 -0.0598 -1.0414  0.4041
 1962TIP3    H127445   1.274   5.430   0.230  0.3567 -1.0183 -2.1242
 1962TIP3    H227446   1.156   5.342   0.197 -0.4928 -1.4609  1.5676
 1963TIP3   OH227447   5.759   5.473   2.073  0.1820  0.0535  0.3911
 1963TIP3    H127448   5.729   5.446   2.160 -3.2746 -0.7969 -0.9031
 1963TIP3    H227449   5.707   5.550   2.053 -0.4093 -0.7888 -1.5651
 1964TIP3   OH227450   1.234   2.435   2.487  0.8103 -0.3400  0.4891
 1964TIP3    H127451   1.219   2.345   2.518  2.1009 -0.9557 -0.5574
 1964TIP3    H227452   1.172   2.445   2.414  0.8529 -0.4881  0.4309
 1965TIP3   OH227453   4.926   5.053   8.026 -0.4311  0.1839  0.0197
 1965TIP3    H127454   4.992   5.071   8.093 -0.6896  1.2548  0.0035
 1965TIP3    H227455   4.955   4.972   7.984 -0.0051 -0.2339  1.0981
 1966TIP3   OH227456   1.723   1.041   1.817  0.0422  0.1983 -0.7645
 1966TIP3    H127457   1.647   1.093   1.841 -0.3699 -0.0137 -1.5630
 1966TIP3    H227458   1.689   0.951   1.811  0.9799 -0.4098  1.7650
 1967TIP3   OH227459   1.231   0.069   7.972 -0.1148 -0.2320 -0.1848
 1967TIP3    H127460   1.213   0.153   7.930 -0.8279 -0.9760 -1.4499
 1967TIP3    H227461   1.284   0.021   7.908  0.2595 -0.7576  0.5055
 1968TIP3   OH227462   4.759   5.698   8.567  0.1071 -0.1323  0.0269
 1968TIP3    H127463   4.737   5.788   8.543  0.0177 -0.1440  0.0627
 1968TIP3    H227464   4.852   5.689   8.546 -0.2241 -0.4948 -1.4133
 1969TIP3   OH227465   4.550   3.345   1.938  1.0438  0.7391  0.3663
 1969TIP3    H127466   4.481   3.399   1.900 -1.2739 -1.5169  1.0488
 1969TIP3    H227467   4.526   3.255   1.916  0.5927 -0.6341  5.1717
 1970TIP3   OH227468   1.559   1.474   1.816 -0.1036  0.4953  0.2461
 1970TIP3    H127469   1.562   1.503   1.725  1.2464 -2.1589 -0.6656
 1970TIP3    H227470   1.471   1.498   1.846 -0.6192  1.3133 -1.7784
 1971TIP3   OH227471   0.536   4.513   0.763 -0.3294 -0.3385 -0.4600
 1971TIP3    H127472   0.560   4.567   0.838 -2.3736 -0.9454  0.6920
 1971TIP3    H227473   0.573   4.427   0.782 -1.7378 -0.7784  0.4151
 1972TIP3   OH227474   1.416   3.501   2.052 -0.1599 -0.1269 -0.1218
 1972TIP3    H127475   1.415   3.469   2.142 -0.3932  0.6385  0.1536
 1972TIP3    H227476   1.413   3.422   1.998 -1.2329 -0.5560  0.5385
 1973TIP3   OH227477   2.273   3.218   0.766  0.0126  0.7380  0.1192
 1973TIP3    H127478   2.178   3.210   0.767  0.0109  0.6786  1.2021
 1973TIP3    H227479   2.291   3.284   0.700 -0.7623  0.5458 -0.2965
 1974TIP3   OH227480   1.272   3.189   2.194 -0.4462 -0.2203 -0.1772
 1974TIP3    H127481   1.332   3.238   2.250 -1.0045 -0.7558  0.9311
 1974TIP3    H227482   1.269   3.239   2.113  1.1813  0.0299 -0.1181
 1975TIP3   OH227483   3.763   1.355   1.152 -0.1282 -0.1687 -0.1499
 1975TIP3    H127484   3.692   1.299   1.183 -1.2033  0.1040 -1.9830
 1975TIP3    H227485   3.794   1.313   1.072  0.1863  0.9648 -0.6396
 1976TIP3   OH227486   0.405   3.346   8.571 -0.1747 -0.0823 -0.4994
 1976TIP3    H127487   0.402   3.441   8.582 -1.0267 -0.1361 -0.2564
 1976TIP3    H227488   0.314   3.318   8.570  0.0195 -0.7690 -1.7829
 1977TIP3   OH227489   5.506   1.830   8.769 -0.2302  0.1151  0.9956
 1977TIP3    H127490   5.548   1.757   8.723 -0.2962  0.2306  0.7529
 1977TIP3    H227491   5.526   1.814   8.861  1.0058  0.5902  0.8312
 1978TIP3   OH227492   4.475   6.073   0.162  0.1582  0.2854 -0.0547
 1978TIP3    H127493   4.509   6.153   0.203  1.7152 -1.1279  1.5781
 1978TIP3    H227494   4.554   6.026   0.133 -0.7825  0.1412 -2.7157
 1979TIP3   OH227495   3.933   5.438   1.546 -0.6289 -0.1458  0.1597
 1979TIP3    H127496   3.919   5.521   1.593  0.3176 -0.2678  0.6978
 1979TIP3    H227497   3.999   5.459   1.480 -0.3426 -0.4786  0.3364
 1980TIP3   OH227498   5.413   0.142   2.889 -0.0772 -0.0092 -0.5099
 1980TIP3    H127499   5.478   0.213   2.885 -0.7935  0.6205 -1.2971
 1980TIP3    H227500   5.459   0.066   2.853  0.7826 -0.0352  0.5714
 1981TIP3   OH227501   5.241   3.544   1.277  0.9318  0.3012  0.1988
 1981TIP3    H127502   5.233   3.575   1.367  1.1621  0.1704  0.2651
 1981TIP3    H227503   5.324   3.496   1.276  0.3732 -0.6762  0.2016
 1982TIP3   OH227504   3.217   0.517   7.834 -0.3923 -0.4388  0.1841
 1982TIP3    H127505   3.124   0.522   7.854 -1.1323 -2.3220 -2.1396
 1982TIP3    H227506   3.220   0.474   7.748  2.4456  3.1816 -1.8183
 1983TIP3   OH227507   0.055   5.249   0.567 -0.9338 -0.4854 -0.3876
 1983TIP3    H127508   0.085   5.189   0.635 -2.9248 -2.0787 -0.8082
 1983TIP3    H227509  -0.032   5.217   0.544 -1.8336  2.2109 -1.1208
 1984TIP3   OH227510   4.474   5.812   0.330 -0.5889  0.0750  0.3325
 1984TIP3    H127511   4.411   5.811   0.258 -0.3760  0.4870  0.1423
 1984TIP3    H227512   4.437   5.874   0.393 -0.4830  0.1486  0.3214
 1985TIP3   OH227513   0.625   4.847   1.609  0.2381  0.3530 -0.4630
 1985TIP3    H127514   0.636   4.879   1.698 -0.4180 -1.3703  0.2916
 1985TIP3    H227515   0.693   4.891   1.558  0.9635  0.9700  1.0020
 1986TIP3   OH227516   3.542   6.149   1.660 -0.1036  0.6016  0.1560
 1986TIP3    H127517   3.515   6.241   1.666 -3.0759 -0.0171 -1.5057
 1986TIP3    H227518   3.582   6.142   1.573 -0.4907  0.2210  0.0046
 1987TIP3   OH227519   1.558   2.850   8.477  0.1023 -1.0170  0.5390
 1987TIP3    H127520   1.474   2.887   8.503  1.3520  1.7316  0.9938
 1987TIP3    H227521   1.562   2.862   8.382  0.0456 -1.0421  0.5339
 1988TIP3   OH227522   5.664   4.783   2.814  0.5683  0.0248  0.5480
 1988TIP3    H127523   5.749   4.767   2.854  0.7544 -1.9063 -0.4446
 1988TIP3    H227524   5.665   4.875   2.790  2.6516 -0.0952 -0.0139
 1989TIP3   OH227525   6.066   6.109   8.525 -0.1744 -0.2242 -0.4890
 1989TIP3    H127526   6.038   6.025   8.489  2.7120 -0.9656 -1.3000
 1989TIP3    H227527   6.034   6.174   8.462 -0.9480 -0.8750 -0.7829
 1990TIP3   OH227528   2.810   4.127   7.984  1.3398  0.7426 -0.2012
 1990TIP3    H127529   2.747   4.085   7.925  0.1109  0.2655  1.3800
 1990TIP3    H227530   2.769   4.209   8.009  1.6115  0.7048  0.3917
 1991TIP3   OH227531   2.773   6.328   1.154  0.6652 -0.5387 -0.0455
 1991TIP3    H127532   2.817   6.376   1.224  0.5947 -1.1480  0.4228
 1991TIP3    H227533   2.713   6.268   1.199  0.2278 -0.5578 -0.6414
 1992TIP3   OH227534   5.357   3.303   8.430  0.0979 -0.3191  0.0038
 1992TIP3    H127535   5.314   3.288   8.346  0.9758 -1.1508 -0.3283
 1992TIP3    H227536   5.363   3.216   8.470  0.0231  0.0117  0.7658
 1993TIP3   OH227537   4.941   6.803   2.587  0.1325 -0.0758 -0.2730
 1993TIP3    H127538   4.997   6.880   2.585 -0.3921  0.3303  0.5298
 1993TIP3    H227539   4.978   6.749   2.657  0.0738 -0.2338 -0.3637
 1994TIP3   OH227540   1.155   6.030   0.364 -0.9605 -0.1483  0.0281
 1994TIP3    H127541   1.222   5.968   0.393 -0.1220 -0.1021 -1.6802
 1994TIP3    H227542   1.083   5.975   0.332 -0.9180 -0.2272  0.0686
 1995TIP3   OH227543   6.495   2.126   7.428  0.3050 -0.0722  0.2169
 1995TIP3    H127544   6.427   2.188   7.400  0.4637 -1.5140 -4.1510
 1995TIP3    H227545   6.467   2.097   7.515 -2.6908  2.0663  0.1118
 1996TIP3   OH227546   0.240   3.751   8.603 -0.4160 -0.4391  0.5055
 1996TIP3    H127547   0.286   3.726   8.523  2.0415  0.2039  1.6363
 1996TIP3    H227548   0.236   3.847   8.599 -1.1239 -0.4527  0.7246
 1997TIP3   OH227549   1.034   4.164   1.112  0.3735  0.3851  0.3196
 1997TIP3    H127550   1.026   4.069   1.117 -1.4448  0.4821 -0.1588
 1997TIP3    H227551   0.953   4.197   1.151  1.9498  1.8272  2.6511
 1998TIP3   OH227552   1.370   1.305   8.094 -0.1294 -0.0573 -0.2916
 1998TIP3    H127553   1.326   1.222   8.113 -0.2169 -0.3161 -1.5113
 1998TIP3    H227554   1.451   1.302   8.144 -0.3466 -0.6701  0.0327
 1999TIP3   OH227555   4.874   0.718   1.034  0.1178  0.1936  0.1434
 1999TIP3    H127556   4.951   0.752   1.079  0.4189 -0.6725  0.2905
 1999TIP3    H227557   4.876   0.624   1.050 -1.3613  0.2477  0.7287
 2000TIP3   OH227558   5.739   4.211   2.561 -0.2417  0.1232 -0.2212
 2000TIP3    H127559   5.767   4.288   2.609  0.2621  0.4876 -1.0690
 2000TIP3    H227560   5.760   4.231   2.469 -2.3104 -0.0173 -0.7890
 2001TIP3   OH227561   5.439   1.642   8.281 -0.2684  0.7766 -0.1039
 2001TIP3    H127562   5.406   1.561   8.242 -2.0675  1.5233 -0.2213
 2001TIP3    H227563   5.464   1.696   8.206  2.0258 -0.0605  0.0006
 2002TIP3   OH227564   3.006   1.484   2.893  0.3344 -0.1941 -0.6915
 2002TIP3    H127565   3.045   1.416   2.948 -1.1334 -0.4962  0.0340
 2002TIP3    H227566   2.966   1.544   2.956  0.0486  0.3462 -1.3888
 2003TIP3   OH227567   3.101   2.646   0.819  0.0141 -0.2929 -0.6390
 2003TIP3    H127568   3.011   2.632   0.790 -0.1638 -3.4139  1.0129
 2003TIP3    H227569   3.152   2.649   0.739 -1.5433  2.7329 -1.7047
 2004TIP3   OH227570   1.315   4.573   0.721 -0.2255  0.0248 -0.2401
 2004TIP3    H127571   1.263   4.654   0.719  0.7470  0.6580 -0.4938
 2004TIP3    H227572   1.402   4.602   0.748  0.0942 -0.9719 -0.1884
 2005TIP3   OH227573   4.789   5.639   2.278 -0.0973  0.4944 -0.4426
 2005TIP3    H127574   4.743   5.588   2.211  0.1018  0.8629 -0.8620
 2005TIP3    H227575   4.828   5.573   2.334 -0.0828  0.1782 -0.8173
 2006TIP3   OH227576   5.666   6.757   0.250 -0.1473 -0.1545 -0.3145
 2006TIP3    H127577   5.629   6.695   0.312 -0.0012  1.1436  1.1331
 2006TIP3    H227578   5.607   6.833   0.254  1.5695  1.2207  0.6716
 2007TIP3   OH227579   2.221   1.762   1.834  0.2942 -0.1031  0.1310
 2007TIP3    H127580   2.277   1.833   1.801 -0.0372  0.8341  1.4867
 2007TIP3    H227581   2.249   1.749   1.924 -1.1296 -0.1440  0.5932
 2008TIP3   OH227582   0.708   0.358   8.687  0.7223  0.2677  0.1996
 2008TIP3    H127583   0.643   0.384   8.753  1.3833 -0.6467  1.2530
 2008TIP3    H227584   0.657   0.311   8.621  0.3157 -0.6537  1.1396
 2009TIP3   OH227585   4.759   3.985   7.521 -0.2070  0.1230 -0.3979
 2009TIP3    H127586   4.738   4.078   7.533  1.0473  0.3110  0.5268
 2009TIP3    H227587   4.839   3.986   7.468  0.3192 -0.3861  0.3652
 2010TIP3   OH227588   3.157   0.286   1.128  0.7120  0.3176 -0.5817
 2010TIP3    H127589   3.189   0.364   1.174  1.0151 -0.0655 -0.1355
 2010TIP3    H227590   3.156   0.217   1.195  0.5193 -0.0792 -0.9894
 2011TIP3   OH227591   1.344   2.805   7.239  0.0587  0.3659 -0.2394
 2011TIP3    H127592   1.400   2.747   7.187 -1.1594 -0.7575 -0.3783
 2011TIP3    H227593   1.305   2.865   7.175 -0.5968 -0.3098 -0.4941
 2012TIP3   OH227594   0.769   4.050   0.255  0.1677 -0.5530 -0.5562
 2012TIP3    H127595   0.694   4.023   0.308 -0.2150  0.0925 -0.7527
 2012TIP3    H227596   0.731   4.108   0.188  1.0280  0.9479  0.2006
 2013TIP3   OH227597   2.412   4.844   6.623 -0.3254 -0.2663 -0.0247
 2013TIP3    H127598   2.394   4.908   6.693  2.0348  0.2160  0.2286
 2013TIP3    H227599   2.340   4.856   6.561 -1.4180  0.6854  1.3360
 2014TIP3   OH227600   0.192   5.658   1.300  0.1720  0.2901  0.2953
 2014TIP3    H127601   0.213   5.565   1.304 -0.3800  0.1801  0.8933
 2014TIP3    H227602   0.277   5.702   1.300  0.4358 -0.1902  1.0396
 2015TIP3   OH227603   1.056   5.051   0.720  0.2927  0.2384  0.0455
 2015TIP3    H127604   1.050   5.128   0.778 -0.8189 -0.5972  1.0933
 2015TIP3    H227605   1.010   5.077   0.640 -1.1584  0.2917  0.8554
 2016TIP3   OH227606   6.366   2.933   2.367 -0.5066 -0.4146  0.3726
 2016TIP3    H127607   6.415   2.900   2.442  2.3986  1.0541 -0.7492
 2016TIP3    H227608   6.362   3.028   2.381  0.2778 -0.0933 -1.4032
 2017TIP3   OH227609   6.346   6.509   8.172  0.1847  0.0840  0.4756
 2017TIP3    H127610   6.406   6.435   8.167  1.1395  0.4537  3.7860
 2017TIP3    H227611   6.330   6.520   8.266 -2.8061  1.8425 -0.1091
 2018TIP3   OH227612   5.951   6.546   2.003 -0.1063  0.4506  0.4763
 2018TIP3    H127613   6.026   6.519   2.057 -0.3289  1.3687  1.2874
 2018TIP3    H227614   5.876   6.544   2.064 -0.6517  0.0149 -0.2004
 2019TIP3   OH227615   3.283   4.769   1.874  0.3492  0.2632  0.1206
 2019TIP3    H127616   3.296   4.828   1.948 -0.6656  0.2059  0.3602
 2019TIP3    H227617   3.189   4.748   1.876  0.7858 -1.9721  0.5336
 2020TIP3   OH227618   6.034   5.267   0.831  0.2069  0.5433  0.3549
 2020TIP3    H127619   6.120   5.246   0.794 -0.4501  0.6938 -1.3416
 2020TIP3    H227620   5.977   5.278   0.755 -0.8512  2.5867  1.3584
 2021TIP3   OH227621   2.547   4.718   0.471  0.3314 -0.2138 -0.6390
 2021TIP3    H127622   2.505   4.759   0.546  1.5885 -0.0864  0.0184
 2021TIP3    H227623   2.566   4.791   0.411 -0.0817 -0.2335 -0.7997
 2022TIP3   OH227624   5.725   6.040   2.770 -0.3592 -0.7918  0.0175
 2022TIP3    H127625   5.787   6.099   2.726  1.5091 -1.7182  1.2844
 2022TIP3    H227626   5.661   6.019   2.703  0.8070  0.0480 -1.4319
 2023TIP3   OH227627   1.919   0.971   1.198 -0.0513  0.2546 -0.0650
 2023TIP3    H127628   1.911   0.967   1.293  0.5495 -0.2453 -0.0249
 2023TIP3    H227629   1.961   0.889   1.174  1.2836  1.0481 -0.5905
 2024TIP3   OH227630   2.893   2.514   1.059  0.3345  0.8210  0.1795
 2024TIP3    H127631   2.943   2.485   1.135 -2.1744  0.4802  1.8470
 2024TIP3    H227632   2.829   2.576   1.095  0.5995  2.5779 -2.0998
 2025TIP3   OH227633   3.699   2.811   2.511  0.2356  0.1696 -0.4384
 2025TIP3    H127634   3.708   2.755   2.588 -0.1649 -1.1907 -1.3426
 2025TIP3    H227635   3.779   2.862   2.509  1.5844 -1.8319 -0.6946
 2026TIP3   OH227636   0.789   4.241   1.301  0.1690 -0.1826 -0.3194
 2026TIP3    H127637   0.760   4.187   1.375 -0.5898 -0.8412 -1.0751
 2026TIP3    H227638   0.744   4.204   1.225  0.7674  0.6155 -1.0867
 2027TIP3   OH227639   2.370   1.976   1.716 -0.2290  0.9542 -0.3700
 2027TIP3    H127640   2.447   2.019   1.753 -1.5262  1.9413  1.3400
 2027TIP3    H227641   2.306   2.046   1.707 -1.7286 -0.2494  0.5451
 2028TIP3   OH227642   4.019   4.104   6.939  0.5517 -0.1518 -0.4531
 2028TIP3    H127643   3.985   4.129   6.853 -0.3116 -1.2804 -0.4697
 2028TIP3    H227644   3.948   4.053   6.978  0.9414  0.3313  0.9347
 2029TIP3   OH227645   6.720   6.125   2.157 -0.1165 -0.5789 -0.2042
 2029TIP3    H127646   6.679   6.157   2.077 -0.0755 -2.0684 -0.8610
 2029TIP3    H227647   6.656   6.062   2.192 -0.0832 -0.0310  0.8808
 2030TIP3   OH227648   1.968   4.813   8.431 -0.2516 -0.0174  0.1348
 2030TIP3    H127649   2.024   4.773   8.498  0.8962  0.5669 -0.4430
 2030TIP3    H227650   1.909   4.743   8.405  0.6308 -0.8633  0.3196
 2031TIP3   OH227651   6.267   0.227   7.268  0.5234  0.3011 -0.5568
 2031TIP3    H127652   6.307   0.149   7.229  1.8537  1.0731 -0.7893
 2031TIP3    H227653   6.336   0.293   7.268 -0.7072  1.6588 -0.8148
 2032TIP3   OH227654   6.342   3.481   7.392 -0.2607 -0.3776 -0.4693
 2032TIP3    H127655   6.293   3.473   7.473  1.7359 -0.0789  0.8300
 2032TIP3    H227656   6.343   3.575   7.374 -1.8237 -0.5382 -1.6248
 2033TIP3   OH227657   0.613   1.000   0.638  0.6305  0.0361  0.5840
 2033TIP3    H127658   0.549   1.026   0.572  0.0370  1.8024  1.7899
 2033TIP3    H227659   0.576   0.922   0.678  0.0250  0.1014  0.1643
 2034TIP3   OH227660   5.047   5.742   8.210  0.0006 -0.1889 -0.2669
 2034TIP3    H127661   5.031   5.677   8.142  0.8068 -0.5274 -0.1524
 2034TIP3    H227662   5.115   5.703   8.265  1.3377  1.2196 -0.8497
 2035TIP3   OH227663   0.563   4.706   0.982 -0.3961  0.3170  0.0242
 2035TIP3    H127664   0.487   4.755   0.948  0.8346  1.5611 -1.0598
 2035TIP3    H227665   0.616   4.772   1.026  0.4388 -0.3943  0.1021
 2036TIP3   OH227666   0.017   0.967   1.783  0.2242 -0.3309  0.1088
 2036TIP3    H127667   0.098   1.005   1.750  0.2783 -1.2938 -0.9183
 2036TIP3    H227668   0.045   0.894   1.839  0.0691 -1.1176 -0.8208
 2037TIP3   OH227669   1.707   0.903   0.407 -0.6573 -0.1921  0.1161
 2037TIP3    H127670   1.743   0.977   0.456  0.0818 -0.9689  0.7705
 2037TIP3    H227671   1.647   0.861   0.469 -2.5996  0.9535 -0.8820
 2038TIP3   OH227672   5.542   4.079   1.164  0.1618 -0.6090 -0.3069
 2038TIP3    H127673   5.595   4.009   1.201  2.3384  1.0979  0.0296
 2038TIP3    H227674   5.555   4.153   1.225  0.1739  0.8971 -2.0532
 2039TIP3   OH227675   4.265   1.553   0.515  0.4196 -0.5015 -0.0423
 2039TIP3    H127676   4.309   1.473   0.486  1.8269  0.4076 -0.4963
 2039TIP3    H227677   4.208   1.578   0.442  0.1026 -0.9802  0.0350
 2040TIP3   OH227678   3.922   2.198   0.933 -0.7561 -0.2879 -0.2994
 2040TIP3    H127679   3.946   2.273   0.987  0.5468 -0.8628 -0.0362
 2040TIP3    H227680   3.974   2.208   0.853  0.3992 -1.5068  0.2413
 2041TIP3   OH227681   5.915   1.145   7.655  0.3964  0.1131  0.1496
 2041TIP3    H127682   5.973   1.221   7.647  1.5859 -0.7199  0.5741
 2041TIP3    H227683   5.873   1.155   7.741 -3.1554  2.7359 -1.6359
 2042TIP3   OH227684   3.190   1.348   0.079  0.1970  0.4406  0.4392
 2042TIP3    H127685   3.192   1.442   0.098  2.2869  0.5231  0.1136
 2042TIP3    H227686   3.149   1.308   0.156  2.8399  1.3012  2.4471
 2043TIP3   OH227687   6.470   0.585   1.740  0.0095 -0.4450 -0.5115
 2043TIP3    H127688   6.467   0.672   1.700 -1.3054 -0.5398 -0.6582
 2043TIP3    H227689   6.543   0.590   1.801  1.1583  0.1605 -1.8710
 2044TIP3   OH227690   1.263   1.281   7.475 -0.2697 -0.6642  0.4949
 2044TIP3    H127691   1.320   1.227   7.530  0.5205 -0.0055  0.3400
 2044TIP3    H227692   1.263   1.367   7.518  0.9904  0.0833 -0.9485
 2045TIP3   OH227693   2.836   6.506   1.887  0.4725  0.1951  0.0083
 2045TIP3    H127694   2.873   6.593   1.876  1.0602  0.0474  0.7074
 2045TIP3    H227695   2.881   6.471   1.965  1.1258 -1.1846 -0.9522
 2046TIP3   OH227696   4.229   2.903   1.196  0.3026 -0.1930 -0.3540
 2046TIP3    H127697   4.146   2.948   1.212 -0.7978 -1.8066 -1.1367
 2046TIP3    H227698   4.277   2.959   1.135 -1.0770 -0.1325 -1.4237
 2047TIP3   OH227699   3.601   4.720   0.359  0.9867  0.3007  0.7322
 2047TIP3    H127700   3.539   4.791   0.349  1.0152  0.4711  1.6637
 2047TIP3    H227701   3.585   4.686   0.447  0.2712 -1.5216 -0.0559
 2048TIP3   OH227702   5.315   4.594   1.190 -0.2405 -0.2153 -0.6170
 2048TIP3    H127703   5.237   4.643   1.165  0.6616  1.5621 -0.1258
 2048TIP3    H227704   5.305   4.509   1.147 -1.9426  0.3364 -1.3915
 2049TIP3   OH227705   4.453   6.524   8.255  0.6593 -0.1913 -0.1546
 2049TIP3    H127706   4.500   6.483   8.181 -0.0812 -0.1617 -0.6531
 2049TIP3    H227707   4.374   6.560   8.215 -0.5086 -1.4960  0.8994
 2050TIP3   OH227708   3.976   3.366   2.454  0.1687 -0.3706 -0.5563
 2050TIP3    H127709   4.046   3.307   2.483 -0.1410 -1.2811 -1.6095
 2050TIP3    H227710   3.901   3.309   2.440 -0.3483  0.3857 -0.8968
 2051TIP3   OH227711   3.873   2.800   2.283  0.4340  0.0517  0.1612
 2051TIP3    H127712   3.901   2.851   2.359  0.2683  1.9136 -0.9358
 2051TIP3    H227713   3.778   2.795   2.291  0.2937  1.2277 -0.4313
 2052TIP3   OH227714   4.935   1.174   0.957  0.1867 -0.3922 -0.6750
 2052TIP3    H127715   4.983   1.091   0.964  0.4357 -0.3378 -1.7208
 2052TIP3    H227716   4.927   1.203   1.048 -1.0468 -2.2036 -0.1479
 2053TIP3   OH227717   4.265   3.433   8.362  0.1653 -0.6283 -0.5173
 2053TIP3    H127718   4.203   3.396   8.424 -0.0032  0.7200  0.1425
 2053TIP3    H227719   4.348   3.391   8.383 -0.1744 -1.2091 -0.3125
 2054TIP3   OH227720   2.431   5.851   2.183  0.5550  0.1188  0.3535
 2054TIP3    H127721   2.368   5.785   2.156  0.1025  0.4171  0.6748
 2054TIP3    H227722   2.488   5.862   2.107 -0.6614  0.8933 -0.4933
 2055TIP3   OH227723   2.486   2.810   8.234 -0.5042  0.0796 -0.5961
 2055TIP3    H127724   2.551   2.862   8.187 -0.5373 -0.8508 -1.7246
 2055TIP3    H227725   2.476   2.854   8.318  1.9107  0.0132 -0.2120
 2056TIP3   OH227726   5.826   2.289   6.931 -0.0768  0.3189  0.0511
 2056TIP3    H127727   5.904   2.321   6.885 -0.3028  2.0963  0.8372
 2056TIP3    H227728   5.759   2.283   6.862  0.2898  0.3991 -0.3179
 2057TIP3   OH227729   4.117   0.270   1.398 -0.2835  0.2376 -0.0372
 2057TIP3    H127730   4.048   0.218   1.356  0.5530 -1.8041  1.0147
 2057TIP3    H227731   4.166   0.208   1.451  1.3896  1.9443  0.5384
 2058TIP3   OH227732   1.821   1.798   7.421 -0.4785 -0.9362 -0.2473
 2058TIP3    H127733   1.904   1.787   7.376 -0.6539  0.4318 -0.9570
 2058TIP3    H227734   1.772   1.718   7.403  0.4791 -1.5334 -0.2334
 2059TIP3   OH227735   6.002   5.945   8.827  0.1106  0.8142  0.5162
 2059TIP3    H127736   5.930   5.995   8.789 -0.7219  0.5277  1.6495
 2059TIP3    H227737   6.080   5.996   8.808 -0.5737  1.9304  0.6123
 2060TIP3   OH227738   1.011   2.296   2.032  0.3208  0.2743 -0.6389
 2060TIP3    H127739   0.980   2.208   2.052 -0.9840  0.7326 -0.5733
 2060TIP3    H227740   0.955   2.326   1.960 -0.3462  1.6335  0.3966
 2061TIP3   OH227741   4.648   3.659   7.483 -0.1634 -0.0096 -0.2724
 2061TIP3    H127742   4.582   3.693   7.543 -0.3485  0.4153 -0.7078
 2061TIP3    H227743   4.721   3.632   7.539 -0.7008 -0.4701  0.2110
 2062TIP3   OH227744   3.378   5.882   6.993 -0.3572  0.2075 -0.1110
 2062TIP3    H127745   3.472   5.863   6.983 -0.9798 -1.8399 -3.1404
 2062TIP3    H227746   3.345   5.812   7.049 -0.2096  0.5913  0.4656
 2063TIP3   OH227747   5.017   5.478   8.828  0.5029 -0.7023 -0.1368
 2063TIP3    H127748   4.934   5.465   8.783  0.5643  1.2698 -0.9186
 2063TIP3    H227749   4.999   5.453   8.919 -0.8187 -0.6979 -0.3782
 2064TIP3   OH227750   6.053   3.428   2.359  0.0233  1.1808 -0.5626
 2064TIP3    H127751   6.118   3.405   2.426  1.0307  2.3643 -1.1083
 2064TIP3    H227752   5.970   3.429   2.407  0.4543  0.1606  0.2608
 2065TIP3   OH227753   4.598   4.426   1.393  0.1411  0.2811 -0.8342
 2065TIP3    H127754   4.569   4.430   1.302  0.4519 -1.8700 -1.0893
 2065TIP3    H227755   4.673   4.366   1.391  0.0807  0.1066  0.8486
 2066TIP3   OH227756   2.715   5.717   2.038  0.5396 -0.1571 -0.4831
 2066TIP3    H127757   2.773   5.770   2.093  0.3493  0.4368 -0.8408
 2066TIP3    H227758   2.736   5.626   2.061  0.8960  0.0705  0.1163
 2067TIP3   OH227759   5.874   5.542   1.831  0.1867 -0.1105  0.4510
 2067TIP3    H127760   5.860   5.513   1.921 -1.5505  1.2381  0.6671
 2067TIP3    H227761   5.790   5.579   1.804  0.5737 -0.7004 -1.8246
 2068TIP3   OH227762   6.279   0.716   7.896  0.3739  0.3934 -0.6131
 2068TIP3    H127763   6.244   0.791   7.849 -0.9613 -1.4346 -2.7083
 2068TIP3    H227764   6.274   0.742   7.988 -0.7608  2.5574 -1.2036
 2069TIP3   OH227765   1.245   1.834   0.450  0.1038  0.0169 -0.2004
 2069TIP3    H127766   1.310   1.875   0.393  0.2711  1.6508  1.1123
 2069TIP3    H227767   1.286   1.751   0.476  1.5426  0.8621  0.3332
 2070TIP3   OH227768   4.280   3.427   0.691  0.2054  0.1506 -0.4426
 2070TIP3    H127769   4.200   3.394   0.733  0.1062 -0.0797 -0.8077
 2070TIP3    H227770   4.326   3.348   0.663  1.3525  0.1930  1.1622
 2071TIP3   OH227771   3.027   4.673   1.835  0.2161 -0.3340 -0.2901
 2071TIP3    H127772   2.951   4.720   1.800  0.0879 -1.6990 -1.9992
 2071TIP3    H227773   2.990   4.595   1.875  0.6950 -1.2696 -1.5890
 2072TIP3   OH227774   4.768   0.204   7.561  0.3299 -0.2211 -0.0136
 2072TIP3    H127775   4.710   0.131   7.541 -0.3122  0.2758  0.0290
 2072TIP3    H227776   4.792   0.192   7.653  1.1750 -1.0273 -0.3165
 2073TIP3   OH227777   5.541   1.215   8.738 -0.8997 -0.4704 -0.1918
 2073TIP3    H127778   5.468   1.165   8.773 -0.8013 -0.8218 -0.4802
 2073TIP3    H227779   5.615   1.192   8.794 -0.6235 -1.4322 -0.9313
 2074TIP3   OH227780   0.492   2.980   0.921 -0.5221  0.1786  0.5710
 2074TIP3    H127781   0.492   3.027   1.004 -1.9804  0.4942  0.4218
 2074TIP3    H227782   0.582   2.948   0.911 -0.6122 -1.0418  2.9219
 2075TIP3   OH227783   6.592   5.913   8.189  0.3510  0.1143 -0.2978
 2075TIP3    H127784   6.615   5.962   8.268 -0.1217 -0.2189  0.0500
 2075TIP3    H227785   6.498   5.926   8.178  0.4338  0.2628 -0.8816
 2076TIP3   OH227786   2.851   3.848   8.165  0.0601  0.5595  0.0155
 2076TIP3    H127787   2.848   3.816   8.076  0.0638 -0.4412  0.3666
 2076TIP3    H227788   2.795   3.788   8.215  0.7874  0.5488  0.8505
 2077TIP3   OH227789   1.177   0.414   6.748 -0.6007  0.2203 -0.0224
 2077TIP3    H127790   1.155   0.331   6.705  0.8453 -1.6490  2.5661
 2077TIP3    H227791   1.100   0.434   6.801 -0.7889  0.3264 -0.3317
 2078TIP3   OH227792   5.605   5.103   8.498 -0.1193 -0.6486  0.0290
 2078TIP3    H127793   5.652   5.081   8.417 -0.4964 -0.6739 -0.1818
 2078TIP3    H227794   5.557   5.024   8.520  0.4429 -0.8393  0.6023
 2079TIP3   OH227795   4.170   3.985   8.069  0.2567 -0.3014  0.5613
 2079TIP3    H127796   4.156   4.079   8.056 -0.0252 -0.2431  1.2288
 2079TIP3    H227797   4.182   3.950   7.981  1.0755  0.4668  0.3593
 2080TIP3   OH227798   6.144   4.082   8.210  0.9118 -0.0853 -0.1826
 2080TIP3    H127799   6.144   4.144   8.283 -0.0657  2.4984 -2.2174
 2080TIP3    H227800   6.125   3.997   8.251  1.6035  1.0199  2.6652
 2081TIP3   OH227801   0.363   1.173   2.664  0.2710  0.4451 -0.3045
 2081TIP3    H127802   0.446   1.208   2.698 -0.4192  2.4455 -0.5637
 2081TIP3    H227803   0.296   1.228   2.703 -0.7984  0.3413 -1.9064
 2082TIP3   OH227804   1.078   1.227   8.519 -0.0001  0.3523  0.8431
 2082TIP3    H127805   1.054   1.319   8.509 -2.1478 -0.1315  0.9219
 2082TIP3    H227806   1.000   1.187   8.559 -0.2814 -2.0355 -1.8080
 2083TIP3   OH227807   5.113   0.597   2.020  0.1138 -0.4936 -0.0891
 2083TIP3    H127808   5.032   0.649   2.020  0.6306  0.3883 -1.7989
 2083TIP3    H227809   5.183   0.661   2.034  0.5803 -1.1891  0.9018
 2084TIP3   OH227810   2.166   5.838   8.444 -0.0223  0.1357 -0.6309
 2084TIP3    H127811   2.114   5.911   8.413 -0.4778  0.6573  1.2425
 2084TIP3    H227812   2.239   5.879   8.491  0.4138 -0.6136 -0.6383
 2085TIP3   OH227813   1.727   6.756   0.749  0.5128 -0.0796  1.0992
 2085TIP3    H127814   1.684   6.676   0.717  1.8685 -0.7760  0.9654
 2085TIP3    H227815   1.654   6.812   0.777 -0.9077  0.6643 -3.2600
 2086TIP3   OH227816   3.236   1.712   8.692 -0.5632  0.2911 -0.3500
 2086TIP3    H127817   3.287   1.717   8.773  0.6765 -2.7986 -0.8042
 2086TIP3    H227818   3.298   1.733   8.623 -1.0337  0.6670 -0.6683
 2087TIP3   OH227819   6.073   1.359   7.579  0.5027  0.8020  0.4284
 2087TIP3    H127820   6.143   1.402   7.628  0.8395  1.0577 -0.2756
 2087TIP3    H227821   6.094   1.375   7.487  0.1147 -0.0505  0.1803
 2088TIP3   OH227822   5.949   1.322   8.036 -0.8090  0.3656  0.1157
 2088TIP3    H127823   6.004   1.350   8.109  0.6053 -1.8376 -0.0225
 2088TIP3    H227824   5.948   1.397   7.976 -0.2032  1.4105  1.3618
 2089TIP3   OH227825   1.971   3.080   8.070 -0.1204  0.0515  0.0977
 2089TIP3    H127826   1.893   3.119   8.030 -0.8447 -1.0219  0.4376
 2089TIP3    H227827   1.949   2.988   8.082  0.5527  0.0774  1.7919
 2090TIP3   OH227828   3.690   4.323   7.666  0.7315 -0.4295  0.0702
 2090TIP3    H127829   3.668   4.363   7.581  0.9656 -0.9699 -0.2487
 2090TIP3    H227830   3.605   4.302   7.704  0.6160  0.0642  0.0900
 2091TIP3   OH227831   0.241   4.232   0.857  0.2407 -0.3867 -0.0680
 2091TIP3    H127832   0.229   4.139   0.877 -0.8460 -0.5879 -1.5455
 2091TIP3    H227833   0.181   4.277   0.916  1.0083 -0.5716  0.8855
 2092TIP3   OH227834   3.490   5.027   1.142 -0.4076  0.1828 -0.0622
 2092TIP3    H127835   3.574   4.982   1.135 -1.5059 -1.7887 -1.9842
 2092TIP3    H227836   3.453   4.995   1.225  0.5105  0.6988  0.5615
 2093TIP3   OH227837   1.718   1.948   8.040 -0.2871  0.0527  1.3095
 2093TIP3    H127838   1.659   1.957   7.965  2.0336  0.7725 -0.5212
 2093TIP3    H227839   1.769   1.869   8.021 -0.0326 -0.0657  2.4225
 2094TIP3   OH227840   5.302   6.278   8.145  0.4848  0.3185 -0.4148
 2094TIP3    H127841   5.245   6.351   8.121 -0.8974 -1.1889 -2.0156
 2094TIP3    H227842   5.287   6.265   8.239  2.6354  3.5604  0.5238
 2095TIP3   OH227843   5.512   3.437   0.762  0.5576 -0.2658 -0.6167
 2095TIP3    H127844   5.439   3.500   0.762 -1.9156 -2.8885  1.0228
 2095TIP3    H227845   5.503   3.389   0.679  1.1344  0.1111 -0.9058
 2096TIP3   OH227846   1.044   0.864   7.845  0.5626  0.0730  0.1603
 2096TIP3    H127847   1.086   0.778   7.842 -0.8018 -0.5942 -0.6419
 2096TIP3    H227848   1.077   0.910   7.768  0.0866 -0.3271 -0.2860
 2097TIP3   OH227849   0.836   6.527   1.859 -0.0112  0.0807 -0.4638
 2097TIP3    H127850   0.849   6.607   1.910  0.5810  1.1271 -2.1543
 2097TIP3    H227851   0.879   6.458   1.910 -1.2896  0.6214  1.4722
 2098TIP3   OH227852   3.420   3.638   7.679  0.0294 -0.7070  0.1106
 2098TIP3    H127853   3.400   3.545   7.667  0.3475 -0.5737 -1.6949
 2098TIP3    H227854   3.342   3.683   7.647  0.3967 -0.3363 -0.2786
 2099TIP3   OH227855   5.681   2.459   8.813  0.1779  0.2889  0.0330
 2099TIP3    H127856   5.603   2.474   8.759  0.7222  0.8936 -0.6107
 2099TIP3    H227857   5.752   2.449   8.749  0.3062 -2.6141  0.4873
 2100TIP3   OH227858   0.090   4.718   8.667 -0.0059  0.0579  0.2422
 2100TIP3    H127859   0.080   4.646   8.605  0.5998  0.7667 -0.6999
 2100TIP3    H227860   0.023   4.782   8.642  1.0720  0.9223 -0.5346
 2101TIP3   OH227861   4.772   2.038   8.138 -0.1406  0.5655  0.2063
 2101TIP3    H127862   4.862   2.009   8.122 -0.2337  0.7294 -0.6614
 2101TIP3    H227863   4.749   2.088   8.060 -0.5369  1.6394  0.9983
 2102TIP3   OH227864   5.059   2.558   1.768  0.1816  0.6906 -0.2547
 2102TIP3    H127865   5.094   2.539   1.681 -0.5427 -0.4720 -0.3164
 2102TIP3    H227866   5.125   2.524   1.829 -0.8750 -1.7462 -0.3677
 2103TIP3   OH227867   2.727   5.213   2.198  0.2527 -0.1365 -0.0920
 2103TIP3    H127868   2.633   5.200   2.211  0.7288 -3.1570  1.2143
 2103TIP3    H227869   2.745   5.300   2.234 -2.0866  0.6993 -0.8198
 2104TIP3   OH227870   1.117   3.277   8.212  0.5575 -0.0827 -0.6167
 2104TIP3    H127871   1.077   3.344   8.156  0.5289 -0.3993 -0.9781
 2104TIP3    H227872   1.207   3.305   8.223  0.0731  1.0613  0.8422
 2105TIP3   OH227873   6.485   0.533   1.236 -0.3923  0.0470 -0.2141
 2105TIP3    H127874   6.566   0.495   1.202  0.0658  1.7195 -1.0494
 2105TIP3    H227875   6.514   0.603   1.294 -1.2102 -1.4575  2.1655
 2106TIP3   OH227876   4.364   4.986   8.369 -0.0644  0.1443 -0.1859
 2106TIP3    H127877   4.438   4.942   8.329  0.1525  0.3530 -0.0189
 2106TIP3    H227878   4.287   4.946   8.329  0.0341 -1.9359  1.4806
 2107TIP3   OH227879   0.612   3.233   2.965  0.1411 -0.7631 -0.2492
 2107TIP3    H127880   0.546   3.271   3.023  0.6445 -1.0950  0.5605
 2107TIP3    H227881   0.565   3.214   2.884 -0.7117 -0.8236  0.2519
 2108TIP3   OH227882   6.726   2.868   8.473  0.2419 -0.5790 -0.2433
 2108TIP3    H127883   6.790   2.798   8.484 -0.7802 -1.4558  0.2758
 2108TIP3    H227884   6.777   2.949   8.486  1.0099 -1.2808  1.4025
 2109TIP3   OH227885   1.871   6.436   0.659  0.0069 -0.2112 -0.2500
 2109TIP3    H127886   1.922   6.506   0.617 -0.0235 -0.2749 -0.3950
 2109TIP3    H227887   1.781   6.453   0.632  0.0365 -0.4667 -0.5115
 2110TIP3   OH227888   0.891   4.577   8.804 -0.4054 -0.1863 -0.3228
 2110TIP3    H127889   0.854   4.574   8.716  0.5198 -1.8715 -0.7072
 2110TIP3    H227890   0.955   4.506   8.805  0.9316  0.9705  1.1344
 2111TIP3   OH227891   1.822   2.846   1.475 -0.0765  0.2464  0.0718
 2111TIP3    H127892   1.839   2.920   1.415 -0.0958 -0.7327 -1.1895
 2111TIP3    H227893   1.894   2.850   1.538  0.7789  0.4694 -0.8753
 2112TIP3   OH227894   1.966   2.328   2.006  0.3270  0.3859  0.4589
 2112TIP3    H127895   1.884   2.302   2.049 -0.1988  0.1478 -0.6573
 2112TIP3    H227896   2.030   2.329   2.077  0.2460 -3.1679  0.7676
 2113TIP3   OH227897   0.225   6.704   2.023  0.1388  0.0556  0.2979
 2113TIP3    H127898   0.299   6.648   2.000 -1.1213 -0.7507 -2.2519
 2113TIP3    H227899   0.155   6.643   2.045 -0.8304  0.5946 -1.1065
 2114TIP3   OH227900   4.139   2.980   7.925 -0.0535 -0.0250 -0.0685
 2114TIP3    H127901   4.187   2.922   7.985 -1.7756 -1.5466 -0.0805
 2114TIP3    H227902   4.206   3.039   7.892  1.9718 -2.3636 -0.4858
 2115TIP3   OH227903   5.975   1.639   1.591  0.0099  0.1839 -0.0232
 2115TIP3    H127904   6.005   1.548   1.600 -0.1708  0.1865  0.7009
 2115TIP3    H227905   5.952   1.647   1.499 -0.0915 -0.5467 -0.0723
 2116TIP3   OH227906   6.133   5.837   8.260  0.0572 -0.1337  0.2566
 2116TIP3    H127907   6.050   5.875   8.289  0.3779 -0.1133  1.1720
 2116TIP3    H227908   6.188   5.838   8.338  0.1930 -2.1622  0.2248
 2117TIP3   OH227909   1.110   4.138   8.538  0.4267 -0.2276 -0.4534
 2117TIP3    H127910   1.146   4.072   8.597  0.5240 -0.8458 -1.1893
 2117TIP3    H227911   1.031   4.097   8.502 -0.9309  1.0313  0.9843
 2118TIP3   OH227912   6.138   0.884   1.581  0.0557 -0.1849 -0.8115
 2118TIP3    H127913   6.072   0.815   1.577 -0.6793  0.5701 -2.7559
 2118TIP3    H227914   6.178   0.874   1.668 -3.0448 -0.2600  0.7435
 2119TIP3   OH227915   1.250   3.639   0.779  0.0997 -0.8926  0.5988
 2119TIP3    H127916   1.307   3.702   0.735  0.9351 -1.1750  1.2483
 2119TIP3    H227917   1.181   3.621   0.716  1.4927 -1.6223 -0.7988
 2120TIP3   OH227918   1.758   0.739   2.794  0.4534  0.5798 -0.7166
 2120TIP3    H127919   1.729   0.648   2.801  0.1149  0.6419 -1.2185
 2120TIP3    H227920   1.711   0.785   2.864  0.4294  0.4175 -0.6254
 2121TIP3   OH227921   3.738   2.961   1.840  0.1186  0.2628 -0.0650
 2121TIP3    H127922   3.654   3.001   1.862 -0.7068 -0.7762 -1.1496
 2121TIP3    H227923   3.752   2.895   1.908 -0.1126  0.2173 -0.0618
 2122TIP3   OH227924   0.879   4.100   7.331  0.1855 -0.0368  0.0777
 2122TIP3    H127925   0.862   4.067   7.419  0.3756 -0.4986 -0.0567
 2122TIP3    H227926   0.957   4.053   7.302  1.6168  1.8871  0.5967
 2123TIP3   OH227927   2.216   2.515   7.481 -0.4306  0.3867  0.5716
 2123TIP3    H127928   2.228   2.496   7.574 -1.9292  0.9634  0.9105
 2123TIP3    H227929   2.304   2.524   7.447  0.1529 -0.1706  1.8696
 2124TIP3   OH227930   0.522   1.382   0.423 -0.2572 -0.0554  0.2789
 2124TIP3    H127931   0.483   1.469   0.425  1.1129  0.6595 -1.4079
 2124TIP3    H227932   0.553   1.372   0.333  2.4942 -0.9579  1.2231
 2125TIP3   OH227933   2.639   2.233   2.290  0.0410 -0.3116  0.3052
 2125TIP3    H127934   2.583   2.256   2.364  0.9452 -0.3025  1.0022
 2125TIP3    H227935   2.660   2.317   2.249  1.1954 -0.0973  1.2763
 2126TIP3   OH227936   2.512   5.360   1.093  0.0289 -0.1526  0.3002
 2126TIP3    H127937   2.601   5.373   1.061 -0.6637  0.3033 -1.5304
 2126TIP3    H227938   2.523   5.344   1.187  2.1569 -1.5687 -0.1101
 2127TIP3   OH227939   2.756   4.125   0.986  0.5126 -0.0890  0.5977
 2127TIP3    H127940   2.745   4.081   1.070  0.2594  0.7832  1.0249
 2127TIP3    H227941   2.744   4.055   0.921 -0.6327 -0.5173  1.2462
 2128TIP3   OH227942   6.212   2.595   2.294  0.2812  0.4330 -0.0343
 2128TIP3    H127943   6.193   2.575   2.202  1.2172  1.0414 -0.3805
 2128TIP3    H227944   6.278   2.530   2.318  1.2466  1.2785 -0.3082
 2129TIP3   OH227945   2.070   2.361   0.064 -0.3505 -0.1839  0.1287
 2129TIP3    H127946   2.117   2.291   0.110  0.1324 -0.5021 -0.8146
 2129TIP3    H227947   2.096   2.441   0.110  0.5208 -0.4387  0.0968
 2130TIP3   OH227948   2.725   0.524   1.773  0.2566 -0.0122  0.0677
 2130TIP3    H127949   2.732   0.611   1.733 -0.7616  0.8280  1.6497
 2130TIP3    H227950   2.810   0.510   1.816  0.4516  0.1461 -0.2646
 2131TIP3   OH227951   1.588   0.174   1.534  0.0257 -0.5571  0.5355
 2131TIP3    H127952   1.586   0.231   1.611  0.1721  0.9752 -0.5507
 2131TIP3    H227953   1.505   0.127   1.538 -0.7099  0.7069  0.7804
 2132TIP3   OH227954   2.226   0.247   2.031 -0.3034  0.1078 -0.2992
 2132TIP3    H127955   2.322   0.245   2.034 -0.1675  1.1615 -2.2637
 2132TIP3    H227956   2.204   0.229   1.940 -2.0697 -1.4465  0.3764
 2133TIP3   OH227957   1.126   5.380   0.512  0.1308  0.1476 -0.3579
 2133TIP3    H127958   1.093   5.467   0.489  0.5926  0.3670 -0.2079
 2133TIP3    H227959   1.210   5.373   0.466 -0.0198 -0.3179 -0.5639
 2134TIP3   OH227960   4.665   3.368   8.457  0.4846  0.4090  0.1066
 2134TIP3    H127961   4.610   3.289   8.465 -0.5299  0.8510 -1.8225
 2134TIP3    H227962   4.708   3.376   8.542 -1.9333 -0.3528  1.5073
 2135TIP3   OH227963   3.177   4.625   7.488 -0.1881  0.4683 -0.2969
 2135TIP3    H127964   3.181   4.670   7.403  0.7425 -0.0024 -0.5147
 2135TIP3    H227965   3.139   4.690   7.547 -0.6984  0.8589 -1.0365
 2136TIP3   OH227966   2.471   3.001   1.566 -0.1259  0.0837  0.2876
 2136TIP3    H127967   2.424   3.084   1.561 -0.9332 -0.4323 -1.0240
 2136TIP3    H227968   2.454   2.969   1.655 -0.8532  0.7161  0.3821
 2137TIP3   OH227969   5.685   0.893   1.737 -0.5283 -0.7759 -0.0768
 2137TIP3    H127970   5.669   0.965   1.676  0.9110 -0.9702 -0.7233
 2137TIP3    H227971   5.691   0.935   1.823 -0.0938 -0.1840 -0.3974
 2138TIP3   OH227972   3.154   6.177   8.412 -0.1793 -0.2915 -0.8228
 2138TIP3    H127973   3.107   6.259   8.395 -0.9155 -0.7974 -1.2845
 2138TIP3    H227974   3.233   6.183   8.359  1.1587  1.2802  1.1755
 2139TIP3   OH227975   6.394   3.726   7.786 -0.8738  0.0658  0.4019
 2139TIP3    H127976   6.413   3.743   7.694  1.0634 -1.4202  0.4440
 2139TIP3    H227977   6.452   3.784   7.834 -1.3678  0.3342  0.6813
 2140TIP3   OH227978   2.807   0.101   1.576  0.1896 -0.4637  0.4289
 2140TIP3    H127979   2.814   0.153   1.496 -2.0265  0.8535  1.0128
 2140TIP3    H227980   2.896   0.067   1.590  1.6817  2.8048 -0.2082
 2141TIP3   OH227981   3.728   2.437   1.585 -0.6917  0.0687 -0.2832
 2141TIP3    H127982   3.778   2.504   1.631  0.4268 -1.7983  1.4217
 2141TIP3    H227983   3.687   2.483   1.512 -1.0238  2.8329  1.4917
 2142TIP3   OH227984   6.181   3.291   1.034 -0.3819 -0.4910  0.2541
 2142TIP3    H127985   6.246   3.221   1.041  0.1247 -0.0867 -0.3383
 2142TIP3    H227986   6.131   3.285   1.116  0.6999 -0.5108  0.9342
 2143TIP3   OH227987   1.288   4.574   7.631  0.0329  0.4879 -0.2355
 2143TIP3    H127988   1.274   4.639   7.700  0.2775  1.2331 -0.8740
 2143TIP3    H227989   1.359   4.518   7.664 -0.5376  0.2117  0.5444
 2144TIP3   OH227990   0.104   4.568   0.464  0.2943  0.4390  0.3501
 2144TIP3    H127991   0.193   4.590   0.490 -0.4829  3.4616  0.8543
 2144TIP3    H227992   0.054   4.570   0.545 -0.4570 -0.0431 -0.0906
 2145TIP3   OH227993   6.298   1.153   1.100 -0.0230  0.4638 -0.6223
 2145TIP3    H127994   6.229   1.162   1.166  0.7394 -2.1350  0.6504
 2145TIP3    H227995   6.349   1.234   1.108 -0.5509  0.6526  1.2598
 2146TIP3   OH227996   6.635   1.616   1.348  0.2045 -0.1175  0.3177
 2146TIP3    H127997   6.677   1.695   1.317  0.3124 -0.0813  0.5549
 2146TIP3    H227998   6.593   1.641   1.431 -0.7507 -0.0077 -0.1783
 2147TIP3   OH227999   0.881   0.589   7.595  0.7067 -0.1786 -0.4617
 2147TIP3    H128000   0.848   0.658   7.538  0.4589  0.2707  0.2035
 2147TIP3    H228001   0.842   0.608   7.681  2.4365  0.2196  0.2938
 2148TIP3   OH228002   2.161   2.842   8.499  0.0947 -0.4688  0.4402
 2148TIP3    H128003   2.112   2.830   8.581 -0.2417 -2.1668  0.0386
 2148TIP3    H228004   2.227   2.908   8.520  0.1489 -1.0099  2.1462
 2149TIP3   OH228005   4.375   1.572   1.944  1.0396 -0.0840  0.2109
 2149TIP3    H128006   4.335   1.636   1.885 -0.0856 -0.7811  0.1716
 2149TIP3    H228007   4.327   1.582   2.026 -1.8386 -3.2652 -0.8112
 2150TIP3   OH228008   1.064   1.799   8.411  0.5764 -0.4569  0.1143
 2150TIP3    H128009   1.037   1.884   8.378 -0.7262 -1.0973 -0.5601
 2150TIP3    H228010   1.159   1.803   8.414  0.6115  0.5142 -1.3494
 2151TIP3   OH228011   1.700   2.125   2.492  0.3638  0.0035 -0.2680
 2151TIP3    H128012   1.700   2.220   2.503 -0.3321  0.0316 -0.4417
 2151TIP3    H228013   1.788   2.097   2.517 -0.1276  0.4142  2.1751
 2152TIP3   OH228014   3.908   0.918   0.544 -0.2081  0.0783  0.7891
 2152TIP3    H128015   3.861   0.992   0.584 -1.5187  0.4967 -1.3959
 2152TIP3    H228016   3.850   0.843   0.556 -0.6307  0.2157 -0.3182
 2153TIP3   OH228017   1.857   4.028   1.987  0.0710  0.1883 -0.3274
 2153TIP3    H128018   1.770   4.063   2.007 -0.6713 -1.4473 -0.5281
 2153TIP3    H228019   1.879   3.974   2.063  0.8171  0.3983 -0.3834
 2154TIP3   OH228020   5.835   3.269   2.019  0.3572  0.0134 -0.0804
 2154TIP3    H128021   5.879   3.213   1.955  0.5931  0.4390 -0.2954
 2154TIP3    H228022   5.875   3.247   2.103 -1.3445 -2.0339  0.2977
 2155TIP3   OH228023   4.755   6.210   6.705 -0.2144 -0.3039  0.1799
 2155TIP3    H128024   4.685   6.182   6.646 -1.4180 -0.7342  1.7274
 2155TIP3    H228025   4.771   6.301   6.681 -0.1985 -0.6564 -1.2291
 2156TIP3   OH228026   4.811   5.283   1.225  0.3175 -0.3016  0.1156
 2156TIP3    H128027   4.854   5.320   1.147  0.2259 -0.8780 -0.2170
 2156TIP3    H228028   4.720   5.272   1.198  0.2418 -0.3138  0.3791
 2157TIP3   OH228029   6.639   3.881   2.585  0.3154 -0.2789  0.5735
 2157TIP3    H128030   6.693   3.805   2.564 -1.2622 -0.9621 -1.3314
 2157TIP3    H228031   6.631   3.929   2.502 -0.9049  0.5060  1.1141
 2158TIP3   OH228032   4.181   6.070   1.430 -0.4228  0.1756 -0.5262
 2158TIP3    H128033   4.244   6.060   1.359 -0.6090 -3.4871 -0.3820
 2158TIP3    H228034   4.097   6.050   1.389 -0.5576 -1.7448  0.5877
 2159TIP3   OH228035   2.193   5.815   8.841  0.7944 -0.2233  0.2774
 2159TIP3    H128036   2.205   5.830   8.747  0.3932 -0.1151  0.2439
 2159TIP3    H228037   2.181   5.720   8.849  0.3331 -0.1788  0.1627
 2160TIP3   OH228038   0.745   3.812   1.609 -0.4736 -0.0209 -0.3268
 2160TIP3    H128039   0.811   3.848   1.550  0.2186  0.6536  0.8166
 2160TIP3    H228040   0.789   3.740   1.654 -1.3700 -1.3294 -1.4722
 2161TIP3   OH228041   4.490   0.166   0.656 -0.5203  0.1968  0.1109
 2161TIP3    H128042   4.441   0.236   0.613  0.7713  0.2343 -1.3983
 2161TIP3    H228043   4.570   0.208   0.687  0.7334 -0.7386 -1.6844
 2162TIP3   OH228044   4.472   1.245   7.518 -0.3866 -0.4836 -0.6600
 2162TIP3    H128045   4.518   1.263   7.436  1.3213  1.6393  0.6448
 2162TIP3    H228046   4.526   1.181   7.563 -0.2045 -0.0872 -0.3117
 2163TIP3   OH228047   4.491   4.187   0.484 -0.4148 -0.3480 -0.2545
 2163TIP3    H128048   4.502   4.162   0.576  0.8012  0.4484 -0.1591
 2163TIP3    H228049   4.485   4.283   0.486  1.0455 -0.2129 -1.1098
 2164TIP3   OH228050   6.573   2.700   7.384  0.1342  0.0551  0.1355
 2164TIP3    H128051   6.641   2.673   7.322  1.0755  1.6114  0.4375
 2164TIP3    H228052   6.507   2.744   7.330  0.5867  0.7428  0.1346
 2165TIP3   OH228053   3.841   5.048   8.623 -0.5543 -0.8877 -1.0363
 2165TIP3    H128054   3.883   5.115   8.676 -1.0328 -1.4245  0.0699
 2165TIP3    H228055   3.867   4.965   8.664 -0.0351 -1.3915 -2.3241
 2166TIP3   OH228056   1.111   6.383   0.889  0.3733 -0.3463  0.1275
 2166TIP3    H128057   1.038   6.427   0.846  1.1652  2.0647  1.0800
 2166TIP3    H228058   1.127   6.435   0.968  3.9873  0.0664 -0.7254
 2167TIP3   OH228059   2.810   0.293   0.650 -0.2739  0.0506  0.2935
 2167TIP3    H128060   2.750   0.230   0.609  0.4008  0.1970 -0.9878
 2167TIP3    H228061   2.824   0.359   0.582 -1.0135  1.6486  1.6214
 2168TIP3   OH228062   2.544   4.171   8.154 -0.0967  0.3878  0.1903
 2168TIP3    H128063   2.526   4.188   8.246 -1.6463  1.1286 -0.2180
 2168TIP3    H228064   2.566   4.257   8.118 -1.5908  0.4943 -0.5471
 2169TIP3   OH228065   2.465   5.657   0.375  0.2858  0.3559  0.1176
 2169TIP3    H128066   2.502   5.625   0.457  0.3039  1.5408  0.5896
 2169TIP3    H228067   2.388   5.706   0.401 -1.8550 -2.2260 -0.8501
 2170TIP3   OH228068   3.793   6.587   8.211  0.1214 -0.2881  0.2398
 2170TIP3    H128069   3.829   6.658   8.158  0.9220  0.3624  1.5977
 2170TIP3    H228070   3.857   6.574   8.281 -0.4041 -1.8124  0.4771
 2171TIP3   OH228071   6.688   6.198   0.505  0.2948  0.0231  0.4619
 2171TIP3    H128072   6.600   6.224   0.532  0.4051  0.0316  0.8161
 2171TIP3    H228073   6.695   6.107   0.534 -0.3354 -0.6434 -1.3661
 2172TIP3   OH228074   1.627   2.134   8.841 -0.1353  0.7986 -0.3703
 2172TIP3    H128075   1.722   2.144   8.841 -0.2358  1.9864  0.7078
 2172TIP3    H228076   1.594   2.218   8.809 -0.8390  0.6136 -0.1529
 2173TIP3   OH228077   1.332   4.059   8.835 -0.1887  0.0628  0.1895
 2173TIP3    H128078   1.260   4.013   8.878  0.3134 -0.0204  0.9598
 2173TIP3    H228079   1.314   4.049   8.742  0.3691 -2.5248  0.2743
 2174TIP3   OH228080   0.744   6.781   2.762 -0.0081  0.0509  0.0499
 2174TIP3    H128081   0.801   6.732   2.823  0.8876  1.0288  0.0274
 2174TIP3    H228082   0.704   6.713   2.708 -0.7675 -0.8426  1.6698
 2175TIP3   OH228083   3.714   2.983   0.012  0.4803  0.1670  0.0547
 2175TIP3    H128084   3.783   2.918   0.021  1.3866  1.0035 -0.6369
 2175TIP3    H228085   3.632   2.933   0.019  1.1411 -0.8465  0.7863
 2176TIP3   OH228086   1.269   5.797   0.442 -0.1829  0.0499  0.1724
 2176TIP3    H128087   1.271   5.774   0.535 -1.6235 -1.2188 -0.0655
 2176TIP3    H228088   1.197   5.744   0.406 -0.4533  1.4269 -1.4250
 2177TIP3   OH228089   5.712   0.922   8.116 -0.1892 -0.4953  0.0814
 2177TIP3    H128090   5.661   1.001   8.131  0.6567  0.3572 -1.3138
 2177TIP3    H228091   5.713   0.878   8.201 -0.7491  0.9348  0.8676
 2178TIP3   OH228092   5.953   2.823   7.125 -0.1564 -0.2696 -0.0360
 2178TIP3    H128093   5.942   2.738   7.167  1.0643  0.9116  2.9576
 2178TIP3    H228094   5.870   2.868   7.138  0.4802  0.4151  2.1490
 2179TIP3   OH228095   0.704   2.253   8.298 -0.1188 -0.0018  0.1417
 2179TIP3    H128096   0.792   2.268   8.333  0.3642 -2.3355  0.0982
 2179TIP3    H228097   0.663   2.194   8.361 -0.7888 -0.7933 -0.9968
 2180TIP3   OH228098   1.814   4.610   2.198 -0.3708  0.2473  0.5358
 2180TIP3    H128099   1.869   4.667   2.252 -0.2912  0.8521 -0.1577
 2180TIP3    H228100   1.874   4.542   2.167 -0.2381  0.3463  0.5702
 2181TIP3   OH228101   3.340   3.409   8.424 -0.1230  0.2406 -0.6481
 2181TIP3    H128102   3.276   3.470   8.387  0.8708  2.0771  0.4782
 2181TIP3    H228103   3.404   3.396   8.354  0.2251  1.3978 -0.5765
 2182TIP3   OH228104   2.649   2.307   3.195  0.3275  0.2869 -0.7228
 2182TIP3    H128105   2.702   2.331   3.271 -0.1245 -0.2417 -0.2341
 2182TIP3    H228106   2.575   2.367   3.198 -0.2207 -0.4011 -0.1466
 2183TIP3   OH228107   1.963   0.997   0.855  0.1533  0.4897 -0.1208
 2183TIP3    H128108   2.001   1.084   0.860 -0.2467  0.6468  0.2833
 2183TIP3    H228109   2.036   0.939   0.832 -0.1659  1.3734 -4.2024
 2184TIP3   OH228110   5.926   4.085   1.804  0.1530 -0.4530  0.3329
 2184TIP3    H128111   5.994   4.090   1.872  1.2574  2.3889 -0.7860
 2184TIP3    H228112   5.906   4.177   1.785 -2.2569 -1.2118 -1.1303
 2185TIP3   OH228113   3.415   2.118   0.979  0.2822  0.4999  0.0882
 2185TIP3    H128114   3.494   2.076   0.945 -0.1218  0.4041 -0.7657
 2185TIP3    H228115   3.371   2.152   0.901 -0.3600  0.8341  0.5876
 2186TIP3   OH228116   6.788   3.576   0.557 -0.1709  1.0365 -0.5144
 2186TIP3    H128117   6.844   3.635   0.607 -1.3695  2.2423 -0.5325
 2186TIP3    H228118   6.725   3.543   0.620  1.5670 -1.7988 -0.0611
 2187TIP3   OH228119   1.432   5.141   0.300 -0.3032 -0.2591  0.7743
 2187TIP3    H128120   1.364   5.086   0.339 -0.9923  0.1869  0.2142
 2187TIP3    H228121   1.385   5.216   0.264  0.1531 -1.1167 -1.8163
 2188TIP3   OH228122   2.246   1.374   0.405 -0.3248 -0.0591  0.2438
 2188TIP3    H128123   2.206   1.407   0.324  1.0171 -1.7267 -1.1590
 2188TIP3    H228124   2.174   1.330   0.450 -1.1445  1.0924  0.1176
 2189TIP3   OH228125   3.015   3.005   8.555 -0.4929  0.1225  0.0056
 2189TIP3    H128126   3.049   3.063   8.622  0.0054  0.4662 -0.5337
 2189TIP3    H228127   3.061   3.031   8.475 -0.8603 -0.4720 -0.4082
 2190TIP3   OH228128   1.111   3.320   0.332 -0.6869  0.1091  0.3769
 2190TIP3    H128129   1.057   3.341   0.255 -0.4730 -0.9818 -0.0864
 2190TIP3    H228130   1.196   3.294   0.295 -0.3534  0.2478  1.0267
 2191TIP3   OH228131   4.670   1.293   1.775 -0.6384  0.2208 -0.5908
 2191TIP3    H128132   4.747   1.268   1.828 -1.3412  2.9524  2.0331
 2191TIP3    H228133   4.606   1.225   1.793 -0.4282  0.4451  1.1996
 2192TIP3   OH228134   2.687   2.825   2.138 -1.0339 -0.4364 -0.4006
 2192TIP3    H128135   2.596   2.842   2.159 -0.8281 -0.5680  0.6607
 2192TIP3    H228136   2.737   2.875   2.204 -0.3544 -0.7073 -0.6971
 2193TIP3   OH228137   0.346   6.768   2.373 -0.4112  0.5964  0.4648
 2193TIP3    H128138   0.437   6.764   2.345 -0.6808 -1.6429 -0.3131
 2193TIP3    H228139   0.340   6.704   2.444 -1.7938 -1.0356 -1.0216
 2194TIP3   OH228140   5.006   2.063   0.722  0.0050 -0.0077  0.1227
 2194TIP3    H128141   5.012   1.970   0.700 -1.5379 -0.4329  1.3544
 2194TIP3    H228142   4.984   2.065   0.815 -0.2606  1.5896  0.0592
 2195TIP3   OH228143   3.128   5.328   0.373  0.4178 -0.3858 -0.0647
 2195TIP3    H128144   3.056   5.328   0.309  0.7348  1.1585 -0.4730
 2195TIP3    H228145   3.195   5.274   0.333 -0.0691 -0.8861 -0.2209
 2196TIP3   OH228146   3.272   0.455   7.223  0.2812  0.1325  0.5468
 2196TIP3    H128147   3.176   0.455   7.222  0.2514 -1.2510 -0.8623
 2196TIP3    H228148   3.297   0.512   7.151  0.5085  0.1879  0.6687
 2197TIP3   OH228149   3.491   3.106   7.760  0.3200  0.0598 -0.1188
 2197TIP3    H128150   3.543   3.098   7.680  0.3391 -2.4703  0.0461
 2197TIP3    H228151   3.555   3.109   7.831  0.3229 -1.0169 -0.0465
 2198TIP3   OH228152   4.664   6.386   1.060 -0.1570 -0.2264 -0.1689
 2198TIP3    H128153   4.736   6.348   1.110  0.9621  1.3148 -0.5180
 2198TIP3    H228154   4.585   6.352   1.102  0.7175  0.6312  2.4014
 2199TIP3   OH228155   1.166   4.342   7.034 -0.3087  0.2767  0.4984
 2199TIP3    H128156   1.080   4.332   6.994 -0.6967 -2.6334  1.7998
 2199TIP3    H228157   1.226   4.300   6.973 -0.0766  0.6589  0.4577
 2200TIP3   OH228158   4.861   1.302   7.446 -0.2495  0.3614 -0.3330
 2200TIP3    H128159   4.910   1.245   7.388 -0.7557 -0.0364 -0.3742
 2200TIP3    H228160   4.812   1.360   7.388 -0.5724  0.1206 -0.3013
 2201TIP3   OH228161   6.269   6.429   8.744 -1.0240  0.0687  0.4786
 2201TIP3    H128162   6.234   6.438   8.833 -0.9129  2.5115  0.3314
 2201TIP3    H228163   6.345   6.372   8.754 -2.1122 -1.2504  1.6114
 2202TIP3   OH228164   1.104   4.882   2.475  0.7819 -0.0949 -0.5019
 2202TIP3    H128165   1.058   4.889   2.559  0.9578  1.6472 -0.5049
 2202TIP3    H228166   1.096   4.790   2.450 -0.9675 -0.2467  0.4768
 2203TIP3   OH228167   5.025   0.399   7.799 -0.0036  0.4024 -0.5944
 2203TIP3    H128168   5.031   0.493   7.815  1.4783  0.5301 -1.7001
 2203TIP3    H228169   5.089   0.382   7.729 -2.3299 -0.9336 -2.5427
 2204TIP3   OH228170   3.861   1.826   0.108 -0.6858  0.3444 -0.4253
 2204TIP3    H128171   3.842   1.845   0.200  0.6573 -0.1452 -0.0285
 2204TIP3    H228172   3.876   1.731   0.106  1.5427  0.6583 -0.7005
 2205TIP3   OH228173   3.530   5.297   0.402 -0.3335 -0.4827 -0.3222
 2205TIP3    H128174   3.455   5.302   0.461 -0.7876 -1.0285 -0.8477
 2205TIP3    H228175   3.537   5.385   0.364  1.2272  0.5406  2.0385
 2206TIP3   OH228176   3.560   1.744   1.125  0.5508 -0.3991 -0.0884
 2206TIP3    H128177   3.574   1.680   1.195 -0.9392  0.1487  0.7744
 2206TIP3    H228178   3.645   1.752   1.082  0.9063 -2.5445  0.1033
 2207TIP3   OH228179   6.442   4.568   1.799 -0.0411 -0.3460 -0.2002
 2207TIP3    H128180   6.355   4.605   1.813  0.0605  0.8247 -2.2055
 2207TIP3    H228181   6.434   4.522   1.715  1.9021  2.1373 -1.8871
 2208TIP3   OH228182   3.709   4.431   8.683  0.6812  0.3078  0.2383
 2208TIP3    H128183   3.694   4.438   8.777  0.5172  0.9106  0.1720
 2208TIP3    H228184   3.657   4.355   8.656 -0.7959  1.2417  0.3244
 2209TIP3   OH228185   4.369   0.028   0.871  0.1646  0.2300  0.6035
 2209TIP3    H128186   4.401   0.066   0.789 -0.0581 -0.1800  0.3240
 2209TIP3    H228187   4.447  -0.002   0.916  0.1089 -2.0093 -0.6931
 2210TIP3   OH228188   0.945   6.525   0.744  0.0700 -0.0403  0.3723
 2210TIP3    H128189   0.854   6.500   0.734 -0.4128  1.7680 -0.2355
 2210TIP3    H228190   0.982   6.521   0.656  0.0821  0.9348  0.3240
 2211TIP3   OH228191   4.740   2.773   0.617  0.4303 -0.7345  0.2680
 2211TIP3    H128192   4.821   2.730   0.589  1.1423  0.1240  0.9162
 2211TIP3    H228193   4.731   2.751   0.709  1.4634  1.3985  0.9365
 2212TIP3   OH228194   3.990   2.341   7.662  0.4490 -0.5890  0.1547
 2212TIP3    H128195   4.020   2.268   7.607  0.2575 -1.5579  1.2965
 2212TIP3    H228196   4.032   2.326   7.747  0.3668  0.6196  0.4252
 2213TIP3   OH228197   4.564   6.180   8.140  0.5072  0.0041  0.2627
 2213TIP3    H128198   4.625   6.128   8.192  0.8874  0.5549  0.3754
 2213TIP3    H228199   4.619   6.231   8.082  0.1822  0.8267  0.6563
 2214TIP3   OH228200   5.634   2.319   0.284  0.2262  0.1207  0.1682
 2214TIP3    H128201   5.555   2.338   0.335  0.9577 -0.7984  1.7187
 2214TIP3    H228202   5.661   2.232   0.313  0.1005 -0.9494 -2.6052
 2215TIP3   OH228203   4.863   0.949   7.815 -0.0203 -0.4744 -0.1757
 2215TIP3    H128204   4.858   0.967   7.909  1.7650  0.0610 -0.1455
 2215TIP3    H228205   4.820   1.023   7.773  1.2879  0.4965  0.1644
 2216TIP3   OH228206   6.520   4.205   0.552  0.2627 -0.0984 -0.1640
 2216TIP3    H128207   6.533   4.165   0.466  1.3170 -1.2383  0.4983
 2216TIP3    H228208   6.460   4.147   0.598 -0.6268  0.7254 -0.2523
 2217TIP3   OH228209   3.511   4.237   6.647 -0.4761 -0.0195 -0.3226
 2217TIP3    H128210   3.543   4.285   6.724 -0.0625 -0.4576 -0.2138
 2217TIP3    H228211   3.580   4.249   6.582 -0.3377 -0.5263 -0.2689
 2218TIP3   OH228212   6.666   3.135   0.569 -0.0712  0.5486 -0.3094
 2218TIP3    H128213   6.720   3.204   0.531  1.4286 -0.2031  0.3701
 2218TIP3    H228214   6.709   3.053   0.544  0.0121 -0.0264  1.5164
 2219TIP3   OH228215   3.243   4.482   8.616  0.0766  0.4940  0.1685
 2219TIP3    H128216   3.183   4.550   8.588  0.1499  0.0344 -1.2299
 2219TIP3    H228217   3.227   4.472   8.709  0.4013  2.7379  0.5221
 2220TIP3   OH228218   1.978   6.285   8.257  0.1966 -0.6002 -0.2907
 2220TIP3    H128219   2.004   6.374   8.234 -0.9118 -0.7061 -2.1853
 2220TIP3    H228220   1.894   6.296   8.303  0.8035 -0.6012  0.8535
 2221TIP3   OH228221   0.513   3.167   0.645 -0.0061 -0.1530 -0.2334
 2221TIP3    H128222   0.606   3.191   0.651 -0.3560  1.0430  0.8138
 2221TIP3    H228223   0.474   3.202   0.725 -1.5763  0.3651 -1.1692
 2222TIP3   OH228224   3.456   2.927   2.750  0.2933  0.9802  0.3628
 2222TIP3    H128225   3.416   2.988   2.812 -0.2048  0.1595  0.8718
 2222TIP3    H228226   3.546   2.917   2.781 -0.3939 -0.7044  1.9964
 2223TIP3   OH228227   4.526   0.702   1.898 -0.3259 -0.2967  0.3735
 2223TIP3    H128228   4.457   0.636   1.901 -0.2495 -0.4892 -1.3267
 2223TIP3    H228229   4.495   0.768   1.836  0.3816  0.3641  0.6979
 2224TIP3   OH228230   2.618   3.395   1.274 -0.0652 -0.3863 -0.2637
 2224TIP3    H128231   2.557   3.322   1.275  0.6590 -1.0234  1.5164
 2224TIP3    H228232   2.689   3.366   1.218 -1.1273  0.1840 -1.9875
 2225TIP3   OH228233   4.271   3.504   2.687  0.0124  0.2557  0.5245
 2225TIP3    H128234   4.303   3.422   2.649  2.6833  1.6164 -0.3784
 2225TIP3    H228235   4.177   3.490   2.698  0.4962 -3.3442  1.5116
 2226TIP3   OH228236   4.101   0.914   1.564 -0.3532  0.2449  0.2551
 2226TIP3    H128237   4.087   0.864   1.483  4.4653  0.6962 -1.1727
 2226TIP3    H228238   4.083   0.852   1.634  0.8404 -2.0767 -1.3428
 2227TIP3   OH228239   4.559   1.129   8.575  0.6743 -0.1005 -0.1093
 2227TIP3    H128240   4.634   1.159   8.523  1.0773  0.5850  0.8265
 2227TIP3    H228241   4.495   1.099   8.510  1.1374  0.7603 -1.0051
 2228TIP3   OH228242   5.824   1.168   8.223  0.2726  0.1064  0.5074
 2228TIP3    H128243   5.887   1.236   8.199  1.3579 -0.5980  1.2806
 2228TIP3    H228244   5.875   1.105   8.274 -0.7137 -1.2616 -0.1237
 2229TIP3   OH228245   4.805   2.785   7.697  0.2058  0.2448 -0.0114
 2229TIP3    H128246   4.715   2.754   7.688  0.1133  0.8682 -1.5372
 2229TIP3    H228247   4.844   2.772   7.611  2.3395 -2.2080  1.1975
 2230TIP3   OH228248   5.642   0.766   7.466  0.2688 -0.3475  0.5393
 2230TIP3    H128249   5.701   0.841   7.453 -0.0622 -0.1107  0.3957
 2230TIP3    H228250   5.650   0.716   7.385  0.8528 -0.7281  0.8215
 2231TIP3   OH228251   1.368   0.290   1.973  0.4201  0.8344 -0.1174
 2231TIP3    H128252   1.410   0.330   2.049 -1.5766  0.4244  1.2838
 2231TIP3    H228253   1.383   0.196   1.984 -0.0468  0.7584 -0.1031
 2232TIP3   OH228254   4.450   6.152   2.499 -0.3404 -0.1347  0.1871
 2232TIP3    H128255   4.362   6.123   2.523 -0.0895 -0.8875  0.2361
 2232TIP3    H228256   4.506   6.119   2.570 -0.1352  1.1349  0.6405
 2233TIP3   OH228257   2.755   6.769   1.008  0.4080 -0.0498  0.5894
 2233TIP3    H128258   2.804   6.777   1.090  2.1399  1.8369 -0.5245
 2233TIP3    H228259   2.784   6.844   0.956 -1.9973 -0.1709 -1.0674
 2234TIP3   OH228260   4.004   3.883   1.608  0.3934 -0.2568 -0.0460
 2234TIP3    H128261   4.020   3.899   1.515  0.4765  0.1770  0.0379
 2234TIP3    H228262   4.058   3.949   1.653 -0.7920  0.5349  0.2742
 2235TIP3   OH228263   0.635   3.286   8.714  0.1258 -0.0035 -0.2284
 2235TIP3    H128264   0.561   3.305   8.656 -0.8789 -0.5398  0.8191
 2235TIP3    H228265   0.676   3.208   8.676 -0.3215 -0.1576 -0.3990
 2236TIP3   OH228266   0.510   1.499   7.686 -0.1579  0.2873  0.1692
 2236TIP3    H128267   0.581   1.561   7.670 -0.6240  0.9098  0.4665
 2236TIP3    H228268   0.491   1.508   7.779  1.2462 -1.9264  0.7418
 2237TIP3   OH228269   0.432   1.774   7.285 -0.2392  0.1505  0.3237
 2237TIP3    H128270   0.502   1.759   7.221  1.5383 -1.3113  2.4803
 2237TIP3    H228271   0.430   1.695   7.338 -0.3295  1.9959  3.2912
 2238TIP3   OH228272   3.744   0.266   2.019  0.0035 -0.6836 -0.4337
 2238TIP3    H128273   3.737   0.253   2.114 -2.1059 -0.4997 -0.5132
 2238TIP3    H228274   3.806   0.339   2.009 -0.4420 -0.0892  0.8715
 2239TIP3   OH228275   0.369   0.558   8.264  0.3862 -0.3739 -0.0767
 2239TIP3    H128276   0.284   0.601   8.256  1.0140  1.0479  0.4802
 2239TIP3    H228277   0.354   0.469   8.233 -0.9718  0.2328 -1.2883
 2240TIP3   OH228278   0.400   4.330   8.820  0.1187 -0.1110 -0.1344
 2240TIP3    H128279   0.335   4.395   8.845  0.7687  0.6265 -0.3314
 2240TIP3    H228280   0.362   4.287   8.743  0.3263  1.0570 -0.9150
 2241TIP3   OH228281   1.938   0.095   2.279 -0.4558 -0.0964  0.6207
 2241TIP3    H128282   1.882   0.074   2.354 -1.8860  1.2066 -0.0151
 2241TIP3    H228283   1.941   0.014   2.228 -0.9312 -0.4810  1.1920
 2242TIP3   OH228284   6.305   2.569   7.377 -0.0227 -0.4451  0.4591
 2242TIP3    H128285   6.345   2.554   7.291  2.4762  0.3468  1.3941
 2242TIP3    H228286   6.214   2.590   7.358  0.5005 -0.1575 -2.0127
 2243TIP3   OH228287   0.342   5.203   0.198 -0.4677 -0.3037 -0.3648
 2243TIP3    H128288   0.381   5.290   0.184 -0.6879 -0.5712 -3.0612
 2243TIP3    H228289   0.255   5.209   0.157 -0.5932 -1.7108 -0.3500
 2244TIP3   OH228290   1.731   1.505   7.447 -0.5276 -0.0397 -0.6142
 2244TIP3    H128291   1.754   1.532   7.537 -0.9186  1.4674 -0.9289
 2244TIP3    H228292   1.635   1.508   7.446 -0.5566 -1.0061 -0.8172
 2245TIP3   OH228293   3.513   3.457   6.831  0.5527  0.3608  0.0401
 2245TIP3    H128294   3.489   3.549   6.824  0.9166  0.5353  1.0098
 2245TIP3    H228295   3.435   3.409   6.800  0.5932  0.9863 -1.0894
 2246TIP3   OH228296   0.742   1.245   8.273  0.3578  0.5739  0.1998
 2246TIP3    H128297   0.650   1.216   8.275  0.0877  1.2037 -1.3768
 2246TIP3    H228298   0.787   1.176   8.225  0.4552  0.8768 -0.1493
 2247TIP3   OH228299   6.473   4.408   8.005 -0.5473 -0.5676 -0.0746
 2247TIP3    H128300   6.454   4.429   7.914 -0.3161  0.6568  0.1370
 2247TIP3    H228301   6.569   4.411   8.011 -0.5931  0.2817  0.3965
 2248TIP3   OH228302   2.739   4.179   8.532  0.4606  0.1041  0.1298
 2248TIP3    H128303   2.646   4.157   8.532  0.3588  0.5297  0.4660
 2248TIP3    H228304   2.777   4.122   8.599  0.2170  0.8512  0.9142
 2249TIP3   OH228305   3.470   6.454   2.319 -0.2781 -0.1635  0.2440
 2249TIP3    H128306   3.509   6.367   2.332 -2.1013 -1.1458 -0.5363
 2249TIP3    H228307   3.418   6.445   2.240 -0.0726  1.8292 -0.1446
 2250TIP3   OH228308   1.038   1.560   8.258 -0.5474 -0.0449 -0.4139
 2250TIP3    H128309   1.059   1.637   8.310 -1.5591  0.8423 -1.2605
 2250TIP3    H228310   0.986   1.504   8.316 -1.0623  0.6000 -0.2451
 2251TIP3   OH228311   4.877   2.076   1.205 -0.0471 -0.1812  0.1268
 2251TIP3    H128312   4.851   2.112   1.120  2.1497 -1.1402 -1.0272
 2251TIP3    H228313   4.859   1.982   1.198 -1.0207 -0.1099  1.2382
 2252TIP3   OH228314   4.025   0.877   6.896  0.5325 -0.6845  0.1748
 2252TIP3    H128315   3.932   0.859   6.907  0.8467 -1.4711  2.0828
 2252TIP3    H228316   4.030   0.970   6.873 -0.6899 -0.3497  1.1559
 2253TIP3   OH228317   4.540   4.414   1.127 -0.4307 -0.7059  0.1731
 2253TIP3    H128318   4.602   4.341   1.122  0.1794 -0.2180  0.3866
 2253TIP3    H228319   4.470   4.391   1.066  1.1561 -0.1448 -1.9849
 2254TIP3   OH228320   1.049   4.830   0.035  0.1499  0.4017  0.0459
 2254TIP3    H128321   1.115   4.794  -0.024 -1.6809 -1.1114 -1.2004
 2254TIP3    H228322   0.998   4.754   0.063 -0.2210  1.3344  2.1069
 2255TIP3   OH228323   2.021   4.533   0.834  0.0080  0.9700 -0.5203
 2255TIP3    H128324   1.933   4.534   0.870  0.4500  0.3399  0.6275
 2255TIP3    H228325   2.043   4.440   0.825  1.1215  1.0700  0.7275
 2256TIP3   OH228326   3.353   2.689   6.881 -0.2586  0.5637  0.9193
 2256TIP3    H128327   3.417   2.682   6.952 -1.2565 -2.4640  1.6974
 2256TIP3    H228328   3.300   2.766   6.903  1.3046  1.4350  1.7903
 2257TIP3   OH228329   3.918   5.621   2.105  0.0071 -0.5518 -0.1065
 2257TIP3    H128330   3.948   5.658   2.022 -1.2824  1.7267  0.3447
 2257TIP3    H228331   3.825   5.645   2.109 -0.0687 -1.0465  1.7690
 2258TIP3   OH228332   6.547   2.309   1.894 -0.1978 -0.2332  0.4008
 2258TIP3    H128333   6.632   2.316   1.937  1.2794 -2.4814 -1.8846
 2258TIP3    H228334   6.568   2.312   1.800 -3.1072  3.1837 -0.3507
 2259TIP3   OH228335   4.374   2.637   7.465  0.1611  0.5988 -0.0768
 2259TIP3    H128336   4.434   2.710   7.449 -1.5948  2.7156  2.2769
 2259TIP3    H228337   4.318   2.667   7.536 -1.5372 -2.5839  0.1009
 2260TIP3   OH228338   0.655   5.306   7.860 -0.6558  0.3380 -0.4453
 2260TIP3    H128339   0.694   5.222   7.835 -0.6407  0.2141 -0.0249
 2260TIP3    H228340   0.728   5.368   7.861 -0.5494  0.2116 -0.1293
 2261TIP3   OH228341   1.959   1.055   2.250  0.3350 -0.5110 -0.2298
 2261TIP3    H128342   1.895   0.987   2.227  0.0084 -0.5289  0.7030
 2261TIP3    H228343   2.019   1.013   2.310  0.9947 -0.3715 -0.7822
 2262TIP3   OH228344   1.060   0.267   0.988 -0.0571 -0.0096  0.1810
 2262TIP3    H128345   1.149   0.257   0.954  0.2759  0.8965  0.7635
 2262TIP3    H228346   1.025   0.343   0.942 -0.1044  0.3588  0.8215
 2263TIP3   OH228347   2.725   0.255   0.040 -0.2181 -0.1394 -0.2058
 2263TIP3    H128348   2.664   0.236  -0.031 -0.6266  1.3355 -0.2867
 2263TIP3    H228349   2.676   0.234   0.120 -0.2009 -0.6190 -0.3205
 2264TIP3   OH228350   4.226   4.427   0.791 -0.2715 -0.1240  0.2205
 2264TIP3    H128351   4.137   4.427   0.754 -0.1199  0.6541 -0.1504
 2264TIP3    H228352   4.271   4.499   0.747  0.3476 -0.0821  0.9017
 2265TIP3   OH228353   5.044   2.373   1.021 -0.2121  0.8365 -0.2616
 2265TIP3    H128354   5.041   2.428   1.099  0.6620  0.6179 -0.0559
 2265TIP3    H228355   5.068   2.433   0.950 -1.0307  1.0397 -0.3744
 2266TIP3   OH228356   4.238   1.300   1.803 -0.5148 -0.6112  0.4559
 2266TIP3    H128357   4.159   1.340   1.765  0.4298  1.2635  0.3470
 2266TIP3    H228358   4.235   1.326   1.895  1.5580  2.4060 -0.1597
 2267TIP3   OH228359   4.285   1.756   1.740  0.2492  1.0141 -0.3088
 2267TIP3    H128360   4.214   1.718   1.687  1.8944 -0.2853 -1.7153
 2267TIP3    H228361   4.243   1.825   1.791 -1.9568  0.4979 -1.3111
 2268TIP3   OH228362   5.389   1.534   1.399  0.0701  0.4266  0.0150
 2268TIP3    H128363   5.470   1.500   1.362 -0.3913  1.0337 -1.6444
 2268TIP3    H228364   5.363   1.604   1.339 -1.9976 -0.1537  0.1706
 2269TIP3   OH228365   6.518   0.916   0.315  0.6378  0.4077 -0.1204
 2269TIP3    H128366   6.542   1.000   0.354  0.9859  0.2389  0.0288
 2269TIP3    H228367   6.432   0.896   0.352  0.2817  0.9882 -0.6185
 2270TIP3   OH228368   0.072   4.039   1.823  0.1553 -0.0791 -0.3216
 2270TIP3    H128369   0.108   3.950   1.826 -0.4069 -0.3027  0.0338
 2270TIP3    H228370  -0.014   4.028   1.781 -1.2876 -0.2166  2.4350
 2271TIP3   OH228371   2.125   1.093   8.449 -0.1536 -0.5687  0.1329
 2271TIP3    H128372   2.194   1.055   8.394  0.0049  0.5593 -0.4763
 2271TIP3    H228373   2.124   1.038   8.527  1.1280 -0.8834 -0.0510
 2272TIP3   OH228374   0.110   4.124   1.394 -0.3012  0.1089 -0.2745
 2272TIP3    H128375   0.087   4.120   1.301 -0.6299 -0.2271 -0.1819
 2272TIP3    H228376   0.065   4.048   1.433 -1.0399  0.8445  0.3511
 2273TIP3   OH228377   0.679   1.313   0.134  0.4692  0.8843  0.1093
 2273TIP3    H128378   0.734   1.252   0.182  1.1039  1.1648 -0.2473
 2273TIP3    H228379   0.725   1.397   0.139  1.0945  0.7217 -1.8059
 2274TIP3   OH228380   4.990   1.342   1.860 -0.0023 -0.0881 -0.2167
 2274TIP3    H128381   4.946   1.278   1.914  0.4714 -1.4731 -1.4052
 2274TIP3    H228382   5.082   1.337   1.886 -0.0583  0.6376  0.1658
 2275TIP3   OH228383   5.962   5.315   8.337  0.0377 -0.2835 -0.1324
 2275TIP3    H128384   6.015   5.342   8.262  1.4807  0.6409  1.1642
 2275TIP3    H228385   5.945   5.222   8.322  0.9172 -0.2854 -1.2340
 2276TIP3   OH228386   1.058   5.341   8.066  0.0457  0.1893  0.1343
 2276TIP3    H128387   1.025   5.357   8.154  1.2831 -0.3344  0.7105
 2276TIP3    H228388   1.126   5.407   8.053 -0.1473  0.2818 -0.4438
 2277TIP3   OH228389   5.841   5.871   1.397 -0.3697  0.7049 -0.1402
 2277TIP3    H128390   5.841   5.837   1.308 -0.0387  0.6060 -0.1051
 2277TIP3    H228391   5.932   5.863   1.426 -0.8473 -1.3810  1.0138
 2278TIP3   OH228392   3.545   6.799   1.158  0.2222  0.1493  0.6503
 2278TIP3    H128393   3.529   6.789   1.065 -1.3463 -0.3130  0.9417
 2278TIP3    H228394   3.516   6.888   1.178  1.0826  0.4502  0.6146
 2279TIP3   OH228395   2.022   3.647   1.231  0.0661 -0.3521 -0.3438
 2279TIP3    H128396   2.098   3.661   1.288  0.2904  0.9082 -0.9279
 2279TIP3    H228397   2.060   3.617   1.148 -0.1353 -0.3986 -0.4202
 2280TIP3   OH228398   1.108   4.759   0.632  0.2764  0.0490 -0.4219
 2280TIP3    H128399   1.134   4.760   0.724  0.4571 -2.1360 -0.4011
 2280TIP3    H228400   1.059   4.840   0.620 -0.8829 -0.2250  1.9387
 2281TIP3   OH228401   0.925   5.879   3.077 -0.4339 -0.3164 -0.3595
 2281TIP3    H128402   0.965   5.902   2.993  2.3008  1.5091  1.2887
 2281TIP3    H228403   0.957   5.791   3.096 -1.0838 -0.7464 -1.1908
 2282TIP3   OH228404   4.970   2.477   0.463  0.0329 -0.1891 -0.3032
 2282TIP3    H128405   4.971   2.561   0.508 -0.3256 -0.0545 -0.5382
 2282TIP3    H228406   5.053   2.436   0.487 -0.0084  0.0183  0.2117
 2283TIP3   OH228407   6.517   1.355   8.748  0.2926 -0.3773  0.3077
 2283TIP3    H128408   6.605   1.357   8.709 -0.4254  1.3700 -1.4094
 2283TIP3    H228409   6.520   1.420   8.819  0.2177  0.2519 -0.2491
 2284TIP3   OH228410   6.305   0.050   7.814  0.2765  0.4844 -0.3827
 2284TIP3    H128411   6.342  -0.024   7.862 -0.3318  0.5349  0.1707
 2284TIP3    H228412   6.296   0.018   7.724 -0.8590 -0.4439  0.0441
 2285TIP3   OH228413   0.771   5.023   1.421  0.3169  0.4347  0.1990
 2285TIP3    H128414   0.727   5.056   1.343  1.0858 -0.8433 -0.8075
 2285TIP3    H228415   0.857   5.066   1.421  2.1562 -2.8257 -2.2478
 2286TIP3   OH228416   1.680   2.290   3.412  0.2578 -0.2441  0.3342
 2286TIP3    H128417   1.612   2.356   3.399 -1.5480 -2.3300 -1.4937
 2286TIP3    H228418   1.744   2.307   3.342 -0.0387 -0.2209  0.0672
 2287TIP3   OH228419   5.586   6.457   7.457 -0.0751  0.2435  0.1735
 2287TIP3    H128420   5.603   6.504   7.539  0.1999  0.1004  0.1997
 2287TIP3    H228421   5.523   6.389   7.480 -0.5737  0.6788  0.1087
 2288TIP3   OH228422   3.416   0.250   7.911  0.3367  0.5028 -0.4353
 2288TIP3    H128423   3.386   0.224   7.999  0.8719  2.1914  0.2984
 2288TIP3    H228424   3.361   0.199   7.851 -2.0582  1.3580  0.8679
 2289TIP3   OH228425   5.351   6.185   0.249  0.2711 -0.6110  0.1637
 2289TIP3    H128426   5.338   6.093   0.271 -3.1677 -0.1479  0.5807
 2289TIP3    H228427   5.270   6.212   0.206  0.0708  2.8182  2.2595
 2290TIP3   OH228428   2.252   1.001   1.588 -0.0940 -0.1859  0.0863
 2290TIP3    H128429   2.203   0.963   1.660 -0.7730 -0.9281 -0.7478
 2290TIP3    H228430   2.210   1.086   1.572 -0.5911 -0.4628 -0.0912
 2291TIP3   OH228431   4.487   2.164   0.126 -0.6628  0.4935 -0.0518
 2291TIP3    H128432   4.422   2.226   0.092 -0.9957  1.7428  2.5789
 2291TIP3    H228433   4.555   2.218   0.164 -0.4510 -0.7443  1.4443
 2292TIP3   OH228434   6.208   1.719   2.366  0.0667 -0.3817 -0.1548
 2292TIP3    H128435   6.227   1.785   2.432  0.5685  0.6165 -1.2609
 2292TIP3    H228436   6.113   1.704   2.374 -0.1351  0.8201 -0.1937
 2293TIP3   OH228437   0.123   4.929   1.093 -0.1067 -0.0701 -0.0386
 2293TIP3    H128438   0.048   4.903   1.039  0.0101  1.4356 -0.9819
 2293TIP3    H228439   0.095   5.011   1.134  1.3824  1.1015 -1.2570
 2294TIP3   OH228440   3.980   2.336   0.229  0.3219  0.2988  0.5814
 2294TIP3    H128441   3.910   2.361   0.170  0.8271  0.1109 -0.1138
 2294TIP3    H228442   3.958   2.248   0.258 -0.2729  0.6447  1.2220
 2295TIP3   OH228443   2.709   3.279   0.483 -0.1280 -0.3620 -0.2456
 2295TIP3    H128444   2.742   3.213   0.544 -0.5332 -1.0677 -0.7755
 2295TIP3    H228445   2.688   3.354   0.538  0.4301 -0.6426  0.3569
 2296TIP3   OH228446   5.582   1.443   0.658  0.2256  0.0012 -0.6610
 2296TIP3    H128447   5.666   1.477   0.687  0.1519 -1.9386  2.2024
 2296TIP3    H228448   5.523   1.519   0.659  1.1466  0.7329  0.7374
 2297TIP3   OH228449   0.593   4.813   7.609  0.4889  0.0368 -0.3607
 2297TIP3    H128450   0.546   4.878   7.662  1.9801 -0.3753  1.5890
 2297TIP3    H228451   0.629   4.864   7.537  2.0514  1.5950  1.3999
 2298TIP3   OH228452   3.316   4.874   7.560 -0.4543 -0.3463  0.4151
 2298TIP3    H128453   3.228   4.863   7.597 -0.5834 -0.9041 -0.0312
 2298TIP3    H228454   3.301   4.914   7.475 -0.4215 -1.8834 -0.3482
 2299TIP3   OH228455   4.655   3.990   8.590 -0.0231  0.3319  0.1282
 2299TIP3    H128456   4.560   3.975   8.586 -0.1862  0.7438  1.7864
 2299TIP3    H228457   4.683   3.989   8.498 -1.4117 -1.0924 -0.3307
 2300TIP3   OH228458   5.419   1.287   7.242 -0.3001 -0.6473  0.4531
 2300TIP3    H128459   5.426   1.330   7.156 -0.2726 -0.0990  0.7264
 2300TIP3    H228460   5.326   1.265   7.249 -0.8588  1.6781  1.3875
 2301TIP3   OH228461   1.618   0.709   7.278  0.5229  0.7447  0.0470
 2301TIP3    H128462   1.669   0.714   7.197  0.6962  0.1880  0.1120
 2301TIP3    H228463   1.682   0.683   7.345  0.4109  1.3438  0.3962
 2302TIP3   OH228464   2.549   1.561   1.496  0.2007  0.2128  0.4664
 2302TIP3    H128465   2.507   1.602   1.572  0.4837  0.7982  0.3136
 2302TIP3    H228466   2.612   1.499   1.535  0.8854  1.0484  0.7383
 2303TIP3   OH228467   3.047   4.409   0.180 -0.3843  0.3715 -0.2052
 2303TIP3    H128468   3.081   4.319   0.183  1.9051  1.1820  1.0798
 2303TIP3    H228469   3.008   4.422   0.267 -1.5859  0.3452 -0.7227
 2304TIP3   OH228470   4.702   6.501   2.736  0.0552  0.5610  0.1919
 2304TIP3    H128471   4.747   6.419   2.720 -1.2433 -0.3958  1.1682
 2304TIP3    H228472   4.650   6.516   2.657  0.2911  0.4472  0.0153
 2305TIP3   OH228473   1.080   4.004   0.125  0.3370  0.2833  0.4667
 2305TIP3    H128474   1.003   3.992   0.070  0.6176  0.6104 -0.0036
 2305TIP3    H228475   1.045   4.009   0.214  0.0784 -2.4719  0.5835
 2306TIP3   OH228476   5.192   4.600   8.738 -0.2943 -0.0097  0.3425
 2306TIP3    H128477   5.102   4.572   8.754 -0.5982  0.6785 -0.1470
 2306TIP3    H228478   5.229   4.531   8.682 -0.5841 -0.1764  0.3555
 2307TIP3   OH228479   6.367   1.768   2.144  0.8848  0.9294 -0.1195
 2307TIP3    H128480   6.305   1.802   2.080 -0.2896  0.5214  0.7565
 2307TIP3    H228481   6.312   1.738   2.217  1.9910 -0.9456  0.0186
 2308TIP3   OH228482   1.391   6.297   0.225 -0.4235 -0.4221 -0.2179
 2308TIP3    H128483   1.364   6.388   0.209  0.2012 -0.1012  0.5034
 2308TIP3    H228484   1.426   6.298   0.314  2.5139 -0.6588 -1.2751
 2309TIP3   OH228485   3.296   6.775   0.400 -0.3967 -0.2161 -0.0146
 2309TIP3    H128486   3.229   6.780   0.467 -0.5567 -0.0185 -0.1868
 2309TIP3    H228487   3.358   6.710   0.432 -1.4290 -1.5021 -0.5285
 2310TIP3   OH228488   1.592   1.949   1.640 -1.2183  0.0136  0.4023
 2310TIP3    H128489   1.614   2.032   1.599  0.7634 -0.4198  0.4931
 2310TIP3    H228490   1.548   1.973   1.721  0.7560  1.0598  1.2247
 2311TIP3   OH228491   4.869   1.162   8.611  0.0087  0.0454 -0.2950
 2311TIP3    H128492   4.833   1.153   8.523 -1.0294 -1.0817  0.2298
 2311TIP3    H228493   4.816   1.104   8.666  0.6258  0.7315  1.0865
 2312TIP3   OH228494   3.477   2.415   1.331  0.4282  0.1298  0.4035
 2312TIP3    H128495   3.485   2.477   1.258 -0.1600  0.1935  0.3836
 2312TIP3    H228496   3.398   2.444   1.378 -0.8771 -1.6200 -0.6106
 2313TIP3   OH228497   5.831   0.700   8.546 -0.0513 -0.0414 -0.6828
 2313TIP3    H128498   5.833   0.664   8.458 -1.6667 -0.8431 -0.4223
 2313TIP3    H228499   5.823   0.624   8.603 -0.5237  0.5501  0.0666
 2314TIP3   OH228500   4.446   5.169   0.368 -0.6985 -0.0509  0.1014
 2314TIP3    H128501   4.420   5.080   0.343  1.0655 -0.6595  0.2981
 2314TIP3    H228502   4.453   5.216   0.285  2.7302 -1.3871 -0.5083
 2315TIP3   OH228503   6.318   0.053   2.250 -0.1399 -0.6130  0.6650
 2315TIP3    H128504   6.297   0.077   2.341  1.7807  1.5529  0.6490
 2315TIP3    H228505   6.293   0.130   2.199 -1.2056 -1.8101 -0.6928
 2316TIP3   OH228506   0.255   0.956   7.133  0.0770  0.2488  0.2873
 2316TIP3    H128507   0.350   0.942   7.126 -0.1253 -0.4890 -1.8084
 2316TIP3    H228508   0.217   0.870   7.113 -1.0504  1.0280 -1.1018
 2317TIP3   OH228509   0.561   1.071   6.668 -1.0472 -0.4325  0.6033
 2317TIP3    H128510   0.566   1.009   6.595 -0.6248  0.5527 -0.2174
 2317TIP3    H228511   0.625   1.039   6.731 -0.4862 -0.5638 -0.0277
 2318TIP3   OH228512   4.562   2.973   8.002 -0.1130 -0.1788  0.4554
 2318TIP3    H128513   4.519   3.039   8.057 -0.8574 -0.1309 -0.1626
 2318TIP3    H228514   4.638   3.018   7.966 -1.4608  0.8990 -1.2211
 2319TIP3   OH228515   0.925   1.760   3.396  0.5896  0.5325  0.0037
 2319TIP3    H128516   0.875   1.838   3.374 -0.5627  0.2146  1.3400
 2319TIP3    H228517   1.012   1.792   3.417  0.6249  1.2449 -1.1171
 2320TIP3   OH228518   6.723   5.803   0.997 -0.1362 -0.1704  0.2625
 2320TIP3    H128519   6.798   5.823   1.054 -0.9841  2.5243  0.5703
 2320TIP3    H228520   6.648   5.801   1.055 -1.0557  2.8525 -0.6570
 2321TIP3   OH228521   2.738   1.577   7.401  0.1458  0.1332 -0.4448
 2321TIP3    H128522   2.793   1.638   7.352 -0.7069  1.3301  0.0658
 2321TIP3    H228523   2.794   1.500   7.414  0.9647  0.4715 -1.7821
 2322TIP3   OH228524   3.925   2.043   1.984  0.0066  0.3999  0.2858
 2322TIP3    H128525   3.921   2.012   2.074  1.3356 -0.3481  0.1103
 2322TIP3    H228526   3.834   2.062   1.961 -0.6853 -1.8331  0.9537
 2323TIP3   OH228527   6.765   4.676   0.246 -0.6527 -0.0037  0.2309
 2323TIP3    H128528   6.801   4.642   0.328 -0.2376  0.8990  0.4341
 2323TIP3    H228529   6.805   4.621   0.178 -0.2086 -0.1045  0.5672
 2324TIP3   OH228530   2.524   5.206   8.603 -0.1440  0.2009 -0.2468
 2324TIP3    H128531   2.567   5.254   8.673 -1.8345 -0.1556  1.1097
 2324TIP3    H228532   2.578   5.128   8.590  0.4218  0.4862  0.3732
 2325TIP3   OH228533   2.705   4.105   6.622 -0.3321  0.1591 -0.1608
 2325TIP3    H128534   2.755   4.186   6.636 -0.8737  0.4765 -0.0133
 2325TIP3    H228535   2.613   4.132   6.628 -0.5178 -0.5526  0.3877
 2326TIP3   OH228536   1.969   0.540   0.704  0.8051 -0.4698  0.1458
 2326TIP3    H128537   2.014   0.489   0.772  1.4130  2.2816  2.0154
 2326TIP3    H228538   2.019   0.622   0.699 -1.7027  1.1298 -0.5713
 2327TIP3   OH228539   3.289   4.389   1.575  0.6032 -0.3907  0.3546
 2327TIP3    H128540   3.371   4.339   1.574 -0.0529 -1.4885  0.7547
 2327TIP3    H228541   3.275   4.410   1.667  1.1883  1.0980  0.1326
 2328TIP3   OH228542   5.948   0.166   7.560  0.4824 -0.3547 -0.5442
 2328TIP3    H128543   5.981   0.108   7.492 -0.0479  0.0586 -1.1717
 2328TIP3    H228544   5.978   0.127   7.642  0.7698 -1.0932 -0.9908
 2329TIP3   OH228545   4.656   3.528   2.203  0.4216 -0.0278 -0.0677
 2329TIP3    H128546   4.662   3.615   2.243  1.9214 -0.5543  0.9681
 2329TIP3    H228547   4.583   3.486   2.248  0.3982  0.3233  0.2297
 2330TIP3   OH228548   5.342   2.778   2.771 -0.6250 -0.1507  0.0916
 2330TIP3    H128549   5.420   2.724   2.765 -1.3759 -1.2258 -0.4152
 2330TIP3    H228550   5.294   2.744   2.847 -0.2048  1.0609  0.9197
 2331TIP3   OH228551   2.928   6.288   8.580 -1.0488  0.7375  0.1740
 2331TIP3    H128552   2.878   6.237   8.643 -0.4812  0.3378  0.3067
 2331TIP3    H228553   3.011   6.240   8.570 -1.1630  0.7537 -0.9375
 2332TIP3   OH228554   0.158   5.713   8.705 -0.1040  0.3818 -0.0411
 2332TIP3    H128555   0.245   5.679   8.725 -0.1004 -0.2101 -1.0166
 2332TIP3    H228556   0.103   5.681   8.777  0.2737 -0.0976  0.0357
 2333TIP3   OH228557   2.301   2.851   7.386  1.1659 -0.4329  0.5650
 2333TIP3    H128558   2.330   2.942   7.400  2.1930 -0.8759  1.5061
 2333TIP3    H228559   2.369   2.813   7.331 -0.0863 -0.2210 -1.2146
 2334TIP3   OH228560   3.034   4.373   1.387 -0.2131  0.1470 -0.0157
 2334TIP3    H128561   3.124   4.381   1.419 -0.2270  1.9214 -0.3239
 2334TIP3    H228562   3.028   4.283   1.354  2.7468  1.0227 -3.6700
 2335TIP3   OH228563   3.973   3.272   1.089  0.3116  0.2060 -0.1369
 2335TIP3    H128564   3.893   3.220   1.076  2.1449 -2.7842 -0.5783
 2335TIP3    H228565   3.943   3.353   1.129 -3.0609 -0.2136 -1.5118
 2336TIP3   OH228566   3.946   0.643   1.530 -0.0440  0.5700  0.0834
 2336TIP3    H128567   3.970   0.633   1.622 -1.0990  1.6101  0.5015
 2336TIP3    H228568   3.904   0.729   1.525 -2.9537 -0.7765 -0.7030
 2337TIP3   OH228569   0.665   5.777   0.275  0.7225  0.2252  0.0703
 2337TIP3    H128570   0.690   5.838   0.206 -0.0166 -0.9721 -1.3162
 2337TIP3    H228571   0.720   5.700   0.260  0.6184 -0.0235  0.8950
 2338TIP3   OH228572   5.946   2.324   1.362  0.2720 -0.0467 -0.5122
 2338TIP3    H128573   6.017   2.332   1.426  0.0175 -0.6749 -0.1484
 2338TIP3    H228574   5.876   2.379   1.396  0.0197 -0.6259 -0.0826
 2339TIP3   OH228575   4.534   5.498   1.920 -0.3733 -0.1572  0.3372
 2339TIP3    H128576   4.599   5.563   1.893 -1.5470  1.4085  1.1468
 2339TIP3    H228577   4.539   5.498   2.016 -0.7291 -0.9268  0.3622
 2340TIP3   OH228578   4.265   3.647   8.553  0.0216 -0.2106  0.0164
 2340TIP3    H128579   4.258   3.572   8.493 -0.8706 -0.5469  0.5189
 2340TIP3    H228580   4.181   3.649   8.598 -0.3903  1.7343 -0.7175
 2341TIP3   OH228581   5.499   1.150   0.282  0.4339 -0.1953 -0.1442
 2341TIP3    H128582   5.421   1.203   0.274  0.6613  0.2330  0.4334
 2341TIP3    H228583   5.560   1.186   0.217  0.0877 -0.6529 -0.7275
 2342TIP3   OH228584   2.103   0.818   7.632 -0.0934 -0.6248  0.1368
 2342TIP3    H128585   2.158   0.803   7.710 -0.0972  0.1349  0.2928
 2342TIP3    H228586   2.109   0.736   7.583  0.3103 -0.9395  0.6919
 2343TIP3   OH228587   2.387   2.688   7.792  0.0089 -0.1347  0.0408
 2343TIP3    H128588   2.300   2.714   7.823 -0.6757 -0.9061 -1.1718
 2343TIP3    H228589   2.422   2.767   7.750 -0.0824  0.1893  0.5697
 2344TIP3   OH228590   6.631   4.565   1.158  0.5234 -0.2737  0.1885
 2344TIP3    H128591   6.537   4.556   1.146  0.5744 -0.3245 -0.1912
 2344TIP3    H228592   6.656   4.491   1.213  0.7918 -2.0187 -2.1305
 2345TIP3   OH228593   4.924   6.274   2.034  0.6052  0.2272  0.3358
 2345TIP3    H128594   4.847   6.331   2.036 -0.3464 -0.9591 -0.6955
 2345TIP3    H228595   4.892   6.191   1.999  1.9751 -0.9328  1.6719
 2346TIP3   OH228596   0.984   5.509   7.193  0.5143 -0.2226 -0.0711
 2346TIP3    H128597   0.986   5.416   7.169  1.1526 -0.6738  1.6042
 2346TIP3    H228598   0.935   5.551   7.122  0.5293 -1.7737 -1.0483
 2347TIP3   OH228599   1.716   2.593   1.434 -0.6184  0.2823  0.0603
 2347TIP3    H128600   1.736   2.685   1.455  1.3236 -0.1237  0.2289
 2347TIP3    H228601   1.737   2.545   1.514 -0.6222 -0.4215 -0.3507
 2348TIP3   OH228602   2.927   6.102   2.320 -0.0814  0.1378 -0.7741
 2348TIP3    H128603   2.849   6.156   2.329  0.3411  0.7733 -0.9054
 2348TIP3    H228604   2.997   6.153   2.362 -0.1135 -1.2655  1.1166
 2349TIP3   OH228605   1.248   2.552   7.612 -0.2946 -0.3826  0.0740
 2349TIP3    H128606   1.243   2.514   7.700  4.8991 -1.4934  0.2612
 2349TIP3    H228607   1.247   2.476   7.554 -3.4683  0.3367 -0.9626
 2350TIP3   OH228608   0.761   1.130   7.055 -0.2021  0.2764 -0.2885
 2350TIP3    H128609   0.739   1.223   7.053 -2.2674 -0.1422  0.2073
 2350TIP3    H228610   0.746   1.099   6.966 -2.2596 -0.0803  0.1189
 2351TIP3   OH228611   2.820   6.310   0.695  0.4327  0.1398  0.5476
 2351TIP3    H128612   2.727   6.296   0.713  0.1603  0.2889 -0.6611
 2351TIP3    H228613   2.826   6.401   0.666  0.7413 -0.2400 -0.6366
 2352TIP3   OH228614   5.891   0.675   8.240  0.7017  0.2961  0.3235
 2352TIP3    H128615   5.966   0.615   8.241  0.7963  0.3988  1.6491
 2352TIP3    H228616   5.839   0.646   8.165  0.7934 -1.4047  0.8674
 2353TIP3   OH228617   1.484   2.369   1.619 -0.2313  0.8072 -0.0180
 2353TIP3    H128618   1.470   2.414   1.703 -2.2036  2.4517 -1.1502
 2353TIP3    H228619   1.428   2.292   1.624  0.7034  0.1516  0.6791
 2354TIP3   OH228620   6.371   4.071   0.763  0.2216 -0.2842  0.1560
 2354TIP3    H128621   6.371   4.017   0.842  0.6659  0.1265  0.4428
 2354TIP3    H228622   6.326   4.018   0.697 -0.9907 -0.2559  0.9409
 2355TIP3   OH228623   2.663   5.999   1.569 -0.6346 -0.4037 -0.0790
 2355TIP3    H128624   2.739   5.969   1.618 -1.5395 -2.2382  0.2813
 2355TIP3    H228625   2.594   5.936   1.590 -2.3921  1.4113 -0.0918
 2356TIP3   OH228626   2.069   2.118   1.098  0.4084  0.1124  1.2051
 2356TIP3    H128627   2.145   2.158   1.141  1.0546 -1.4620  1.6281
 2356TIP3    H228628   2.092   2.025   1.091 -0.7904 -0.1183 -0.1969
 2357TIP3   OH228629   3.538   2.875   8.380 -0.5117  0.1369  0.6223
 2357TIP3    H128630   3.563   2.857   8.471  1.2617 -1.6888 -0.1710
 2357TIP3    H228631   3.617   2.909   8.339 -1.3093  1.0035 -0.2734
 2358TIP3   OH228632   1.198   4.548   1.565 -0.1725 -0.6214 -0.0127
 2358TIP3    H128633   1.293   4.539   1.567 -0.3281 -3.3019  2.1738
 2358TIP3    H228634   1.166   4.458   1.556 -2.4072 -0.2306  2.6030
 2359TIP3   OH228635   5.344   3.171   1.107  0.3143 -0.4049  0.0449
 2359TIP3    H128636   5.402   3.246   1.090  0.5056 -0.6643 -0.4698
 2359TIP3    H228637   5.351   3.156   1.201  2.0719 -1.2210 -0.1736
 2360TIP3   OH228638   1.805   1.042   0.630  0.4586 -0.2408  0.1307
 2360TIP3    H128639   1.728   1.098   0.641 -0.0521 -0.9992  0.4408
 2360TIP3    H228640   1.845   1.040   0.717  0.8532  0.1662 -0.0330
 2361TIP3   OH228641   5.785   3.482   7.897 -0.5797 -0.1465 -0.5675
 2361TIP3    H128642   5.846   3.441   7.959 -0.0564  0.1526 -0.8694
 2361TIP3    H228643   5.792   3.576   7.915 -1.9983 -0.1859  0.3238
 2362TIP3   OH228644   1.278   2.638   0.730 -0.0133  0.7284  0.1524
 2362TIP3    H128645   1.250   2.723   0.765 -1.6788  0.3028 -0.0536
 2362TIP3    H228646   1.370   2.651   0.707 -0.5726  2.9238 -1.1888
 2363TIP3   OH228647   3.422   6.768   0.678 -0.3744  0.3335 -0.3425
 2363TIP3    H128648   3.405   6.682   0.640  0.4100 -1.2492  2.6247
 2363TIP3    H228649   3.337   6.812   0.676 -1.3745 -1.4901  0.3390
 2364TIP3   OH228650   5.024   5.840   2.776  0.4237  0.0835  0.6077
 2364TIP3    H128651   5.084   5.780   2.733  0.4006  0.7725 -0.4176
 2364TIP3    H228652   4.941   5.794   2.778  0.4724 -0.0284  0.0844
 2365TIP3   OH228653   2.996   6.766   1.699 -0.0540 -0.4042  0.3557
 2365TIP3    H128654   3.036   6.840   1.743 -1.5863  0.2524  0.6996
 2365TIP3    H228655   2.908   6.759   1.737 -0.6429 -1.1660 -1.0471
 2366TIP3   OH228656   0.266   6.091   2.913 -0.0667 -0.3042  0.1188
 2366TIP3    H128657   0.360   6.094   2.898 -0.0564 -1.1913 -0.0417
 2366TIP3    H228658   0.236   6.013   2.866 -0.9173  0.0891 -0.0211
 2367TIP3   OH228659   4.968   5.370   0.232 -0.3156  0.0028  0.5188
 2367TIP3    H128660   4.938   5.281   0.212 -1.1737  0.5380 -0.7337
 2367TIP3    H228661   4.913   5.399   0.304 -1.8047  0.3879 -0.7076
 2368TIP3   OH228662   0.640   4.325   8.085  0.2954  0.2843  0.1759
 2368TIP3    H128663   0.701   4.347   8.014  1.1062 -3.4824 -0.5083
 2368TIP3    H228664   0.553   4.338   8.047  0.7289 -0.3690 -1.0996
 2369TIP3   OH228665   2.160   0.641   7.163  0.3854  0.5131  0.3817
 2369TIP3    H128666   2.191   0.577   7.098 -1.0924  0.0871  0.0548
 2369TIP3    H228667   2.193   0.725   7.131  0.5361  0.1783 -0.3718
 2370TIP3   OH228668   6.064   0.463   2.380 -0.2205 -0.2117  0.0061
 2370TIP3    H128669   6.150   0.502   2.367 -0.4097  0.1883 -0.0376
 2370TIP3    H228670   6.003   0.523   2.338 -0.2870 -1.9629 -2.6641
 2371TIP3   OH228671   4.173   1.644   1.311 -0.2721 -0.1502  0.6850
 2371TIP3    H128672   4.206   1.728   1.279 -0.2394 -0.3906  0.0647
 2371TIP3    H228673   4.249   1.602   1.352 -0.3292  0.1915  1.1362
 2372TIP3   OH228674   2.892   3.368   7.086 -0.3446 -0.0398  0.2973
 2372TIP3    H128675   2.886   3.416   7.168 -0.2368  1.1795 -0.3859
 2372TIP3    H228676   2.970   3.403   7.043  1.2673 -2.6275  0.8797
 2373TIP3   OH228677   5.990   6.740   8.234  0.1438 -0.2869 -0.0469
 2373TIP3    H128678   5.895   6.739   8.220 -0.1327  0.4783  1.5573
 2373TIP3    H228679   6.022   6.808   8.175  0.0362 -1.9483 -2.1692
 2374TIP3   OH228680   1.031   3.089   8.426  0.0914 -0.1829 -0.5278
 2374TIP3    H128681   1.034   3.149   8.351  2.8497  1.8268  0.9950
 2374TIP3    H228682   1.052   3.003   8.389 -0.7885  0.3290 -2.3453
 2375TIP3   OH228683   5.508   5.127   1.480  0.6472  0.0675  0.0494
 2375TIP3    H128684   5.574   5.077   1.528  1.0289  1.0702  0.5934
 2375TIP3    H228685   5.438   5.063   1.464  0.7762 -0.4692  1.3934
 2376TIP3   OH228686   2.340   5.131   1.401  0.4600  0.3200 -0.2106
 2376TIP3    H128687   2.361   5.224   1.407 -0.4179  0.6371 -1.6031
 2376TIP3    H228688   2.297   5.111   1.484  0.0609  1.3168 -0.1648
 2377TIP3   OH228689   2.027   1.441   8.211 -0.6989  0.1848 -0.6907
 2377TIP3    H128690   2.019   1.516   8.270 -1.6720 -0.5374  0.1481
 2377TIP3    H228691   2.104   1.459   8.158  0.9050  0.3691  1.5754
 2378TIP3   OH228692   4.971   3.301   2.146  0.1784 -0.4490 -0.6959
 2378TIP3    H128693   5.046   3.279   2.201 -0.2497 -1.5480 -0.5208
 2378TIP3    H228694   5.008   3.311   2.058  0.3792 -2.2677 -0.8585
 2379TIP3   OH228695   2.481   4.096   8.615 -0.1303 -0.0860  0.0155
 2379TIP3    H128696   2.497   4.173   8.670  4.0979 -1.7537  1.5336
 2379TIP3    H228697   2.412   4.048   8.660 -0.0099  0.8870  1.2989
 2380TIP3   OH228698   5.153   1.547   1.595  0.0853  0.4498 -0.4347
 2380TIP3    H128699   5.088   1.533   1.526  0.6457 -1.7235 -0.6026
 2380TIP3    H228700   5.238   1.541   1.550  0.4991 -2.2434  0.5274
 2381TIP3   OH228701   3.514   2.260   1.716  0.3539 -0.5516 -0.2662
 2381TIP3    H128702   3.453   2.203   1.669 -1.0208  0.7973 -0.1971
 2381TIP3    H228703   3.535   2.329   1.655 -0.7135  0.7057  0.7132
 2382TIP3   OH228704   5.306   1.497   2.902 -0.7450  0.0487 -0.3298
 2382TIP3    H128705   5.217   1.462   2.890 -1.6322  1.3996  1.7351
 2382TIP3    H228706   5.358   1.421   2.929 -1.4395 -0.6066 -0.7819
 2383TIP3   OH228707   2.345   6.063   0.271 -0.3100 -0.0013  0.0024
 2383TIP3    H128708   2.374   6.151   0.295  2.5602 -1.5435  2.9526
 2383TIP3    H228709   2.274   6.078   0.208 -0.6055  4.3882  1.0210
 2384TIP3   OH228710   1.725   2.409   2.482  0.3404  0.5602  0.3147
 2384TIP3    H128711   1.739   2.485   2.537 -1.4340  0.6240  0.7188
 2384TIP3    H228712   1.638   2.421   2.444 -0.8226 -2.0802  1.8195
 2385TIP3   OH228713   2.957   4.593   2.185  0.3824 -0.9712  0.4385
 2385TIP3    H128714   2.993   4.542   2.257 -0.0199  0.5743  1.8033
 2385TIP3    H228715   2.862   4.585   2.195  0.2347  1.4655  1.8618
 2386TIP3   OH228716   4.622   6.786   7.985  0.0712  0.2087 -0.1283
 2386TIP3    H128717   4.564   6.720   7.947 -0.2150  0.4986 -0.2017
 2386TIP3    H228718   4.563   6.845   8.033  0.3417  0.3046  0.0902
 2387TIP3   OH228719   6.204   5.526   7.841 -0.1871 -0.3415 -0.1790
 2387TIP3    H128720   6.151   5.601   7.868  1.0843  0.2529  0.7860
 2387TIP3    H228721   6.280   5.529   7.899 -0.3449 -2.6878  0.2313
 2388TIP3   OH228722   1.129   5.649   2.298 -0.3842  0.5916 -0.0031
 2388TIP3    H128723   1.222   5.625   2.306 -1.0977 -2.6348 -0.1671
 2388TIP3    H228724   1.101   5.667   2.388 -0.3639 -1.9738  0.5976
 2389TIP3   OH228725   6.555   3.141   2.142  0.1117 -0.5820  0.5802
 2389TIP3    H128726   6.460   3.143   2.129  0.2038 -1.5564 -0.3322
 2389TIP3    H228727   6.588   3.219   2.097 -0.2981  0.0583  1.3700
 2390TIP3   OH228728   3.412   2.494   8.122  0.0058  0.5012  0.3791
 2390TIP3    H128729   3.382   2.432   8.188  3.3649  0.4794  2.0994
 2390TIP3    H228730   3.449   2.440   8.053  0.6813  0.5429  0.7016
 2391TIP3   OH228731   3.601   5.244   1.786 -0.6319  0.5145  0.0810
 2391TIP3    H128732   3.541   5.209   1.721 -0.7865  1.7668 -0.4798
 2391TIP3    H228733   3.641   5.320   1.744  2.9695 -1.4342 -0.3700
 2392TIP3   OH228734   6.090   6.321   0.740 -0.0372 -0.1920 -0.2849
 2392TIP3    H128735   6.025   6.257   0.713 -1.3845  1.0339 -0.1014
 2392TIP3    H228736   6.066   6.344   0.830  1.4794 -0.6846  0.2849
 2393TIP3   OH228737   5.314   4.048   7.734 -0.5255 -0.3278 -0.0179
 2393TIP3    H128738   5.331   4.141   7.747 -0.6298  0.0032 -1.9863
 2393TIP3    H228739   5.271   4.042   7.649 -0.7475 -2.1656  0.1633
 2394TIP3   OH228740   2.083   5.775   2.205 -0.1564  0.0411 -0.2444
 2394TIP3    H128741   2.152   5.710   2.188 -1.0158 -0.9956  0.1163
 2394TIP3    H228742   2.002   5.724   2.205 -0.6858  0.7810  1.9626
 2395TIP3   OH228743   1.424   5.282   7.915  0.3944 -0.2198 -0.2480
 2395TIP3    H128744   1.454   5.191   7.913 -0.6403 -0.6146  0.9801
 2395TIP3    H228745   1.395   5.300   7.826  0.7515 -1.0394 -0.5387
 2396TIP3   OH228746   2.457   3.320   0.081  0.4153 -0.7206 -0.7279
 2396TIP3    H128747   2.487   3.253   0.142  0.3220 -0.2663 -0.1795
 2396TIP3    H228748   2.477   3.284  -0.006  1.5947 -0.8731 -0.4081
 2397TIP3   OH228749   6.542   3.032   8.330  0.1837  0.7383 -0.3425
 2397TIP3    H128750   6.607   3.099   8.353  0.3217  0.2605  0.6657
 2397TIP3    H228751   6.593   2.952   8.319  0.0059  0.7596 -1.4628
 2398TIP3   OH228752   3.405   0.343   0.926  0.2604 -0.0181  0.0417
 2398TIP3    H128753   3.320   0.301   0.924  0.0502  0.4014  0.0076
 2398TIP3    H228754   3.419   0.363   1.019 -0.1699  0.8850 -0.0767
 2399TIP3   OH228755   0.914   0.591   7.312  0.1818 -0.1788  0.1224
 2399TIP3    H128756   0.893   0.540   7.390 -3.2932  1.1040  0.1752
 2399TIP3    H228757   0.847   0.567   7.248  0.8514  1.4017 -1.2604
 2400TIP3   OH228758   3.600   0.384   1.477 -0.0583 -0.6106  0.4110
 2400TIP3    H128759   3.691   0.360   1.458  0.7778 -0.1538  3.2700
 2400TIP3    H228760   3.596   0.478   1.462 -0.8426 -0.9896 -2.1662
 2401TIP3   OH228761   6.147   3.154   8.607 -0.5871  0.0813 -0.0211
 2401TIP3    H128762   6.174   3.063   8.615 -1.8312 -0.2662  0.4277
 2401TIP3    H228763   6.070   3.152   8.551  0.5510  1.1065 -1.7145
 2402TIP3   OH228764   2.721   4.068   1.525  0.2899  0.0366  0.5800
 2402TIP3    H128765   2.697   4.160   1.520  2.1681  0.5472 -0.1536
 2402TIP3    H228766   2.641   4.023   1.553 -1.0883  1.6884 -0.4957
 2403TIP3   OH228767   0.164   2.558   7.814 -0.2654  0.0249 -0.1579
 2403TIP3    H128768   0.099   2.518   7.757 -1.5645 -1.7996  2.4598
 2403TIP3    H228769   0.240   2.500   7.808  0.3423  0.9010 -1.4366
 2404TIP3   OH228770   3.308   6.272   0.846 -0.8192 -0.2034 -0.4711
 2404TIP3    H128771   3.236   6.240   0.792 -1.5426 -0.3728  0.5645
 2404TIP3    H228772   3.266   6.328   0.911  0.0362  0.0240 -0.1083
 2405TIP3   OH228773   4.284   1.432   1.149  0.3183 -0.5216  0.1990
 2405TIP3    H128774   4.299   1.444   1.056  0.7026 -3.1495 -0.1536
 2405TIP3    H228775   4.189   1.425   1.158 -0.0692  3.4080  0.6222
 2406TIP3   OH228776   1.386   3.817   0.604 -0.2391  0.0171  0.1124
 2406TIP3    H128777   1.336   3.891   0.640 -0.2686  0.3441 -0.5904
 2406TIP3    H228778   1.397   3.838   0.512 -0.7434 -1.1391 -0.2268
 2407TIP3   OH228779   6.488   5.754   1.582 -0.1889  0.1887 -0.0352
 2407TIP3    H128780   6.583   5.765   1.585  0.1954 -1.9320 -1.8210
 2407TIP3    H228781   6.454   5.823   1.640  2.3681  1.4301  0.1342
 2408TIP3   OH228782   1.855   0.274   7.747 -0.1177  0.9334 -0.0065
 2408TIP3    H128783   1.906   0.330   7.688  1.6888 -1.2008 -0.6269
 2408TIP3    H228784   1.919   0.244   7.812 -1.3720  0.7263  1.1794
 2409TIP3   OH228785   1.319   4.180   7.206  0.2828  0.5533  0.5451
 2409TIP3    H128786   1.408   4.210   7.189  0.1941  1.0739  0.9635
 2409TIP3    H228787   1.266   4.224   7.139  0.4838 -0.7332 -0.5173
 2410TIP3   OH228788   1.475   1.635   7.295 -0.5913 -0.0943 -0.5250
 2410TIP3    H128789   1.387   1.616   7.261 -0.9136  0.1511  0.1496
 2410TIP3    H228790   1.534   1.612   7.223 -1.2307  0.1097 -1.1295
 2411TIP3   OH228791   1.646   0.031   2.706 -0.3590  0.3759 -0.3074
 2411TIP3    H128792   1.636   0.113   2.754 -1.0606 -0.5924  1.2829
 2411TIP3    H228793   1.579  -0.027   2.743 -0.0546 -0.8383 -1.5726
 2412TIP3   OH228794   5.427   0.011   1.378  0.1298 -0.6396  0.1948
 2412TIP3    H128795   5.375  -0.014   1.301  0.0252 -0.5890  0.2496
 2412TIP3    H228796   5.494   0.069   1.343 -0.8316  0.6231  0.3593
 2413TIP3   OH228797   1.187   5.664   7.004  0.7085 -0.0846 -1.3682
 2413TIP3    H128798   1.104   5.625   6.976  0.3314 -1.4186  1.2832
 2413TIP3    H228799   1.243   5.589   7.024  1.8228  0.7931 -1.1091
 2414TIP3   OH228800   6.382   0.188   1.566  0.0488 -0.3152  0.0041
 2414TIP3    H128801   6.377   0.143   1.482 -0.1771 -1.6344  0.6885
 2414TIP3    H228802   6.311   0.149   1.618 -0.0753  0.7602  0.6775
 2415TIP3   OH228803   0.620   3.485   7.995 -0.1859 -0.4328 -0.2550
 2415TIP3    H128804   0.582   3.542   7.928 -1.0771 -1.2089 -0.4530
 2415TIP3    H228805   0.544   3.456   8.047  0.1907 -1.6053 -0.3188
 2416TIP3   OH228806   0.552   2.171   8.773  0.5496 -0.1255  0.0205
 2416TIP3    H128807   0.626   2.193   8.716  0.9503 -1.6802 -0.1094
 2416TIP3    H228808   0.480   2.226   8.741  1.2998  0.4553 -0.7092
 2417TIP3   OH228809   2.261   1.766   2.169  0.8816 -0.3771 -0.2707
 2417TIP3    H128810   2.307   1.695   2.126  0.6911  0.1017 -1.2821
 2417TIP3    H228811   2.171   1.735   2.179  0.7781 -0.2467 -0.7897
 2418TIP3   OH228812   1.517   1.294   0.921 -0.0971  0.0131  0.0837
 2418TIP3    H128813   1.579   1.290   0.994  0.0784 -0.1775 -0.0755
 2418TIP3    H228814   1.571   1.280   0.843 -0.4355 -0.9141 -0.0057
 2419TIP3   OH228815   2.093   3.167   8.335 -0.2010  0.8167  0.2024
 2419TIP3    H128816   2.017   3.121   8.300  1.8348 -1.9270 -0.9432
 2419TIP3    H228817   2.094   3.251   8.289 -1.5285  0.1564 -1.0968
 2420TIP3   OH228818   3.739   1.460   0.780  0.3754 -0.3698  0.0459
 2420TIP3    H128819   3.695   1.376   0.792  0.1860 -0.0836  1.5837
 2420TIP3    H228820   3.668   1.522   0.763  0.2844 -0.1386  1.2043
 2421TIP3   OH228821   5.696   1.023   7.828 -0.7484 -0.1072 -0.2787
 2421TIP3    H128822   5.757   0.961   7.788 -1.8898 -1.2088 -0.3508
 2421TIP3    H228823   5.610   0.983   7.817 -1.4494  1.2073  0.2271
 2422TIP3   OH228824   2.984   5.703   0.071  0.1138  0.7185 -0.1539
 2422TIP3    H128825   3.044   5.760   0.023 -0.5693  1.2641 -0.3650
 2422TIP3    H228826   2.949   5.643   0.005  0.7350  0.1097  0.0454
 2423TIP3   OH228827   0.502   2.313   2.997  0.6042 -0.2405  0.9034
 2423TIP3    H128828   0.529   2.255   2.925  0.4026 -0.7796  1.2489
 2423TIP3    H228829   0.410   2.330   2.980  0.0346 -1.9409  2.0490
 2424TIP3   OH228830   6.335   6.008   8.215  0.7121  0.3963 -0.5926
 2424TIP3    H128831   6.265   5.943   8.205  1.4349 -0.5608  0.3560
 2424TIP3    H228832   6.290   6.086   8.249  0.0714 -0.1378 -0.1893
 2425TIP3   OH228833   0.519   2.165   0.200  0.4604  0.2650 -0.2009
 2425TIP3    H128834   0.553   2.154   0.111 -1.7416 -0.3730 -1.0466
 2425TIP3    H228835   0.516   2.076   0.236 -0.9447  0.1955 -0.4396
 2426TIP3   OH228836   0.719   3.002   2.635 -0.5567  0.3970  0.1040
 2426TIP3    H128837   0.638   3.001   2.684 -0.0009 -1.4006  1.0975
 2426TIP3    H228838   0.785   2.967   2.696  0.9821  1.8135 -0.6536
 2427TIP3   OH228839   4.602   2.002   7.659  0.1580  0.0925  0.0326
 2427TIP3    H128840   4.619   1.932   7.722 -0.5016 -0.0746  0.0311
 2427TIP3    H228841   4.662   1.984   7.586 -1.5290 -1.7828 -0.9865
 2428TIP3   OH228842   5.833   4.808   0.297 -0.5966  0.6676  0.3164
 2428TIP3    H128843   5.826   4.819   0.202  0.6839  0.6705  0.2122
 2428TIP3    H228844   5.747   4.835   0.330 -0.8669  1.2322 -0.7868
 2429TIP3   OH228845   3.274   3.377   7.074  0.4992  0.1866  0.3424
 2429TIP3    H128846   3.284   3.282   7.069  2.2635  0.3403  0.3471
 2429TIP3    H228847   3.333   3.404   7.145 -0.0878  1.2780  0.4432
 2430TIP3   OH228848   1.262   0.638   2.409 -0.2078 -0.5799  0.6537
 2430TIP3    H128849   1.284   0.625   2.316 -2.7577 -1.0473  0.0441
 2430TIP3    H228850   1.180   0.590   2.421 -0.0881 -0.2817  3.1068
 2431TIP3   OH228851   2.398   4.350   1.824 -0.3396 -0.4091 -0.4555
 2431TIP3    H128852   2.353   4.371   1.905 -0.7921 -2.0385 -0.2607
 2431TIP3    H228853   2.356   4.406   1.758 -2.3667 -1.5417 -0.2041
 2432TIP3   OH228854   0.226   1.389   0.277  0.1012  0.4546 -0.0004
 2432TIP3    H128855   0.236   1.472   0.230 -1.6592 -0.9411 -3.1155
 2432TIP3    H228856   0.255   1.409   0.366 -1.3172  4.7353 -0.2415
 2433TIP3   OH228857   1.700   0.604   8.545 -0.3874 -0.1063  0.7043
 2433TIP3    H128858   1.689   0.516   8.582 -0.1323 -0.3794  0.1400
 2433TIP3    H228859   1.614   0.645   8.556 -1.5572 -1.5840 -1.9811
 2434TIP3   OH228860   3.689   1.162   0.056  0.0780 -0.3975 -0.7455
 2434TIP3    H128861   3.678   1.148  -0.038 -2.1274 -0.0876 -0.5867
 2434TIP3    H228862   3.784   1.159   0.070  0.3807 -1.9095 -2.7363
 2435TIP3   OH228863   3.632   3.586   2.456 -0.2074  0.1007  0.3833
 2435TIP3    H128864   3.550   3.636   2.454  0.1125  0.6307  0.1550
 2435TIP3    H228865   3.619   3.516   2.392 -0.5731  0.0380  0.5239
 2436TIP3   OH228866   1.717   4.380   8.613 -0.1022 -0.0636  0.1224
 2436TIP3    H128867   1.693   4.364   8.704 -1.7196 -2.1562 -0.5763
 2436TIP3    H228868   1.809   4.356   8.607  0.4885  1.6144  1.4720
 2437TIP3   OH228869   5.418   0.102   0.369  0.1381  0.1281  0.2276
 2437TIP3    H128870   5.476   0.082   0.442 -1.0329  1.4589  1.5867
 2437TIP3    H228871   5.364   0.024   0.359 -1.5686  0.8881  2.6886
 2438TIP3   OH228872   3.078   3.737   0.334 -0.5119 -0.0829 -0.4255
 2438TIP3    H128873   3.117   3.782   0.258  0.5627 -0.4490 -0.1099
 2438TIP3    H228874   3.116   3.649   0.331  0.3436  0.2087  1.1129
 2439TIP3   OH228875   2.205   4.741   2.744  0.3289  0.1265  0.3029
 2439TIP3    H128876   2.237   4.828   2.724 -0.0968  0.0221 -0.9085
 2439TIP3    H228877   2.283   4.689   2.762  0.6340  0.5809  0.2763
 2440TIP3   OH228878   5.912   5.615   6.789 -0.4373 -0.2690  0.1120
 2440TIP3    H128879   5.884   5.527   6.812  1.4201 -1.0781 -0.5709
 2440TIP3    H228880   5.909   5.664   6.871 -0.9339 -1.1149  0.6012
 2441TIP3   OH228881   1.928   6.688   1.890  0.0117 -0.2921 -0.4816
 2441TIP3    H128882   1.858   6.754   1.886 -0.6557 -0.9321  0.2626
 2441TIP3    H228883   1.999   6.725   1.838 -1.3023 -0.1519 -2.2667
 2442TIP3   OH228884   5.940   2.122   8.374 -0.1735  0.0797 -0.2157
 2442TIP3    H128885   5.995   2.083   8.442  3.2265  1.0168 -2.1668
 2442TIP3    H228886   5.943   2.216   8.392  0.3445  0.2920 -1.2979
 2443TIP3   OH228887   3.302   0.373   7.586 -0.4354  0.3336  0.1186
 2443TIP3    H128888   3.249   0.336   7.516 -0.8431  0.1376  0.5221
 2443TIP3    H228889   3.330   0.298   7.638 -0.4542  0.5073  0.3827
 2444TIP3   OH228890   6.147   1.994   7.421 -0.5074  0.1681 -0.6549
 2444TIP3    H128891   6.075   1.931   7.424 -1.7273  1.5272 -0.1921
 2444TIP3    H228892   6.112   2.069   7.373 -0.5223  2.0975  2.1136
 2445TIP3   OH228893   0.900   6.761   2.006  0.3368 -0.5011  0.9252
 2445TIP3    H128894   0.969   6.826   2.015  0.7917 -0.8427  0.0371
 2445TIP3    H228895   0.892   6.721   2.093  2.9616 -2.1368  0.5094
 2446TIP3   OH228896   3.452   1.598   7.542  0.1801 -0.2960  0.4366
 2446TIP3    H128897   3.423   1.671   7.596  0.6668  0.0453  0.2536
 2446TIP3    H228898   3.397   1.603   7.464 -1.4633 -1.6154  1.4481
 2447TIP3   OH228899   0.938   4.145   7.642  0.3817  0.1474  0.2180
 2447TIP3    H128900   0.956   4.239   7.642 -0.2195  0.3512 -2.4211
 2447TIP3    H228901   0.850   4.138   7.605  0.5197 -1.4704  0.1232
 2448TIP3   OH228902   2.345   2.539   8.815  0.0215 -0.0611 -0.2552
 2448TIP3    H128903   2.314   2.481   8.745  0.2940  0.8963 -1.1880
 2448TIP3    H228904   2.417   2.588   8.776  0.4292  0.2261  0.8208
 2449TIP3   OH228905   5.733   6.083   1.554 -0.5753  0.1688  0.4676
 2449TIP3    H128906   5.710   6.157   1.498 -2.2646  0.4833  1.5103
 2449TIP3    H228907   5.736   6.008   1.494  0.3209  0.9186 -0.4574
 2450TIP3   OH228908   5.560   5.137   0.701 -0.2415  0.0449 -0.3582
 2450TIP3    H128909   5.598   5.067   0.752  0.9868  0.3093 -0.8625
 2450TIP3    H228910   5.519   5.195   0.765 -0.0393 -0.4042  0.1786
 2451TIP3   OH228911   1.126   2.917   0.547  0.4356 -0.5225 -0.2171
 2451TIP3    H128912   1.036   2.891   0.567  0.3188  0.0869  0.0673
 2451TIP3    H228913   1.134   2.907   0.452 -0.4492  0.9921 -0.4736
 2452TIP3   OH228914   0.324   3.264   0.833 -0.0805 -0.1382 -0.5381
 2452TIP3    H128915   0.279   3.187   0.867 -2.0004  0.2992 -1.8805
 2452TIP3    H228916   0.320   3.328   0.904 -0.9477 -0.3807 -0.3550
 2453TIP3   OH228917   3.654   2.582   8.636 -0.1176 -0.3891 -0.7124
 2453TIP3    H128918   3.704   2.528   8.575 -0.2242 -3.0419  1.3925
 2453TIP3    H228919   3.571   2.537   8.646 -1.9746  2.4165 -1.9080
 2454TIP3   OH228920   3.159   6.727   2.085 -0.1341  0.1483  0.0555
 2454TIP3    H128921   3.074   6.764   2.064 -0.8508 -0.3655  1.8112
 2454TIP3    H228922   3.163   6.730   2.181  1.0938 -1.3903  0.0933
 2455TIP3   OH228923   2.874   5.106   1.481 -0.7207 -0.1643 -0.1972
 2455TIP3    H128924   2.843   5.022   1.447  0.6428 -1.0710  0.6912
 2455TIP3    H228925   2.802   5.139   1.534 -1.4475 -0.5404 -0.9301
 2456TIP3   OH228926   1.848   1.119   1.569 -0.5411  0.2222  0.3454
 2456TIP3    H128927   1.873   1.039   1.523 -1.0786  0.1775  0.1298
 2456TIP3    H228928   1.807   1.088   1.650  1.7214  0.2966  1.6133
 2457TIP3   OH228929   0.963   5.394   8.311  0.6691 -0.1933  0.1439
 2457TIP3    H128930   0.897   5.326   8.324  3.9888 -3.3314  2.4925
 2457TIP3    H228931   0.940   5.462   8.374 -1.6902  0.1540 -0.9631
 2458TIP3   OH228932   5.847   2.244   0.632  0.0393 -0.1885 -0.0723
 2458TIP3    H128933   5.923   2.281   0.588  0.2008  1.2625  1.3531
 2458TIP3    H228934   5.774   2.300   0.607 -0.3157 -0.7551 -0.3381
 2459TIP3   OH228935   0.448   3.238   7.262 -0.2431  0.2069 -0.9077
 2459TIP3    H128936   0.388   3.282   7.322  0.2294  0.6110 -0.7318
 2459TIP3    H228937   0.407   3.152   7.247 -0.5741  0.2581 -0.3376
 2460TIP3   OH228938   1.339   6.769   3.039 -0.0771  0.0323  0.1876
 2460TIP3    H128939   1.403   6.743   3.105  0.4786  0.0675 -0.3264
 2460TIP3    H228940   1.255   6.738   3.074  0.3356 -0.8499  0.4391
 2461TIP3   OH228941   2.668   5.879   0.452  0.4306 -0.3080  0.0639
 2461TIP3    H128942   2.631   5.801   0.410  0.8543 -0.9471  0.8444
 2461TIP3    H228943   2.663   5.860   0.546 -1.7901  1.6473  0.4525
 2462TIP3   OH228944   4.474   3.764   8.414 -0.8543 -0.0048  0.4454
 2462TIP3    H128945   4.438   3.787   8.328 -1.3742 -0.0935  0.6362
 2462TIP3    H228946   4.398   3.737   8.465 -0.5340 -0.0238  0.9127
 2463TIP3   OH228947   2.643   0.711   8.420  0.3232  0.5312  0.5286
 2463TIP3    H128948   2.679   0.794   8.389  2.8373 -0.2195  1.1919
 2463TIP3    H228949   2.715   0.671   8.469 -1.1281 -1.6181  1.0331
 2464TIP3   OH228950   2.600   1.416   1.252 -0.2946  0.6611 -0.1907
 2464TIP3    H128951   2.548   1.446   1.327  0.0957  3.5689 -0.9764
 2464TIP3    H228952   2.686   1.455   1.266  0.8983 -1.7610 -0.3585
 2465TIP3   OH228953   2.636   5.662   0.671  0.0941 -0.8520 -0.4082
 2465TIP3    H128954   2.606   5.603   0.740 -0.4010  0.0756  0.1950
 2465TIP3    H228955   2.719   5.697   0.704 -0.8549  0.7261  0.4461
 2466TIP3   OH228956   1.701   3.075   1.997 -0.3906 -0.7169  0.0122
 2466TIP3    H128957   1.738   3.150   1.950 -0.3930 -1.3980 -1.1099
 2466TIP3    H228958   1.753   3.070   2.077 -1.0807  1.1047  0.6239
 2467TIP3   OH228959   5.439   4.903   8.362  0.0100  0.2779 -0.0897
 2467TIP3    H128960   5.363   4.848   8.384 -0.4479  0.0436 -1.9976
 2467TIP3    H228961   5.484   4.854   8.293  2.1420  0.2609  1.2320
 2468TIP3   OH228962   6.644   1.137   7.271 -0.3630  0.3355  0.2025
 2468TIP3    H128963   6.575   1.203   7.260 -0.7831 -0.1882 -0.4009
 2468TIP3    H228964   6.725   1.185   7.259 -0.6893  0.5699 -1.2848
 2469TIP3   OH228965   4.480   4.912   7.367  0.3493  0.4755 -0.7610
 2469TIP3    H128966   4.521   4.830   7.391  1.3152  1.6553  1.9196
 2469TIP3    H228967   4.552   4.974   7.357 -0.4474  2.3076  2.9314
 2470TIP3   OH228968   5.125   3.806   1.834  0.0452  0.1887 -0.4810
 2470TIP3    H128969   5.030   3.807   1.823 -0.4158 -1.9058  2.0145
 2470TIP3    H228970   5.144   3.881   1.890 -0.6489 -0.9338  1.3657
 2471TIP3   OH228971   1.114   3.991   7.276  0.0111  0.2228  0.4297
 2471TIP3    H128972   1.179   4.061   7.279 -1.7995  2.0374 -0.1645
 2471TIP3    H228973   1.120   3.948   7.361  1.5762  0.6818  0.5806
 2472TIP3   OH228974   4.517   1.520   7.634  0.8334 -0.1373 -0.1015
 2472TIP3    H128975   4.503   1.425   7.638 -2.8439  0.2407 -0.4573
 2472TIP3    H228976   4.575   1.533   7.559 -2.2040 -1.9522 -3.0017
 2473TIP3   OH228977   6.464   2.857   1.869  0.1529  0.0067  0.1413
 2473TIP3    H128978   6.541   2.800   1.867 -0.2056 -0.4719  0.0693
 2473TIP3    H228979   6.451   2.876   1.962 -0.2057 -0.6820  0.2369
 2474TIP3   OH228980   6.090   6.445   1.355  0.4436  0.1662 -0.1912
 2474TIP3    H128981   6.107   6.518   1.296 -0.7403  0.0441 -0.7085
 2474TIP3    H228982   5.999   6.421   1.338  0.8367 -1.5019 -0.1243
 2475TIP3   OH228983   6.152   2.246   1.524  0.3450 -0.4333  0.0675
 2475TIP3    H128984   6.246   2.255   1.541  0.4828 -2.9450  1.1412
 2475TIP3    H228985   6.115   2.226   1.610 -1.1242  0.1405 -0.4107
 2476TIP3   OH228986   1.447   6.682   2.803  0.1144 -0.2200 -0.1891
 2476TIP3    H128987   1.383   6.704   2.870  4.1812  4.4013  2.9197
 2476TIP3    H228988   1.504   6.618   2.844  0.0399 -0.9468 -1.1848
 2477TIP3   OH228989   4.681   0.796   8.303 -0.0225  0.6342 -0.4976
 2477TIP3    H128990   4.695   0.719   8.248 -0.2657  0.6271 -0.5494
 2477TIP3    H228991   4.586   0.801   8.314  0.0315  0.5564  0.0367
 2478TIP3   OH228992   0.179   0.306   0.500 -0.1617 -0.1777 -0.8560
 2478TIP3    H128993   0.244   0.367   0.537  1.3568 -1.7835 -0.7210
 2478TIP3    H228994   0.222   0.271   0.422 -0.4811 -1.8925 -0.3098
 2479TIP3   OH228995   5.827   0.783   7.067 -0.1999 -0.4535  0.4378
 2479TIP3    H128996   5.768   0.856   7.087 -0.1200 -0.1410 -0.4511
 2479TIP3    H228997   5.775   0.705   7.088 -0.5417 -0.1630  0.6937
 2480TIP3   OH228998   3.202   0.477   1.306  0.1480  0.1636 -0.0550
 2480TIP3    H128999   3.267   0.498   1.372  0.4508  2.8163 -1.0653
 2480TIP3    H229000   3.118   0.484   1.351  0.4076  0.7774  0.3478
 2481TIP3   OH229001   1.566   4.812   0.272 -0.2124 -0.4668  0.4396
 2481TIP3    H129002   1.588   4.740   0.331 -0.9889 -1.1311 -0.0737
 2481TIP3    H229003   1.502   4.864   0.320  0.4827  0.0009  0.8827
 2482TIP3   OH229004   6.063   0.388   1.054  0.4871 -0.0424 -0.2145
 2482TIP3    H129005   5.990   0.387   0.992  1.6144  3.4256 -1.8280
 2482TIP3    H229006   6.119   0.316   1.026 -0.4704 -0.3842 -1.3194
 2483TIP3   OH229007   2.150   2.997   0.964 -0.2761  0.5761 -0.2010
 2483TIP3    H129008   2.210   3.023   0.894 -2.2005 -0.2125 -2.2627
 2483TIP3    H229009   2.147   3.072   1.023 -0.0672  2.0923 -2.0324
 2484TIP3   OH229010   1.408   0.772   8.638  0.1253 -0.2183 -0.0293
 2484TIP3    H129011   1.411   0.756   8.544  0.1793  0.9881 -0.2431
 2484TIP3    H229012   1.315   0.765   8.660  0.0930 -0.3419 -0.1993
 2485TIP3   OH229013   6.300   1.917   8.003 -0.5697 -0.1326 -0.0821
 2485TIP3    H129014   6.350   1.982   8.052 -0.0618  1.1424 -2.1727
 2485TIP3    H229015   6.289   1.844   8.064  1.2175  0.7937  1.4346
 2486TIP3   OH229016   5.509   5.113   8.179 -0.4438  0.3948 -0.0914
 2486TIP3    H129017   5.490   5.101   8.086  0.0100  0.0389 -0.1375
 2486TIP3    H229018   5.501   5.025   8.217  1.1057  0.2127 -0.1148
 2487TIP3   OH229019   0.787   0.838   8.340  0.5503 -0.2386 -0.6650
 2487TIP3    H129020   0.729   0.847   8.416  0.7075  0.7217 -0.6432
 2487TIP3    H229021   0.770   0.917   8.288 -0.1592 -1.2530 -2.0583
 2488TIP3   OH229022   4.951   3.577   1.656  0.0206  0.1773  0.6114
 2488TIP3    H129023   4.928   3.494   1.615  1.4552 -0.8492  1.7556
 2488TIP3    H229024   4.922   3.568   1.746 -0.2782  1.1351  0.6199
 2489TIP3   OH229025   0.183   4.075   2.637 -0.1827 -0.4169 -0.0205
 2489TIP3    H129026   0.149   4.053   2.550 -1.5243  2.5695 -0.4022
 2489TIP3    H229027   0.108   4.063   2.695 -0.1105  0.2620  0.2182
 2490TIP3   OH229028   1.625   4.106   7.968  0.0512 -0.1575 -0.1832
 2490TIP3    H129029   1.567   4.034   7.944 -0.9976  0.6348 -0.1005
 2490TIP3    H229030   1.619   4.109   8.064  0.6659 -0.4121 -0.1316
 2491TIP3   OH229031   3.708   3.399   2.253 -0.0051 -0.5226 -0.0113
 2491TIP3    H129032   3.613   3.405   2.250 -0.0271 -0.4983  0.6328
 2491TIP3    H229033   3.726   3.318   2.300  0.2919 -0.3784  0.1264
 2492TIP3   OH229034   6.600   0.396   1.501  0.2055 -0.2893  0.4897
 2492TIP3    H129035   6.543   0.324   1.528  2.0932 -1.8689  0.4334
 2492TIP3    H229036   6.565   0.472   1.547 -1.3518 -1.3823  1.2132
 2493TIP3   OH229037   4.971   4.262   1.035 -0.2253 -0.0851  0.1981
 2493TIP3    H129038   5.049   4.252   0.979 -0.0295 -0.8290  0.5799
 2493TIP3    H229039   5.007   4.268   1.124 -0.6358 -1.6661  0.5004
 2494TIP3   OH229040   4.267   2.019   8.098 -0.1498 -0.6618 -0.3921
 2494TIP3    H129041   4.225   1.940   8.065  1.1652 -0.7423 -1.9958
 2494TIP3    H229042   4.348   2.027   8.047  0.2519  1.1602  0.4364
 2495TIP3   OH229043   4.196   2.005   2.217 -0.1158  0.7348 -0.1088
 2495TIP3    H129044   4.220   1.923   2.261  1.3277 -0.6003 -3.0900
 2495TIP3    H229045   4.100   2.008   2.224 -0.6064 -2.9893 -2.5170
 2496TIP3   OH229046   5.742   4.131   2.146  0.5499  0.1208 -0.7220
 2496TIP3    H129047   5.784   4.101   2.227  1.2589 -0.1040 -1.1642
 2496TIP3    H229048   5.654   4.157   2.173  1.1804  1.2550  0.3442
 2497TIP3   OH229049   1.745   3.417   8.161  0.2683 -0.5290 -0.2596
 2497TIP3    H129050   1.737   3.485   8.228  1.8105  0.3362 -0.8916
 2497TIP3    H229051   1.678   3.353   8.183  0.0041  0.2834  1.4519
 2498TIP3   OH229052   2.448   2.981   8.828  0.6254  0.0761 -0.4503
 2498TIP3    H129053   2.449   2.906   8.769  1.1495 -0.1931 -0.1038
 2498TIP3    H229054   2.493   3.050   8.780  0.6090  0.0123 -0.5583
 2499TIP3   OH229055   5.208   2.085   2.064  0.0323 -0.2492  0.3773
 2499TIP3    H129056   5.213   2.148   2.136  0.7786  0.6052 -0.3913
 2499TIP3    H229057   5.153   2.129   1.999 -3.0444 -2.1488  1.4696
 2500TIP3   OH229058   5.390   1.900   7.802  0.1130  0.2563 -0.0005
 2500TIP3    H129059   5.411   1.927   7.892  1.6256 -0.1297 -0.2049
 2500TIP3    H229060   5.303   1.936   7.786 -0.4533 -0.1713  1.8235
 2501TIP3   OH229061   2.854   4.012   8.717 -0.0419 -0.1970 -0.1976
 2501TIP3    H129062   2.878   4.045   8.803  1.4033 -1.7252  0.0413
 2501TIP3    H229063   2.795   3.939   8.736 -1.4783  0.8100 -0.6267
 2502TIP3   OH229064   5.800   1.589   0.687 -0.6539  0.3017 -0.3323
 2502TIP3    H129065   5.858   1.582   0.764 -1.2628 -0.9136  0.0430
 2502TIP3    H229066   5.860   1.597   0.613 -0.0522  1.3179  0.2482
 2503TIP3   OH229067   2.559   5.143   0.367  0.2121  0.2571 -0.2717
 2503TIP3    H129068   2.500   5.067   0.367  0.9639 -0.3460 -0.8628
 2503TIP3    H229069   2.502   5.218   0.383 -0.4008 -0.5462  1.6443
 2504TIP3   OH229070   2.517   2.439   0.903 -0.4100 -0.0105  0.1781
 2504TIP3    H129071   2.466   2.423   0.824 -1.3713 -0.6026  0.8902
 2504TIP3    H229072   2.472   2.511   0.948 -0.3312 -0.1921  0.5591
 2505TIP3   OH229073   4.360   5.927   0.572  0.0652 -0.7432 -0.1600
 2505TIP3    H129074   4.336   5.836   0.553 -1.3263 -0.1845 -1.3078
 2505TIP3    H229075   4.434   5.920   0.631 -0.2736 -2.6323  0.1270
 2506TIP3   OH229076   3.498   5.851   0.340 -0.0971  0.6771  0.3768
 2506TIP3    H129077   3.514   5.775   0.396 -1.3125  1.3449  1.6709
 2506TIP3    H229078   3.416   5.830   0.294 -0.3067  1.0971  0.5566
 2507TIP3   OH229079   3.951   1.223   8.738  0.0323 -0.3640 -0.2289
 2507TIP3    H129080   3.980   1.315   8.738 -1.1194  0.0269 -0.7559
 2507TIP3    H229081   4.029   1.173   8.762  1.1239  0.6210 -1.5618
 2508TIP3   OH229082   3.249   1.999   0.470 -0.2478 -0.0927 -0.0207
 2508TIP3    H129083   3.294   2.015   0.386  1.0257 -0.4189  0.5687
 2508TIP3    H229084   3.310   1.943   0.519 -1.1146 -0.1628  1.0082
 2509TIP3   OH229085   2.313   6.087   2.283  0.2484  0.0683 -0.4162
 2509TIP3    H129086   2.365   6.132   2.349  1.6083  0.6124 -1.8006
 2509TIP3    H229087   2.358   6.003   2.270 -1.2071 -0.9571  0.7996
 2510TIP3   OH229088   4.504   0.864   7.486  0.2312  0.4387  0.0742
 2510TIP3    H129089   4.473   0.935   7.430  2.6772  0.9843 -0.7191
 2510TIP3    H229090   4.504   0.787   7.428 -1.8200 -0.1629  0.7616
 2511TIP3   OH229091   5.694   1.361   0.178  0.0854  0.2361  0.0764
 2511TIP3    H129092   5.655   1.423   0.239  1.6688  0.5329  0.8363
 2511TIP3    H229093   5.656   1.383   0.093  0.0418  1.7419  0.4697
 2512TIP3   OH229094   6.664   0.605   1.960  0.1035 -0.3415  1.2091
 2512TIP3    H129095   6.703   0.531   2.007 -1.3291  0.1950  3.4351
 2512TIP3    H229096   6.681   0.681   2.016 -1.8556  0.3069  1.0239
 2513TIP3   OH229097   3.818   5.420   0.838  0.3575  0.6202 -0.0754
 2513TIP3    H129098   3.740   5.476   0.842  1.1011  1.6684  0.2851
 2513TIP3    H229099   3.815   5.381   0.750 -0.4129  0.8855 -0.1706
 2514TIP3   OH229100   3.144   3.135   8.783  0.1258 -0.0186  0.2911
 2514TIP3    H129101   3.159   3.093   8.868 -0.1338 -1.7505 -0.4823
 2514TIP3    H229102   3.080   3.203   8.801  0.7442  0.2405  1.6411
 2515TIP3   OH229103   5.106   1.342   2.779 -0.3445 -0.5804 -0.3254
 2515TIP3    H129104   5.158   1.276   2.734 -0.0088 -0.5071 -0.0465
 2515TIP3    H229105   5.016   1.309   2.774  0.0495 -2.1057  1.5886
 2516TIP3   OH229106   5.120   1.883   1.186 -0.3167 -0.2911  0.6340
 2516TIP3    H129107   5.126   1.958   1.127  1.1753  0.5918  1.8320
 2516TIP3    H229108   5.105   1.922   1.272 -0.5856 -1.4473  1.1241
 2517TIP3   OH229109   3.996   1.333   1.342  0.4235 -0.2760  0.0404
 2517TIP3    H129110   4.040   1.256   1.304 -0.6041 -0.4728 -0.8054
 2517TIP3    H229111   3.927   1.354   1.279  1.2925  1.9516 -0.2258
 2518TIP3   OH229112   5.455   5.547   2.600 -0.0248  0.0841  0.6828
 2518TIP3    H129113   5.493   5.480   2.544  1.1538 -0.8639  2.5102
 2518TIP3    H229114   5.526   5.571   2.660 -1.3980  0.5618  2.1871
 2519TIP3   OH229115   0.346   2.437   0.635  0.0639  0.4756  0.1021
 2519TIP3    H129116   0.422   2.463   0.687  0.6949 -0.7703 -0.1624
 2519TIP3    H229117   0.323   2.350   0.668  1.0326 -0.7595 -2.2328
 2520TIP3   OH229118   3.702   3.674   1.777 -0.3845 -0.0612 -0.0944
 2520TIP3    H129119   3.642   3.614   1.732 -0.1700 -0.5171  0.2239
 2520TIP3    H229120   3.685   3.659   1.870 -1.1517  1.2035  0.0019
 2521TIP3   OH229121   5.828   4.156   0.261 -0.6528 -0.0733  0.5381
 2521TIP3    H129122   5.833   4.251   0.255 -1.0966 -0.1090 -0.5141
 2521TIP3    H229123   5.753   4.132   0.206  0.9131 -1.2142 -1.2276
 2522TIP3   OH229124   0.803   4.863   8.416  0.0511  0.2449  0.0057
 2522TIP3    H129125   0.847   4.778   8.414  0.5307  0.5083 -0.7826
 2522TIP3    H229126   0.710   4.842   8.407  0.2611 -0.1357 -1.4032
 2523TIP3   OH229127   5.056   6.113   7.882 -0.1023 -0.1077  0.3582
 2523TIP3    H129128   5.069   6.053   7.809  1.5184  0.0093  0.5226
 2523TIP3    H229129   5.103   6.073   7.955  1.1238  1.3772  0.4407
 2524TIP3   OH229130   1.461   2.660   1.921 -0.2769  0.0201 -0.0551
 2524TIP3    H129131   1.396   2.721   1.887  0.5141  0.2709 -1.1796
 2524TIP3    H229132   1.545   2.703   1.905  0.3371 -1.5917 -1.4365
 2525TIP3   OH229133   1.646   0.768   8.827 -0.1795  0.4201  0.2606
 2525TIP3    H129134   1.593   0.789   8.750 -1.7473 -1.2334  0.8289
 2525TIP3    H229135   1.736   0.773   8.796 -0.7736 -0.4850 -1.7820
 2526TIP3   OH229136   1.734   4.818   2.512  0.0974 -0.0664  0.4020
 2526TIP3    H129137   1.798   4.767   2.464 -1.2808 -0.3189 -1.2662
 2526TIP3    H229138   1.693   4.756   2.572  1.2523  0.0593  1.3499
 2527TIP3   OH229139   6.230   0.348   7.031  0.0898  0.3125 -0.5649
 2527TIP3    H129140   6.322   0.323   7.023  0.7498  2.1438  0.5777
 2527TIP3    H229141   6.212   0.343   7.125 -0.7161  0.7976 -0.6821
 2528TIP3   OH229142   3.468   6.671   7.818  0.1361  0.0655 -0.0708
 2528TIP3    H129143   3.538   6.701   7.876  1.3516 -1.4280 -0.7085
 2528TIP3    H229144   3.505   6.677   7.730 -0.3165 -1.2891 -0.3761
 2529TIP3   OH229145   5.040   4.241   1.310 -0.1367 -0.4229 -0.0794
 2529TIP3    H129146   4.971   4.274   1.368 -0.3580  0.7122 -0.9547
 2529TIP3    H229147   5.110   4.214   1.369 -0.7617 -0.2414  0.7606
 2530TIP3   OH229148   0.377   3.516   7.577 -0.0696 -0.1882  0.1478
 2530TIP3    H129149   0.360   3.605   7.545 -0.4588 -1.0991 -2.4077
 2530TIP3    H229150   0.347   3.459   7.507  2.5263 -2.3008  0.5879
 2531TIP3   OH229151   2.471   2.085   6.842  0.1198  0.0276  0.2559
 2531TIP3    H129152   2.391   2.065   6.793 -1.5140  2.5032  1.7094
 2531TIP3    H229153   2.521   2.142   6.783  0.9717 -1.6625 -0.7238
 2532TIP3   OH229154   6.435   1.322   7.259 -0.1583 -0.0002 -0.3302
 2532TIP3    H129155   6.416   1.366   7.176 -0.6597  1.1455  0.3589
 2532TIP3    H229156   6.421   1.390   7.325 -0.0673 -0.9745  0.7149
 2533TIP3   OH229157   1.602   3.643   2.672 -0.1126 -0.0136  0.2057
 2533TIP3    H129158   1.560   3.728   2.688  0.1481  0.6307 -2.1233
 2533TIP3    H229159   1.684   3.647   2.721 -0.1488  1.0650  0.2104
 2534TIP3   OH229160   1.297   5.717   0.766 -0.4494  0.4267 -0.8171
 2534TIP3    H129161   1.309   5.788   0.829 -0.2596 -0.3500  0.0592
 2534TIP3    H229162   1.345   5.643   0.805 -1.5552 -0.4944 -1.1541
 2535TIP3   OH229163   3.190   5.809   2.630  0.1690  0.1038  0.0403
 2535TIP3    H129164   3.146   5.881   2.582 -1.8064 -2.0125 -1.5715
 2535TIP3    H229165   3.277   5.804   2.590  0.2952  1.4712  0.0737
 2536TIP3   OH229166   4.963   4.047   8.036 -0.2039  0.5577  0.0021
 2536TIP3    H129167   5.058   4.042   8.036 -0.2487 -0.4317  0.0131
 2536TIP3    H229168   4.940   4.070   7.946 -0.0301 -1.3282 -0.5755
 2537TIP3   OH229169   5.717   4.221   0.961  0.4990 -0.3524 -0.3924
 2537TIP3    H129170   5.636   4.180   0.994 -0.8345  1.8147 -0.7829
 2537TIP3    H229171   5.776   4.219   1.036 -0.4863 -0.5751  0.4058
 2538TIP3   OH229172   5.493   5.847   1.651 -0.5313 -0.5098 -0.0568
 2538TIP3    H129173   5.463   5.828   1.563  1.4695  0.9142 -1.1257
 2538TIP3    H229174   5.442   5.923   1.678  0.1710  0.2432 -0.7906
 2539TIP3   OH229175   6.517   1.849   8.455  0.0077  0.0314 -0.2441
 2539TIP3    H129176   6.533   1.795   8.533  0.4253  3.0396  1.9229
 2539TIP3    H229177   6.594   1.835   8.400  0.3858 -1.0608  0.5274
 2540TIP3   OH229178   4.271   3.952   7.800  1.0116 -0.6277  0.2981
 2540TIP3    H129179   4.206   3.960   7.730 -0.2602 -0.2580  1.4678
 2540TIP3    H229180   4.355   3.959   7.756  0.2600  1.9477 -0.9667
 2541TIP3   OH229181   1.432   3.785   2.262 -0.3061 -0.0005  0.7345
 2541TIP3    H129182   1.352   3.816   2.305 -0.3118  1.9867 -0.5378
 2541TIP3    H229183   1.400   3.735   2.187 -0.3483 -0.4633  1.0648
 2542TIP3   OH229184   2.325   0.343   7.827 -0.1893  0.2812  0.0977
 2542TIP3    H129185   2.410   0.349   7.784 -0.0444  0.1197  0.3577
 2542TIP3    H229186   2.309   0.249   7.838  0.0674  0.3251  0.9484
 2543TIP3   OH229187   6.688   1.466   0.709  0.8495  0.8932 -0.7700
 2543TIP3    H129188   6.690   1.424   0.795 -1.3420  2.0955 -0.0446
 2543TIP3    H229189   6.628   1.412   0.657  0.8730  1.0845 -0.9999
 2544TIP3   OH229190   5.330   5.554   8.627  0.2298  0.2860 -0.0442
 2544TIP3    H129191   5.319   5.459   8.629 -1.6262  0.4761  0.0809
 2544TIP3    H229192   5.398   5.571   8.693 -0.0123 -0.8747  0.5367
 2545TIP3   OH229193   6.441   2.301   1.502 -0.1095  0.3477  0.2417
 2545TIP3    H129194   6.493   2.323   1.425 -0.8424 -1.5797 -0.8688
 2545TIP3    H229195   6.500   2.248   1.556 -0.0013  0.6369  0.4108
 2546TIP3   OH229196   3.219   6.374   1.663 -0.0247 -0.2232 -0.3867
 2546TIP3    H129197   3.237   6.430   1.588 -3.7485  2.4195  0.4219
 2546TIP3    H229198   3.286   6.398   1.727  0.9315  0.1929 -1.5098
 2547TIP3   OH229199   0.587   2.393   3.259 -0.3731  0.0447  0.1459
 2547TIP3    H129200   0.563   2.374   3.169 -1.3127  2.1888 -0.1318
 2547TIP3    H229201   0.521   2.457   3.288  1.0920  0.9489  1.6518
 2548TIP3   OH229202   3.093   1.211   7.723  0.1793 -0.0739  0.0207
 2548TIP3    H129203   3.022   1.188   7.782 -0.2171  0.2327 -0.3271
 2548TIP3    H229204   3.061   1.187   7.636  0.8431 -0.7297 -0.0554
 2549TIP3   OH229205   4.674   2.531   1.164  0.4762 -0.0092 -0.1974
 2549TIP3    H129206   4.599   2.558   1.111  0.7183 -0.4121 -0.7644
 2549TIP3    H229207   4.641   2.524   1.253  0.2217  1.3601 -0.1750
 2550TIP3   OH229208   0.636   1.524   8.232  0.0731 -0.7140  0.3762
 2550TIP3    H129209   0.698   1.461   8.268  0.3017 -1.1666 -0.7736
 2550TIP3    H229210   0.689   1.581   8.177 -0.1046  0.6194  1.5375
 2551TIP3   OH229211   2.329   0.268   0.435  0.0276  0.3406 -0.1989
 2551TIP3    H129212   2.259   0.321   0.397  2.2237  2.6259 -1.3924
 2551TIP3    H229213   2.349   0.309   0.518  0.3641  0.0974 -0.1550
 2552TIP3   OH229214   3.182   6.336   8.728  0.0794 -0.6560 -0.2673
 2552TIP3    H129215   3.182   6.401   8.658  0.3377  1.0090  1.2365
 2552TIP3    H229216   3.095   6.344   8.768  0.3030 -0.8615  0.2650
 2553TIP3   OH229217   6.786   5.174   2.041 -0.4887 -0.0112 -0.2262
 2553TIP3    H129218   6.806   5.249   1.986 -2.9712  1.7664  1.1095
 2553TIP3    H229219   6.739   5.114   1.982  0.4221  0.0019 -0.9972
 2554TIP3   OH229220   1.276   4.443   1.257 -0.4133  0.4064 -0.2809
 2554TIP3    H129221   1.352   4.439   1.198 -0.1322 -2.8547  0.1134
 2554TIP3    H229222   1.301   4.389   1.332 -2.6626  0.3090  0.4592
 2555TIP3   OH229223   2.506   0.841   0.313 -0.1364 -0.0776  0.0380
 2555TIP3    H129224   2.450   0.763   0.318 -0.9565  0.4712 -0.3645
 2555TIP3    H229225   2.569   0.830   0.383  0.3310 -1.5567 -0.5753
 2556TIP3   OH229226   6.635   5.112   0.514  0.0871  0.1693 -0.6879
 2556TIP3    H129227   6.648   5.029   0.560  0.7727  1.1123  0.8723
 2556TIP3    H229228   6.622   5.086   0.422 -0.8126 -1.7139 -0.0717
 2557TIP3   OH229229   4.011   4.296   0.104 -0.2145  0.3249 -0.8333
 2557TIP3    H129230   4.006   4.329   0.014  1.8806  4.1262  0.2430
 2557TIP3    H229231   3.920   4.296   0.134 -0.6819  1.6788 -2.1300
 2558TIP3   OH229232   1.371   4.728   2.787  0.0279  0.0107  0.5375
 2558TIP3    H129233   1.353   4.812   2.745 -0.6100 -0.1212  0.5423
 2558TIP3    H229234   1.287   4.682   2.786  0.4175 -0.7099  0.3529
 2559TIP3   OH229235   6.609   1.164   7.751 -0.3306  0.4130  0.3264
 2559TIP3    H129236   6.678   1.165   7.817 -0.1166 -0.0115  0.1114
 2559TIP3    H229237   6.653   1.192   7.670 -1.2808  4.4559  0.9865
 2560TIP3   OH229238   1.012   2.570   7.998 -0.3244  0.3950  0.4586
 2560TIP3    H129239   1.019   2.490   8.050 -1.6600 -0.7328 -1.0158
 2560TIP3    H229240   1.030   2.541   7.908 -0.5414  1.8199 -0.0602
 2561TIP3   OH229241   0.317   5.312   0.471  0.7165  0.1354  0.3710
 2561TIP3    H129242   0.334   5.275   0.385  1.4264  0.5357  0.3261
 2561TIP3    H229243   0.245   5.260   0.506  1.3655 -0.9690  0.1195
 2562TIP3   OH229244   4.676   0.593   0.003  0.1271 -0.2867 -0.0704
 2562TIP3    H129245   4.595   0.573   0.050  0.2172  2.1086  1.2965
 2562TIP3    H229246   4.654   0.669  -0.051  2.0435  2.4123  2.5933
 2563TIP3   OH229247   5.039   4.504   2.272  0.0686  0.2453  0.4957
 2563TIP3    H129248   5.011   4.414   2.256 -0.3509  0.5279 -0.4628
 2563TIP3    H229249   5.052   4.509   2.367 -0.3058 -0.7033  0.6085
 2564TIP3   OH229250   6.670   4.390   0.686 -0.1114  0.4299 -0.3488
 2564TIP3    H129251   6.619   4.379   0.766  0.9386 -0.9814  0.1526
 2564TIP3    H229252   6.644   4.318   0.630  1.8114 -0.7650  0.2084
 2565TIP3   OH229253   2.831   2.053   8.180 -0.3161 -0.4339 -0.5140
 2565TIP3    H129254   2.825   2.032   8.086 -1.3821  1.0644 -0.8130
 2565TIP3    H229255   2.815   2.147   8.185 -0.7078 -0.5530  1.2191
 2566TIP3   OH229256   6.220   5.874   0.707  0.0893 -0.4372  0.2501
 2566TIP3    H129257   6.125   5.886   0.702 -0.0774 -0.7797  1.9513
 2566TIP3    H229258   6.243   5.835   0.623 -1.3987 -1.0547  0.0901
 2567TIP3   OH229259   2.523   1.373   1.001 -0.1086  0.1235  0.0111
 2567TIP3    H129260   2.560   1.375   1.089  0.3647  0.2767 -0.1854
 2567TIP3    H229261   2.441   1.325   1.010 -0.8092  1.4185  0.8189
 2568TIP3   OH229262   1.357   3.092   0.372  0.1319 -0.9881 -0.5824
 2568TIP3    H129263   1.288   3.039   0.332 -0.5299  0.1681 -0.9969
 2568TIP3    H229264   1.329   3.104   0.462  0.4546 -1.6006 -0.3890
 2569TIP3   OH229265   0.418   2.700   7.978 -0.5399  0.0164  0.2025
 2569TIP3    H129266   0.392   2.613   7.948 -0.1228 -0.0257 -0.0477
 2569TIP3    H229267   0.499   2.718   7.930  0.1050 -0.0194  1.2523
 2570TIP3   OH229268   1.057   0.430   1.508  0.3453 -0.2505 -0.5198
 2570TIP3    H129269   1.070   0.520   1.477 -1.2193  0.0825 -0.3017
 2570TIP3    H229270   1.059   0.437   1.603 -1.5797 -0.1079 -0.4575
 2571TIP3   OH229271   0.091   0.120   6.715  0.1624  0.2052  0.7806
 2571TIP3    H129272   0.106   0.073   6.633  0.6858  0.9761  0.4267
 2571TIP3    H229273  -0.004   0.116   6.728 -0.0390  0.8627 -0.3479
 2572TIP3   OH229274   4.906   4.035   0.790  0.1312 -0.6956 -0.2047
 2572TIP3    H129275   4.950   3.954   0.815  2.4468  0.0821 -1.5254
 2572TIP3    H229276   4.954   4.066   0.713 -0.5545  2.0490  0.3894
 2573TIP3   OH229277   3.125   5.356   1.085 -0.1060 -0.5911  0.6780
 2573TIP3    H129278   3.177   5.427   1.122  0.3062 -0.6779  0.2870
 2573TIP3    H229279   3.067   5.328   1.155 -0.7316  0.5623  0.6498
 2574TIP3   OH229280   2.067   3.421   0.634  0.3945 -0.7692  0.0273
 2574TIP3    H129281   2.031   3.491   0.580  1.3711  0.5366  1.0077
 2574TIP3    H229282   1.997   3.400   0.696  0.0721 -0.7284 -0.3184
 2575TIP3   OH229283   0.963   4.440   7.632 -0.1204  0.5782 -0.0379
 2575TIP3    H129284   1.009   4.454   7.715  1.9824 -3.0193 -0.3960
 2575TIP3    H229285   0.886   4.497   7.638  1.2213  2.3494  3.2366
 2576TIP3   OH229286   3.339   5.616   7.654  0.1962 -0.6124  0.2920
 2576TIP3    H129287   3.270   5.679   7.678  0.6096 -0.3555  0.8207
 2576TIP3    H229288   3.334   5.611   7.558  0.8394  1.0307  0.1468
 2577TIP3   OH229289   1.664   4.476   0.043  0.3568 -0.8435  0.1010
 2577TIP3    H129290   1.616   4.405   0.086  0.4804 -1.7673 -1.2104
 2577TIP3    H229291   1.606   4.552   0.048  0.1408 -1.0759  1.3713
 2578TIP3   OH229292   6.606   5.560   0.354 -0.2486 -0.0863 -0.2475
 2578TIP3    H129293   6.668   5.532   0.421  0.4383  0.0398 -0.8200
 2578TIP3    H229294   6.522   5.565   0.400  0.2849  0.4231  0.7122
 2579TIP3   OH229295   4.860   5.341   2.229  0.2032 -0.5469  0.2429
 2579TIP3    H129296   4.891   5.254   2.252  0.1060 -0.9164 -0.9222
 2579TIP3    H229297   4.940   5.394   2.222  0.3186 -0.7100  0.3245
 2580TIP3   OH229298   0.034   3.868   1.449 -0.1744  0.2176 -0.0654
 2580TIP3    H129299   0.105   3.805   1.466  0.6856  0.9091 -0.9539
 2580TIP3    H229300  -0.044   3.827   1.486  0.0774 -2.0112 -1.8004
 2581TIP3   OH229301   2.171   3.330   7.798 -0.0994  0.2403 -0.0923
 2581TIP3    H129302   2.195   3.250   7.844  1.6556  0.8895  0.1813
 2581TIP3    H229303   2.091   3.360   7.842 -0.2647 -0.8533  0.3938
 2582TIP3   OH229304   3.632   4.348   0.731 -0.2403 -0.2190  0.0232
 2582TIP3    H129305   3.645   4.329   0.824 -3.7234 -0.2201  0.6351
 2582TIP3    H229306   3.669   4.435   0.718  2.9647 -1.3532  0.5900
 2583TIP3   OH229307   4.381   6.468   7.147  0.1822 -0.1461  0.3942
 2583TIP3    H129308   4.365   6.376   7.170  2.2364 -0.0964  2.3501
 2583TIP3    H229309   4.472   6.469   7.117 -0.2115  1.0773 -0.8704
 2584TIP3   OH229310   1.364   0.490   7.658  0.0469 -0.1134  0.3166
 2584TIP3    H129311   1.408   0.440   7.727  0.3620 -1.3629 -0.7503
 2584TIP3    H229312   1.414   0.471   7.579  0.2856  2.0555 -0.1402
 2585TIP3   OH229313   2.004   5.994   7.496  0.1032 -0.0808 -0.2262
 2585TIP3    H129314   2.024   5.956   7.411 -0.6604 -0.2958 -0.3201
 2585TIP3    H229315   2.061   6.071   7.502  0.6156 -0.4265 -0.6539
 2586TIP3   OH229316   3.156   3.613   7.914  0.1700  0.0259  0.3671
 2586TIP3    H129317   3.232   3.618   7.971  0.6882  0.2501 -0.3271
 2586TIP3    H229318   3.156   3.696   7.867 -1.0090  0.3960  0.9753
 2587TIP3   OH229319   4.492   3.196   1.402 -0.1146  0.1862  0.2777
 2587TIP3    H129320   4.411   3.147   1.388 -0.3435  0.6376 -0.0171
 2587TIP3    H229321   4.559   3.129   1.415 -0.8242 -0.1863  2.3224
 2588TIP3   OH229322   4.764   0.085   0.294  0.5999 -0.4321 -0.0316
 2588TIP3    H129323   4.695   0.119   0.237 -0.2886  1.0819  1.8525
 2588TIP3    H229324   4.845   0.116   0.254 -0.1010  2.7374  0.7645
 2589TIP3   OH229325   2.108   5.951   0.917 -0.1038 -0.1733 -0.4859
 2589TIP3    H129326   2.106   5.894   0.994  0.9871 -2.1480 -1.8289
 2589TIP3    H229327   2.057   6.028   0.943  0.6831 -0.5069  2.3697
 2590TIP3   OH229328   6.463   0.547   2.645  0.3921  0.1188  0.0649
 2590TIP3    H129329   6.544   0.551   2.697 -0.3095 -0.3116  1.2161
 2590TIP3    H229330   6.403   0.608   2.688  0.2346  0.8146 -1.0736
 2591TIP3   OH229331   5.131   4.475   1.689 -0.0607 -0.0461 -0.0221
 2591TIP3    H129332   5.197   4.407   1.675 -0.1808 -0.5119  1.4941
 2591TIP3    H229333   5.127   4.486   1.784 -2.4952 -0.3551 -0.0174
 2592TIP3   OH229334   5.227   1.176   1.672  0.1242 -0.3984  0.0281
 2592TIP3    H129335   5.175   1.202   1.597 -0.2489  3.7849  1.5104
 2592TIP3    H229336   5.283   1.251   1.691 -0.3554 -0.8604  4.3569
 2593TIP3   OH229337   1.741   4.661   0.455  0.3029 -0.1417  0.0180
 2593TIP3    H129338   1.747   4.755   0.473 -0.5157 -0.0442 -0.1811
 2593TIP3    H229339   1.692   4.625   0.529  1.6264 -0.6150  0.6989
 2594TIP3   OH229340   3.261   3.852   0.142  0.3475  0.0006 -0.1709
 2594TIP3    H129341   3.264   3.942   0.112  0.6763 -0.7024 -2.4504
 2594TIP3    H229342   3.343   3.813   0.111  0.8021 -0.8016  1.8677
 2595TIP3   OH229343   6.382   0.550   7.339  0.5070 -0.0832 -0.0919
 2595TIP3    H129344   6.427   0.482   7.288 -0.5392 -0.7942 -0.1206
 2595TIP3    H229345   6.398   0.631   7.291  0.4485 -0.5716 -0.9574
 2596TIP3   OH229346   2.523   3.801   1.517 -0.5458 -0.3188 -0.8920
 2596TIP3    H129347   2.545   3.713   1.484  0.4150 -0.2427 -0.4811
 2596TIP3    H229348   2.485   3.785   1.603 -0.1063 -0.3235 -0.6946
 2597TIP3   OH229349   1.411   2.763   1.082 -0.2785  0.6972 -0.0714
 2597TIP3    H129350   1.319   2.737   1.081 -0.3952  1.1102 -0.3845
 2597TIP3    H229351   1.459   2.683   1.064 -0.5687  0.4466  0.2586
 2598TIP3   OH229352   6.355   3.477   0.975  0.2637  0.1805  0.3620
 2598TIP3    H129353   6.435   3.438   1.010  0.3068 -0.0654 -0.0071
 2598TIP3    H229354   6.285   3.433   1.023  0.3719  1.2533  1.5561
 2599TIP3   OH229355   5.654   6.050   7.351 -0.0939 -0.5738  0.1636
 2599TIP3    H129356   5.603   6.115   7.302  1.9599  0.2362 -1.0429
 2599TIP3    H229357   5.613   6.049   7.438 -1.2181  1.1260 -0.2822
 2600TIP3   OH229358   0.653   4.040   1.902 -0.2174 -0.3182  0.1887
 2600TIP3    H129359   0.566   4.078   1.912 -0.1295  0.1737 -0.7894
 2600TIP3    H229360   0.668   3.992   1.984 -1.7589 -1.1402  0.0320
 2601TIP3   OH229361   6.737   0.805   2.125  0.1474  0.0538  0.0281
 2601TIP3    H129362   6.800   0.876   2.138  0.0313 -0.0058  1.0244
 2601TIP3    H229363   6.720   0.772   2.213  1.3381 -2.2337 -0.5158
 2602TIP3   OH229364   4.032   5.698   8.059  0.1579  0.1441 -0.3762
 2602TIP3    H129365   4.026   5.639   8.134  2.2055 -0.6421 -0.7500
 2602TIP3    H229366   3.949   5.688   8.013 -1.2549  0.8370  1.8627
 2603TIP3   OH229367   3.153   6.720   8.136  0.3580 -0.2066  0.2394
 2603TIP3    H129368   3.205   6.641   8.123 -1.6813 -1.6878  0.4676
 2603TIP3    H229369   3.121   6.742   8.048  0.8430  0.3095  0.1905
 2604TIP3   OH229370   4.480   6.123   7.759  0.2170 -0.0484  0.2138
 2604TIP3    H129371   4.434   6.192   7.806 -1.1542 -0.8545  0.1137
 2604TIP3    H229372   4.568   6.124   7.796  0.2310  1.7105  0.2340
 2605TIP3   OH229373   0.886   2.163   0.069 -0.2380  0.3670  0.4480
 2605TIP3    H129374   0.917   2.078   0.100 -0.0730  0.4133  0.4114
 2605TIP3    H229375   0.851   2.206   0.147  1.8543  1.2308  0.9680
 2606TIP3   OH229376   3.022   6.512   7.317  0.2490  0.6573 -0.0874
 2606TIP3    H129377   2.956   6.570   7.355  0.0331  1.1480 -1.1807
 2606TIP3    H229378   2.980   6.426   7.315  0.6870  0.3557  1.8470
 2607TIP3   OH229379   3.008   4.964   2.437  0.3365  0.6237 -0.4648
 2607TIP3    H129380   3.014   4.892   2.500 -1.9414 -1.4943 -2.4934
 2607TIP3    H229381   2.977   5.039   2.490 -1.6706 -1.1064  0.9875
 2608TIP3   OH229382   2.890   6.124   1.972  0.4140 -0.2010 -0.2288
 2608TIP3    H129383   2.941   6.140   1.893  0.4961  2.6050  0.3026
 2608TIP3    H229384   2.939   6.057   2.019  0.8578 -1.2334 -2.0631
 2609TIP3   OH229385   4.500   5.830   8.004  0.4630 -0.0767 -0.1357
 2609TIP3    H129386   4.491   5.914   7.959  1.6507 -0.2095 -0.6576
 2609TIP3    H229387   4.436   5.773   7.962 -0.7642  0.6951  0.6092
 2610TIP3   OH229388   3.615   4.069   1.343 -0.3765  0.4405  0.3229
 2610TIP3    H129389   3.686   4.130   1.325 -1.1991  1.1108 -0.8302
 2610TIP3    H229390   3.638   3.990   1.294  0.9141 -0.3851  2.1776
 2611TIP3   OH229391   5.564   6.621   1.517 -0.4275  0.5340 -0.6166
 2611TIP3    H129392   5.543   6.677   1.442 -0.3692  1.1573 -0.1773
 2611TIP3    H229393   5.523   6.664   1.592  0.4009  0.4955 -0.1242
 2612TIP3   OH229394   2.240   2.353   3.015  0.3137  0.0460 -0.7134
 2612TIP3    H129395   2.236   2.260   3.041  0.9419  0.4869  1.1233
 2612TIP3    H229396   2.310   2.357   2.951  0.3214 -0.7431 -0.7676
 2613TIP3   OH229397   0.735   2.019   7.563  0.0257 -0.1813  0.2371
 2613TIP3    H129398   0.793   1.949   7.534 -1.1623 -1.9725  1.9862
 2613TIP3    H229399   0.785   2.067   7.629  0.7161  0.4709 -0.7255
 2614TIP3   OH229400   5.019   6.651   0.971 -0.2513  0.0099 -0.5896
 2614TIP3    H129401   4.977   6.699   0.899 -0.6028 -0.3541 -0.6312
 2614TIP3    H229402   5.005   6.706   1.048  1.4212  1.1355 -1.0442
 2615TIP3   OH229403   1.681   6.198   2.607 -0.5786 -0.5753  0.2445
 2615TIP3    H129404   1.771   6.194   2.575 -0.1768  1.3009  1.0317
 2615TIP3    H229405   1.665   6.110   2.642  0.9410 -0.9530  0.0731
 2616TIP3   OH229406   3.509   3.049   7.497 -0.2530  0.3143 -0.1300
 2616TIP3    H129407   3.468   2.963   7.486 -3.0126  1.6340 -0.7828
 2616TIP3    H229408   3.560   3.061   7.416 -1.9415  0.3341 -1.2261
 2617TIP3   OH229409   3.055   5.590   1.621  0.1410 -0.2336 -0.0681
 2617TIP3    H129410   3.117   5.545   1.563  1.2766  0.0354  0.8890
 2617TIP3    H229411   3.020   5.661   1.568  0.7807 -0.2950 -0.5847
 2618TIP3   OH229412   6.436   3.517   1.473 -0.5307  0.4523  0.4268
 2618TIP3    H129413   6.352   3.547   1.508  1.6402  1.6464  5.4641
 2618TIP3    H229414   6.441   3.426   1.500 -0.5014  0.0959 -0.7178
 2619TIP3   OH229415   0.292   5.918   0.446 -0.1974 -0.5604  0.5402
 2619TIP3    H129416   0.204   5.887   0.465  0.3929 -1.1552  2.5808
 2619TIP3    H229417   0.299   6.001   0.493  0.6301 -1.0132  1.2597
 2620TIP3   OH229418   2.085   4.198   7.915  0.0332 -0.3346  0.3227
 2620TIP3    H129419   1.998   4.160   7.917 -1.0985  2.1210  1.8952
 2620TIP3    H229420   2.127   4.168   7.996  1.1345 -2.3666 -0.9161
 2621TIP3   OH229421   4.397   2.151   8.323  0.1780  0.1413 -0.0191
 2621TIP3    H129422   4.368   2.104   8.245 -1.8228 -1.7807  1.7487
 2621TIP3    H229423   4.399   2.243   8.296 -0.2232 -0.4678 -2.3712
 2622TIP3   OH229424   0.688   2.825   2.938 -0.6392 -0.2265 -0.0383
 2622TIP3    H129425   0.759   2.874   2.896 -0.1155 -0.6822  0.2904
 2622TIP3    H229426   0.609   2.873   2.916  0.0118  1.8520  1.8461
 2623TIP3   OH229427   6.327   4.409   8.805  0.2088 -0.3697 -0.1645
 2623TIP3    H129428   6.406   4.421   8.857 -0.6384 -0.4150  1.1981
 2623TIP3    H229429   6.270   4.481   8.833 -1.0236 -1.5513  0.4431
 2624TIP3   OH229430   0.909   5.591   1.718  0.5882  0.2495  0.2678
 2624TIP3    H129431   0.846   5.655   1.684  2.0715  0.7531 -1.7853
 2624TIP3    H229432   0.857   5.531   1.771 -1.3185  1.5622 -0.0119
 2625TIP3   OH229433   4.331   2.082   2.488 -0.0494  0.7949 -0.4580
 2625TIP3    H129434   4.304   2.031   2.412 -0.5869  0.3536  0.0161
 2625TIP3    H229435   4.368   2.017   2.548  3.0961  1.4678 -1.4754
 2626TIP3   OH229436   1.281   3.369   0.788  0.3936 -0.2580 -0.9566
 2626TIP3    H129437   1.300   3.439   0.851  1.5365  0.2563 -1.8382
 2626TIP3    H229438   1.191   3.387   0.759  0.1654 -0.0041 -0.1010
 2627TIP3   OH229439   0.894   1.817   0.832 -0.5819  0.5193 -0.5859
 2627TIP3    H129440   0.941   1.871   0.768  0.1368 -3.5435 -4.0144
 2627TIP3    H229441   0.961   1.757   0.866 -1.8382 -0.2964  0.5226
 2628TIP3   OH229442   5.296   3.893   2.296 -0.2413 -0.0066  0.0818
 2628TIP3    H129443   5.307   3.914   2.389  0.7872  0.3578 -0.1067
 2628TIP3    H229444   5.381   3.859   2.269 -0.8225 -1.0312 -0.5037
 2629TIP3   OH229445   6.237   6.147   7.615 -0.0903  0.1894 -0.5091
 2629TIP3    H129446   6.212   6.085   7.546  0.8133 -1.2334  0.4039
 2629TIP3    H229447   6.155   6.191   7.637 -1.3668 -2.4484  0.5104
 2630TIP3   OH229448   3.176   1.648   2.644 -0.4262 -0.7141 -0.1190
 2630TIP3    H129449   3.244   1.712   2.625  0.6825 -1.7484  0.2858
 2630TIP3    H229450   3.101   1.701   2.672 -0.1460  0.4928 -1.5236
 2631TIP3   OH229451   2.797   3.118   1.656  0.6535  0.2096  0.0206
 2631TIP3    H129452   2.813   3.051   1.590  0.6304  0.6334 -0.4281
 2631TIP3    H229453   2.750   3.073   1.726  1.8184 -0.5430  0.3430
 2632TIP3   OH229454   3.270   0.532   8.661  0.0768  0.2511 -0.7888
 2632TIP3    H129455   3.281   0.511   8.568 -1.3052 -0.4412 -0.8309
 2632TIP3    H229456   3.190   0.585   8.664 -0.6390 -0.8332  0.1204
 2633TIP3   OH229457   5.007   4.853   2.031 -0.5565 -0.3911 -0.5121
 2633TIP3    H129458   4.995   4.760   2.013  1.9348 -0.6009 -1.4305
 2633TIP3    H229459   4.977   4.897   1.952 -0.9920 -0.4495 -0.3840
 2634TIP3   OH229460   4.341   4.051   1.271  0.4590  0.3495  0.0448
 2634TIP3    H129461   4.317   4.033   1.362 -0.9980 -0.2633 -0.4339
 2634TIP3    H229462   4.275   4.005   1.219  2.7243 -1.5365 -1.3922
 2635TIP3   OH229463   5.192   4.731   7.261  0.2039  0.3135 -0.4324
 2635TIP3    H129464   5.245   4.713   7.339 -0.2000 -2.5213 -0.7090
 2635TIP3    H229465   5.106   4.754   7.296  0.8473  2.3540 -0.0444
 2636TIP3   OH229466   1.122   0.113   2.050 -0.1211  0.7417  0.0833
 2636TIP3    H129467   1.206   0.083   2.017 -0.3756  0.1005  0.0034
 2636TIP3    H229468   1.139   0.200   2.086  0.8290  0.1264  1.1700
 2637TIP3   OH229469   5.467   1.477   8.832  0.9269  0.0571  0.1498
 2637TIP3    H129470   5.514   1.539   8.776  0.9822  0.2291  0.3854
 2637TIP3    H229471   5.481   1.392   8.790  0.6483  0.2346 -0.3065
 2638TIP3   OH229472   0.797   0.116   1.484  0.2095  0.0031 -0.0657
 2638TIP3    H129473   0.720   0.162   1.517  0.0963 -0.1438 -0.1240
 2638TIP3    H229474   0.784   0.025   1.510  1.1124  0.2260  1.3139
 2639TIP3   OH229475   5.949   5.401   1.437 -0.0753  0.1383  0.2534
 2639TIP3    H129476   5.952   5.497   1.434 -1.2525  0.1944 -2.5319
 2639TIP3    H229477   6.041   5.374   1.438  0.2699  1.2732  0.9863
 2640TIP3   OH229478   1.635   1.862   0.098 -0.2636 -0.2977 -0.0344
 2640TIP3    H129479   1.635   1.957   0.088  1.1884 -0.4027 -1.4090
 2640TIP3    H229480   1.701   1.845   0.166  2.4309 -0.4412 -2.4707
 2641TIP3   OH229481   0.300   1.561   0.885 -0.2595  0.4899 -0.2013
 2641TIP3    H129482   0.327   1.651   0.865 -2.0672  0.9729 -0.6521
 2641TIP3    H229483   0.347   1.539   0.965  1.8591  1.0268 -1.2285
 2642TIP3   OH229484   5.201   5.339   7.407 -0.0396 -0.1377  0.2102
 2642TIP3    H129485   5.174   5.428   7.385  1.5764  0.5372  0.7497
 2642TIP3    H229486   5.208   5.294   7.323 -1.7940 -0.0829 -0.0028
 2643TIP3   OH229487   5.792   4.586   3.060  0.7047 -0.7440  0.3697
 2643TIP3    H129488   5.826   4.659   3.009  0.5286 -0.8220  0.1370
 2643TIP3    H229489   5.864   4.562   3.119  0.6402 -0.1667  0.6837
 2644TIP3   OH229490   6.000   1.423   1.315 -0.3040  0.4524  0.0755
 2644TIP3    H129491   6.077   1.455   1.268 -0.7569 -1.0419 -1.8289
 2644TIP3    H229492   5.926   1.454   1.264 -0.8716 -0.1645  0.5027
 2645TIP3   OH229493   1.032   6.137   8.487 -0.3637 -0.8009 -0.2585
 2645TIP3    H129494   1.045   6.072   8.555 -0.8490 -0.8637 -0.2216
 2645TIP3    H229495   1.061   6.219   8.527 -0.3098 -0.8958 -0.1001
 2646TIP3   OH229496   2.225   2.823   0.703 -0.7184 -0.3610  0.0555
 2646TIP3    H129497   2.129   2.824   0.705 -0.7452  1.1560 -0.5810
 2646TIP3    H229498   2.247   2.751   0.644 -1.4030 -1.6815  1.3383
 2647TIP3   OH229499   0.133   0.795   1.191 -0.0171  0.3819  0.1710
 2647TIP3    H129500   0.123   0.881   1.233  0.6227  0.6511 -0.2050
 2647TIP3    H229501   0.045   0.772   1.161 -0.3838  0.4332  1.1684
 2648TIP3   OH229502   3.769   5.864   1.074 -0.6587 -0.4825 -0.5793
 2648TIP3    H129503   3.759   5.837   1.165  0.8965 -1.9191 -0.7690
 2648TIP3    H229504   3.692   5.918   1.056 -0.8399  0.1069  1.6611
 2649TIP3   OH229505   6.693   5.419   1.455  0.8054 -0.2705 -0.2330
 2649TIP3    H129506   6.748   5.353   1.498  0.3967 -0.5243 -0.0928
 2649TIP3    H229507   6.632   5.368   1.402  2.2840  0.0580 -2.3731
 2650TIP3   OH229508   4.246   1.806   2.401  0.3335 -0.2833  0.1742
 2650TIP3    H129509   4.195   1.742   2.452  0.5117 -0.5903 -0.0299
 2650TIP3    H229510   4.331   1.809   2.445 -0.0486  0.6900  0.8887
 2651TIP3   OH229511   5.610   4.921   6.870  0.6620  0.1866  0.0672
 2651TIP3    H129512   5.650   4.943   6.954  0.7785  0.3763 -0.0375
 2651TIP3    H229513   5.549   4.992   6.852  2.1006  1.2184 -0.9699
 2652TIP3   OH229514   0.341   6.673   7.582 -0.3266  0.3173  0.1957
 2652TIP3    H129515   0.371   6.587   7.553  0.7152  0.7345 -0.0122
 2652TIP3    H229516   0.267   6.694   7.524  0.1128  0.0335 -0.4795
 2653TIP3   OH229517   6.134   4.788   0.264 -0.5197  0.7967 -0.5014
 2653TIP3    H129518   6.098   4.700   0.263  1.1985  0.0211 -2.3293
 2653TIP3    H229519   6.170   4.798   0.352 -0.1476 -0.6015 -0.4685
 2654TIP3   OH229520   0.522   2.881   1.354  0.5958  0.4878  0.0112
 2654TIP3    H129521   0.502   2.966   1.393 -0.7052 -0.0228  0.5134
 2654TIP3    H229522   0.495   2.890   1.263  0.6716  0.6831  0.0075
 2655TIP3   OH229523   2.972   3.339   0.041  0.6304 -0.5839 -0.5139
 2655TIP3    H129524   2.941   3.338   0.131  1.2405 -1.6637 -0.3075
 2655TIP3    H229525   3.009   3.427   0.030  0.2562 -0.3309  0.1819
 2656TIP3   OH229526   6.603   5.746   0.631 -0.2622  0.0526 -0.2616
 2656TIP3    H129527   6.520   5.733   0.677  0.4528 -1.4891  0.6913
 2656TIP3    H229528   6.646   5.661   0.635  1.0073  0.5903 -1.4916
 2657TIP3   OH229529   4.104   4.570   7.763 -0.2226  0.0723 -0.8017
 2657TIP3    H129530   4.096   4.659   7.729  0.6926  0.8260  0.8450
 2657TIP3    H229531   4.148   4.522   7.693  0.2924  1.1989 -1.2802
 2658TIP3   OH229532   1.153   6.190   7.354 -0.2821  0.2140  0.1846
 2658TIP3    H129533   1.070   6.235   7.372  0.9365  2.6278  0.2015
 2658TIP3    H229534   1.148   6.109   7.405 -2.0207  0.9956  1.3730
 2659TIP3   OH229535   1.693   3.361   0.855  0.2614  0.4698 -0.3294
 2659TIP3    H129536   1.664   3.431   0.797  2.1311  0.9445 -0.7657
 2659TIP3    H229537   1.655   3.383   0.940 -0.5715  1.0505 -0.8328
 2660TIP3   OH229538   6.322   5.675   8.416  0.2789 -0.3162  0.1877
 2660TIP3    H129539   6.398   5.652   8.469 -1.5821 -0.5713  2.8969
 2660TIP3    H229540   6.252   5.616   8.445 -1.5127  1.1970 -0.7966
 2661TIP3   OH229541   0.913   2.991   1.213  0.3522 -0.5930  0.0235
 2661TIP3    H129542   0.925   3.059   1.147 -0.4459 -1.2145 -0.7832
 2661TIP3    H229543   0.835   2.943   1.184 -0.5617 -0.3114  1.9107
 2662TIP3   OH229544   5.265   3.372   0.018  0.2387  0.1660  0.3532
 2662TIP3    H129545   5.246   3.290  -0.027  1.2154 -0.1307  0.4514
 2662TIP3    H229546   5.314   3.424  -0.046 -0.3748  0.6825  0.2909
 2663TIP3   OH229547   1.365   2.315   6.406 -0.3489  0.0566 -0.1610
 2663TIP3    H129548   1.388   2.382   6.341 -1.4405 -1.2152 -1.9525
 2663TIP3    H229549   1.272   2.330   6.422 -0.6915 -1.1919 -0.8466
 2664TIP3   OH229550   2.370   2.362   8.069  0.1625 -0.1577  0.2828
 2664TIP3    H129551   2.430   2.436   8.077 -0.3932  0.2755  0.5193
 2664TIP3    H229552   2.314   2.368   8.146  0.7988 -1.4605  0.8772
 2665TIP3   OH229553   0.152   5.638   0.916 -0.0502 -0.1446 -0.3448
 2665TIP3    H129554   0.181   5.700   0.849  0.3220 -1.1188 -1.1164
 2665TIP3    H229555   0.065   5.669   0.941 -0.5049 -0.1516 -1.8096
 2666TIP3   OH229556   3.549   1.458   8.285  0.0538  0.4468  0.0775
 2666TIP3    H129557   3.557   1.459   8.380  0.3627 -1.6450  0.1128
 2666TIP3    H229558   3.455   1.454   8.269  0.0128  0.5213  0.2976
 2667TIP3   OH229559   5.370   2.749   0.962  0.4066  0.5055 -0.1260
 2667TIP3    H129560   5.293   2.694   0.946 -0.0531  1.2550 -0.5181
 2667TIP3    H229561   5.338   2.838   0.954  0.9388  0.8721  1.4876
 2668TIP3   OH229562   3.335   0.685   7.071  0.5774 -0.7176 -0.2136
 2668TIP3    H129563   3.390   0.760   7.050  0.6123 -1.0835 -1.5562
 2668TIP3    H229564   3.246   0.721   7.072  0.8242  0.1408  3.2262
 2669TIP3   OH229565   1.004   2.582   1.202  0.4517 -0.1944 -0.5687
 2669TIP3    H129566   1.044   2.594   1.116  0.4819 -0.5032 -0.5998
 2669TIP3    H229567   1.067   2.617   1.264  0.5833 -0.2909 -0.6486
 2670TIP3   OH229568   1.658   3.697   2.409 -0.7655 -0.0493  0.0184
 2670TIP3    H129569   1.568   3.728   2.396  0.2076  3.0408 -0.2793
 2670TIP3    H229570   1.669   3.697   2.504 -1.1214 -0.6828  0.0676
 2671TIP3   OH229571   5.842   3.389   1.029 -0.2482 -0.0856 -0.0675
 2671TIP3    H129572   5.796   3.468   1.001  0.5954  0.1345 -0.8633
 2671TIP3    H229573   5.934   3.409   1.015  0.0421 -0.8216  0.7400
 2672TIP3   OH229574   2.132   5.530   0.018  0.6464 -0.7422 -0.3499
 2672TIP3    H129575   2.042   5.513   0.044  0.8287 -1.2233 -0.0206
 2672TIP3    H229576   2.140   5.493  -0.070  0.8563 -1.7951  0.1008
 2673TIP3   OH229577   2.268   5.745   2.978 -0.2327 -0.1945  0.8762
 2673TIP3    H129578   2.228   5.699   2.904  1.2879 -0.5425  0.2406
 2673TIP3    H229579   2.316   5.678   3.025  0.5325  0.4024  0.9669
 2674TIP3   OH229580   3.092   5.476   8.462  0.6365 -0.1459  0.0197
 2674TIP3    H129581   3.018   5.442   8.411  0.0632 -0.7328  1.1820
 2674TIP3    H229582   3.135   5.397   8.496  1.3382  0.2128 -0.0264
 2675TIP3   OH229583   5.157   1.998   0.006 -0.3027  0.2064  0.5245
 2675TIP3    H129584   5.235   2.040  -0.030  0.2031  1.1629  2.6023
 2675TIP3    H229585   5.165   2.010   0.101 -1.6933 -1.9468  0.9685
 2676TIP3   OH229586   0.015   3.329   0.431 -0.3434 -0.4281  0.1316
 2676TIP3    H129587   0.101   3.289   0.444 -0.6736 -0.3711  3.4431
 2676TIP3    H229588   0.025   3.419   0.462 -1.5186 -0.3495  0.3412
 2677TIP3   OH229589   0.190   0.909   8.042 -0.0286  0.8356  0.6190
 2677TIP3    H129590   0.188   1.004   8.029 -0.8155  0.9609  1.4924
 2677TIP3    H229591   0.240   0.896   8.122  0.4199  0.4780  0.2862
 2678TIP3   OH229592   6.599   1.194   1.808 -0.4701 -0.2186 -0.0616
 2678TIP3    H129593   6.660   1.142   1.860 -0.4879 -1.1399 -0.9304
 2678TIP3    H229594   6.639   1.197   1.721 -1.5712 -0.6891 -0.6027
 2679TIP3   OH229595   5.183   4.113   8.288  0.4466  0.2876 -0.2533
 2679TIP3    H129596   5.174   4.047   8.219 -1.3205  0.6319 -0.4075
 2679TIP3    H229597   5.167   4.196   8.244 -1.4822  0.4564  0.6420
 2680TIP3   OH229598   0.026   3.178   1.970  0.6260  0.3951  0.4567
 2680TIP3    H129599   0.027   3.092   2.012  3.0862  0.9090  1.6396
 2680TIP3    H229600   0.044   3.240   2.041 -0.0007  1.8158 -0.5603
 2681TIP3   OH229601   6.370   1.345   1.492 -0.6162 -0.8573  0.2684
 2681TIP3    H129602   6.424   1.376   1.419 -0.3095  0.0834  0.8854
 2681TIP3    H229603   6.333   1.262   1.461 -0.0883 -0.7167 -0.7623
 2682TIP3   OH229604   4.661   2.975   1.403  0.1017  0.3705  0.5643
 2682TIP3    H129605   4.656   3.004   1.312 -1.0602  3.7317  1.5398
 2682TIP3    H229606   4.584   2.920   1.416 -0.4298  0.9305 -0.1610
 2683TIP3   OH229607   4.979   6.048   1.367 -0.1633  0.4496 -0.0584
 2683TIP3    H129608   4.934   5.964   1.361 -0.3839  0.5601  0.0556
 2683TIP3    H229609   5.063   6.033   1.323 -0.8846  0.6602 -1.5666
 2684TIP3   OH229610   2.833   1.044   1.709 -0.1707  0.2410  0.1729
 2684TIP3    H129611   2.928   1.054   1.703 -0.0425 -0.4207  0.9852
 2684TIP3    H229612   2.806   1.110   1.773 -0.2571  0.4175 -0.0449
 2685TIP3   OH229613   2.581   1.841   0.462  0.2484 -0.1266 -0.0988
 2685TIP3    H129614   2.613   1.762   0.505  0.3226 -0.6046 -1.0181
 2685TIP3    H229615   2.539   1.810   0.382  1.1304  0.8399 -0.9649
 2686TIP3   OH229616   1.613   6.525   0.640  0.1556 -0.0566  0.1167
 2686TIP3    H129617   1.551   6.590   0.607 -0.1503  0.8968  2.3668
 2686TIP3    H229618   1.571   6.441   0.623 -1.5245  0.5444  1.0244
 2687TIP3   OH229619   4.258   3.225   7.836 -1.1931 -0.5486  0.1282
 2687TIP3    H129620   4.179   3.250   7.788 -1.0703 -0.3785  0.0140
 2687TIP3    H229621   4.260   3.284   7.912 -0.3976  0.4469 -0.6402
 2688TIP3   OH229622   2.526   6.617   1.014  0.2611 -0.1243  0.0102
 2688TIP3    H129623   2.494   6.590   1.100  0.8327 -2.9113 -0.5550
 2688TIP3    H229624   2.605   6.667   1.032 -0.2979  0.3715  1.1352
 2689TIP3   OH229625   0.799   4.346   1.894  0.4896 -0.5789 -0.1124
 2689TIP3    H129626   0.806   4.251   1.881  3.1123 -1.1775  3.9121
 2689TIP3    H229627   0.727   4.356   1.956  0.1715  0.1335 -0.5773
 2690TIP3   OH229628   3.962   0.281   1.713  0.1856 -0.1761 -0.2070
 2690TIP3    H129629   3.940   0.240   1.630 -1.3768  1.2121 -0.5409
 2690TIP3    H229630   3.955   0.210   1.777  1.1947 -1.2125 -1.2005
 2691TIP3   OH229631   2.992   2.113   1.755 -0.0482  0.0669  0.0069
 2691TIP3    H129632   3.082   2.093   1.780 -0.5766 -0.7378  1.4134
 2691TIP3    H229633   2.948   2.027   1.753 -0.4814  0.2674 -2.1050
 2692TIP3   OH229634   3.592   3.956   0.236  0.4481 -0.2617 -0.9102
 2692TIP3    H129635   3.621   3.881   0.287 -1.6590 -0.4759  0.0969
 2692TIP3    H229636   3.555   3.918   0.156 -2.7822 -0.6268  0.6158
 2693TIP3   OH229637   4.949   6.057   2.615  0.4349  0.0322 -0.1485
 2693TIP3    H129638   4.889   6.014   2.554  1.1635 -2.1476  0.5893
 2693TIP3    H229639   4.967   5.991   2.682  1.2714  1.6636  1.3262
 2694TIP3   OH229640   6.400   6.213   2.543  0.2346  0.1020  0.0094
 2694TIP3    H129641   6.479   6.267   2.548  2.0992 -2.5334  1.3660
 2694TIP3    H229642   6.343   6.247   2.611  0.4025  1.6866 -0.6033
 2695TIP3   OH229643   3.382   3.593   8.078 -0.0617 -0.0932  0.0511
 2695TIP3    H129644   3.347   3.651   8.145 -0.2335 -0.7397  0.5383
 2695TIP3    H229645   3.426   3.524   8.127  1.4390  0.4093 -0.5421
 2696TIP3   OH229646   3.070   1.565   8.451  0.5461  0.0041  0.1418
 2696TIP3    H129647   3.032   1.477   8.451  0.5478 -0.0482  2.2631
 2696TIP3    H229648   3.056   1.597   8.362 -1.1859 -1.4060 -0.1534
 2697TIP3   OH229649   4.166   3.981   7.213  0.2519  0.3717 -0.0580
 2697TIP3    H129650   4.244   3.943   7.253 -0.8674 -0.9691  0.9489
 2697TIP3    H229651   4.160   3.938   7.127 -0.7225 -1.4644  0.8719
 2698TIP3   OH229652   0.081   4.559   7.600  0.0729 -0.5361  0.0292
 2698TIP3    H129653   0.166   4.601   7.586 -0.9939  1.7893  0.0457
 2698TIP3    H229654   0.053   4.531   7.513 -0.5130  1.6016 -0.5259
 2699TIP3   OH229655   5.729   2.045   1.280  0.4332  0.3568  0.0156
 2699TIP3    H129656   5.759   1.995   1.356 -0.2604  0.9985  0.7398
 2699TIP3    H229657   5.798   2.034   1.215  0.4763 -1.2010  0.2904
 2700TIP3   OH229658   5.213   3.156   8.718 -0.4361  0.0550  0.6970
 2700TIP3    H129659   5.208   3.089   8.650  1.1635  0.3922  0.2127
 2700TIP3    H229660   5.125   3.157   8.757 -1.3080 -0.3426 -1.1607
 2701TIP3   OH229661   0.497   4.476   2.382 -0.1249  0.3092  0.0786
 2701TIP3    H129662   0.450   4.399   2.348  0.3277  0.6014 -1.2898
 2701TIP3    H229663   0.520   4.526   2.304  0.2144  1.4818  0.9069
 2702TIP3   OH229664   2.232   5.584   1.078 -0.6304  0.7591 -0.4319
 2702TIP3    H129665   2.274   5.613   0.998 -0.5719 -0.8888 -1.0452
 2702TIP3    H229666   2.186   5.504   1.053 -0.4736  0.1140  1.1983
 2703TIP3   OH229667   5.908   2.006   0.768 -0.0491 -0.3869 -0.0928
 2703TIP3    H129668   5.878   2.083   0.816  0.5036 -0.0413 -0.3004
 2703TIP3    H229669   5.963   2.040   0.698  0.5464 -0.9878  0.0655
 2704TIP3   OH229670   6.644   6.040   8.459  0.2845 -0.1503  0.1713
 2704TIP3    H129671   6.563   6.071   8.499 -1.1799 -2.0831 -1.1061
 2704TIP3    H229672   6.700   6.019   8.533  0.0159  2.0257  1.0855
 2705TIP3   OH229673   2.901   5.544   0.283  0.4190  0.0016 -0.3341
 2705TIP3    H129674   2.829   5.506   0.333  1.3033  1.5485  2.3406
 2705TIP3    H229675   2.864   5.623   0.244 -0.0578 -0.7753 -1.5116
 2706TIP3   OH229676   4.927   3.210   8.820  0.6573 -0.2202  0.0792
 2706TIP3    H129677   4.972   3.229   8.902  0.8409  0.7181 -0.2319
 2706TIP3    H229678   4.875   3.132   8.839 -1.6000  1.6275  1.9695
 2707TIP3   OH229679   0.445   4.509   7.818 -0.2336 -0.0065  0.8040
 2707TIP3    H129680   0.406   4.432   7.860 -1.2617  0.0575  0.0131
 2707TIP3    H229681   0.497   4.472   7.746 -2.0905  0.0560 -0.6608
 2708TIP3   OH229682   3.773   6.350   0.734  0.2193 -0.0883 -0.3469
 2708TIP3    H129683   3.789   6.296   0.812  0.7835 -2.3663 -1.9403
 2708TIP3    H229684   3.858   6.360   0.693 -0.1224  0.7875 -0.8754
 2709TIP3   OH229685   1.624   1.648   2.541 -0.5975  0.2976  0.1130
 2709TIP3    H129686   1.578   1.732   2.534 -0.1739  0.5421  0.2650
 2709TIP3    H229687   1.675   1.641   2.460 -1.6120 -0.4083 -0.4907
 2710TIP3   OH229688   4.742   2.394   0.802 -0.4208 -0.0048  0.3731
 2710TIP3    H129689   4.769   2.356   0.718  1.3843  0.0975  0.8728
 2710TIP3    H229690   4.654   2.360   0.816 -0.1341 -1.3293 -0.8013
 2711TIP3   OH229691   3.376   3.994   7.483  0.3198  0.4515  0.9413
 2711TIP3    H129692   3.365   4.027   7.394 -0.9895  0.0574  0.9431
 2711TIP3    H229693   3.289   4.000   7.523  0.1105 -2.3730  1.1401
 2712TIP3   OH229694   5.230   5.943   1.811 -0.3110 -0.0833 -0.7580
 2712TIP3    H129695   5.201   6.028   1.778  0.4157  0.0526 -1.0504
 2712TIP3    H229696   5.311   5.961   1.859 -0.3367 -0.5596 -0.5232
 2713TIP3   OH229697   5.599   4.213   1.740  0.1701  0.1456  0.0129
 2713TIP3    H129698   5.510   4.238   1.716  0.3726 -0.3223 -1.2803
 2713TIP3    H229699   5.638   4.180   1.659  2.2631  2.4381 -0.0504
 2714TIP3   OH229700   4.943   1.535   8.798 -0.7891 -0.6326 -0.1263
 2714TIP3    H129701   4.995   1.511   8.875  0.7320 -1.1663 -1.2725
 2714TIP3    H229702   4.861   1.568   8.834  0.9356  1.9024  1.8915
 2715TIP3   OH229703   1.716   3.153   8.025  0.1527 -0.1940  0.2662
 2715TIP3    H129704   1.674   3.074   7.991  0.0889  0.4487 -1.1762
 2715TIP3    H229705   1.693   3.154   8.118  1.5997 -2.8095  0.7578
 2716TIP3   OH229706   4.087   1.600   1.048 -0.1332  0.3020 -0.0293
 2716TIP3    H129707   4.145   1.668   1.082 -0.3976  1.3213 -1.5197
 2716TIP3    H229708   4.005   1.614   1.094 -0.2155  1.0690 -0.3943
 2717TIP3   OH229709   4.903   6.140   0.253  0.3870 -0.1115 -0.1083
 2717TIP3    H129710   4.885   6.164   0.344  1.0956 -0.7750  0.2126
 2717TIP3    H229711   4.837   6.073   0.233 -0.0019  0.2945 -0.2075
 2718TIP3   OH229712   3.822   2.698   7.097 -0.1469 -0.4618  0.3364
 2718TIP3    H129713   3.734   2.722   7.124  0.3812  1.2178  0.7102
 2718TIP3    H229714   3.859   2.779   7.062  0.6613 -1.5513 -1.4696
 2719TIP3   OH229715   6.319   4.475   8.270  0.3172  0.2733  0.0106
 2719TIP3    H129716   6.358   4.462   8.183 -3.5402 -1.0135 -1.7538
 2719TIP3    H229717   6.359   4.408   8.324  1.0556 -0.5164 -1.4502
 2720TIP3   OH229718   3.460   0.731   0.018 -0.0415 -0.3141  0.1870
 2720TIP3    H129719   3.441   0.813   0.064 -0.5129  0.9673 -2.1460
 2720TIP3    H229720   3.551   0.711   0.041 -0.6280 -0.4860  2.6507
 2721TIP3   OH229721   3.286   2.170   1.881 -0.1286  0.2853  0.2696
 2721TIP3    H129722   3.308   2.077   1.886 -3.0424 -0.5128 -0.2057
 2721TIP3    H229723   3.369   2.212   1.857  1.3188 -2.1268  0.6487
 2722TIP3   OH229724   3.787   0.294   8.730 -0.5973  0.1634 -0.1296
 2722TIP3    H129725   3.762   0.276   8.821  0.4799 -2.5935 -0.2969
 2722TIP3    H229726   3.712   0.264   8.679 -0.4527 -0.0492 -0.2199
 2723TIP3   OH229727   6.256   1.494   8.820  0.1928  0.2790 -0.0653
 2723TIP3    H129728   6.175   1.469   8.775  1.4065  0.5740 -2.5240
 2723TIP3    H229729   6.234   1.576   8.864 -0.4309  1.2469 -2.0715
 2724TIP3   OH229730   3.589   6.202   7.524  0.8167  0.4106 -0.3790
 2724TIP3    H129731   3.650   6.275   7.539  0.0704  0.8234  0.8467
 2724TIP3    H229732   3.506   6.234   7.559  0.4123 -0.9437 -0.0705
 2725TIP3   OH229733   4.566   4.492   8.323 -0.3744  0.9643 -0.2892
 2725TIP3    H129734   4.479   4.476   8.361  0.0971  0.6809  0.7009
 2725TIP3    H229735   4.589   4.580   8.354  0.0651  0.6819  0.2143
 2726TIP3   OH229736   3.778   0.622   8.724  0.0040  0.0934  0.9594
 2726TIP3    H129737   3.688   0.596   8.705 -0.7934  1.4247  2.6883
 2726TIP3    H229738   3.806   0.670   8.645 -0.5345 -0.8948  0.1437
 2727TIP3   OH229739   0.868   0.822   2.151 -0.2795 -0.0182  0.4199
 2727TIP3    H129740   0.772   0.825   2.147 -0.3893 -1.5633  1.1088
 2727TIP3    H229741   0.893   0.762   2.081  0.1506  0.0474  0.5162
 2728TIP3   OH229742   0.584   4.884   2.459  0.3854  0.2857 -0.0674
 2728TIP3    H129743   0.494   4.853   2.450  1.3847 -2.3598 -2.0773
 2728TIP3    H229744   0.613   4.847   2.543  0.4477 -1.3430 -0.7705
 2729TIP3   OH229745   6.784   1.287   8.657 -0.6467  0.2748 -0.6220
 2729TIP3    H129746   6.790   1.209   8.601 -2.2734 -0.4697  0.1507
 2729TIP3    H229747   6.872   1.299   8.691 -0.1292 -0.5813 -1.5910
 2730TIP3   OH229748   5.420   3.096   1.803  0.1367 -0.6332 -1.2653
 2730TIP3    H129749   5.437   3.188   1.826  1.6552 -1.1595 -0.1637
 2730TIP3    H229750   5.339   3.074   1.850  0.0640 -0.0201 -1.0938
 2731TIP3   OH229751   0.599   0.387   1.918  0.2930 -0.0924 -0.0748
 2731TIP3    H129752   0.650   0.460   1.882  0.7267  0.1222  0.9257
 2731TIP3    H229753   0.617   0.313   1.860 -0.9319  0.8072 -1.7005
 2732TIP3   OH229754   1.492   2.494   1.034  0.7058 -0.4091 -0.2856
 2732TIP3    H129755   1.459   2.408   1.007 -1.3141  0.1312  0.3476
 2732TIP3    H229756   1.533   2.478   1.119 -0.4735 -0.6213  0.2656
 2733TIP3   OH229757   5.171   5.633   1.435  0.2743  0.0270  0.2305
 2733TIP3    H129758   5.098   5.600   1.383 -0.3198 -0.0445  1.0928
 2733TIP3    H229759   5.130   5.680   1.507  1.0892  1.5854 -0.2647
 2734TIP3   OH229760   5.374   4.845   7.620 -0.1090 -0.4131  0.1026
 2734TIP3    H129761   5.459   4.812   7.592 -0.4193 -0.0532 -1.3695
 2734TIP3    H229762   5.336   4.773   7.670  1.3484 -0.2881  1.4558
 2735TIP3   OH229763   6.370   6.261   0.449 -0.1452 -0.0305  0.4403
 2735TIP3    H129764   6.412   6.191   0.399  0.5257 -0.2423  1.2704
 2735TIP3    H229765   6.335   6.320   0.383 -0.7358 -1.1502 -0.2763
 2736TIP3   OH229766   1.458   2.000   7.711 -0.5796  0.2050 -0.2184
 2736TIP3    H129767   1.547   1.968   7.694 -0.4042  0.4244  0.2763
 2736TIP3    H229768   1.454   2.011   7.806 -1.3399 -0.3857 -0.1762
 2737TIP3   OH229769   6.308   5.557   1.678 -0.2823  0.4842 -0.3057
 2737TIP3    H129770   6.387   5.612   1.677 -0.0234  0.2895  1.9934
 2737TIP3    H229771   6.237   5.618   1.659  0.2905  0.9523 -1.0012
 2738TIP3   OH229772   0.749   1.909   8.399  0.0828 -0.3364  0.2844
 2738TIP3    H129773   0.711   1.830   8.437 -0.9007 -0.6591 -1.3060
 2738TIP3    H229774   0.684   1.977   8.414 -0.3522 -0.4835 -0.8202
 2739TIP3   OH229775   2.639   1.379   1.776  0.3613  0.7360 -0.3718
 2739TIP3    H129776   2.556   1.359   1.819  0.6570 -0.5035 -0.3377
 2739TIP3    H229777   2.639   1.326   1.697  1.8873 -0.7379  0.5474
 2740TIP3   OH229778   3.268   5.295   8.565 -0.1388 -0.6023 -0.2341
 2740TIP3    H129779   3.266   5.207   8.527 -0.2847 -0.9928  0.6602
 2740TIP3    H229780   3.361   5.318   8.565  0.0496 -1.2934  0.7075
 2741TIP3   OH229781   3.712   1.155   8.638 -0.1643 -0.6923 -0.1756
 2741TIP3    H129782   3.722   1.126   8.547 -1.7789 -0.5175 -0.4429
 2741TIP3    H229783   3.793   1.201   8.658 -0.9782  2.1176 -2.6351
 2742TIP3   OH229784   4.450   2.310   0.931  0.1046 -0.4028  0.3726
 2742TIP3    H129785   4.427   2.250   1.001 -0.8707 -1.0610 -0.4739
 2742TIP3    H229786   4.434   2.261   0.851 -1.8566  1.3308 -0.3850
 2743TIP3   OH229787   1.638   1.661   8.368 -0.2690  0.3092 -0.1790
 2743TIP3    H129788   1.615   1.572   8.339 -1.0187 -0.3626  2.2177
 2743TIP3    H229789   1.555   1.708   8.368  0.2459  1.2867 -2.1659
 2744TIP3   OH229790   1.848   2.314   1.351 -0.0292  0.5054  0.5045
 2744TIP3    H129791   1.847   2.386   1.288  0.7232  0.8568  0.8726
 2744TIP3    H229792   1.888   2.241   1.304 -1.0295  0.2355  0.0486
 2745TIP3   OH229793   0.122   4.992   7.947 -0.9557  0.0273 -0.5126
 2745TIP3    H129794   0.075   5.006   8.030 -0.5672 -1.4960 -0.0088
 2745TIP3    H229795   0.210   4.964   7.974 -0.6335  0.0895 -1.4544
 2746TIP3   OH229796   0.807   0.918   0.488 -0.2645 -0.6417 -0.5982
 2746TIP3    H129797   0.888   0.879   0.522 -1.5127 -3.4598 -0.5543
 2746TIP3    H229798   0.764   0.956   0.565  0.3747 -0.3301 -0.3914
 2747TIP3   OH229799   2.156   4.846   6.844  0.2900  1.1294  0.1073
 2747TIP3    H129800   2.120   4.896   6.917  1.4610  0.8615  0.9031
 2747TIP3    H229801   2.084   4.838   6.781 -0.8750  0.9895  1.4251
 2748TIP3   OH229802   2.273   1.057   1.915  0.1124  0.1457 -0.2998
 2748TIP3    H129803   2.180   1.039   1.924  0.1984  0.3242  1.1104
 2748TIP3    H229804   2.316   0.973   1.932  0.2276  0.0851 -0.8521
 2749TIP3   OH229805   4.226   2.551   0.455 -0.3089 -0.1441  0.3915
 2749TIP3    H129806   4.170   2.597   0.519  0.1045  0.3796  0.3801
 2749TIP3    H229807   4.315   2.569   0.484 -0.1295 -2.2271  1.3037
 2750TIP3   OH229808   3.948   4.662   0.925 -0.3052 -0.2807  0.2641
 2750TIP3    H129809   3.898   4.722   0.981 -0.3218 -0.1141  0.0708
 2750TIP3    H229810   3.934   4.695   0.836 -0.6578 -0.8132  0.1175
 2751TIP3   OH229811   5.268   1.289   0.176 -0.1858 -0.2011 -0.6335
 2751TIP3    H129812   5.183   1.247   0.162 -0.2984 -0.2266  0.0555
 2751TIP3    H229813   5.253   1.381   0.154  0.0798 -0.5121 -2.2124
 2752TIP3   OH229814   0.516   0.768   7.374  0.2304 -0.2654  0.3896
 2752TIP3    H129815   0.586   0.774   7.309  1.8848  2.7328  2.1662
 2752TIP3    H229816   0.551   0.708   7.441 -0.8681 -2.2229 -0.7076
 2753TIP3   OH229817   5.587   0.075   8.827  0.2173  0.1915 -0.8093
 2753TIP3    H129818   5.635   0.012   8.775  1.0904  0.7576 -0.7104
 2753TIP3    H229819   5.509   0.028   8.858  0.5298 -0.6241 -1.2633
 2754TIP3   OH229820   2.100   2.421   7.876  0.2666 -0.5698 -0.2789
 2754TIP3    H129821   2.175   2.383   7.922  1.5833  1.1063 -0.9185
 2754TIP3    H229822   2.061   2.348   7.828  0.5014 -1.7953  1.2912
 2755TIP3   OH229823   2.184   3.826   0.879 -0.4165  0.1537  0.1483
 2755TIP3    H129824   2.220   3.855   0.795  0.3980  1.3973  0.8960
 2755TIP3    H229825   2.152   3.907   0.920 -0.8043 -0.4397  1.0307
 2756TIP3   OH229826   4.104   4.854   8.296  0.0396  0.2083 -0.0348
 2756TIP3    H129827   4.126   4.773   8.251  0.0935 -0.1303  0.5823
 2756TIP3    H229828   4.072   4.912   8.227  0.9989  0.0345 -0.6507
 2757TIP3   OH229829   5.233   1.025   0.822 -0.2099  0.0390 -0.3244
 2757TIP3    H129830   5.140   1.005   0.823 -0.0106 -1.0152 -1.0296
 2757TIP3    H229831   5.245   1.084   0.748 -0.6311  1.9904  1.0983
 2758TIP3   OH229832   1.183   2.037   1.887 -0.0934 -0.2460  0.1096
 2758TIP3    H129833   1.134   2.043   1.969  1.3549  2.8608  0.8938
 2758TIP3    H229834   1.133   2.091   1.826  0.8244  0.6603  0.1278
 2759TIP3   OH229835   5.942   1.682   0.458 -0.7482  0.6600 -0.0258
 2759TIP3    H129836   6.021   1.717   0.499 -0.3855 -0.6703  0.4545
 2759TIP3    H229837   5.941   1.722   0.371  1.1562 -0.2392 -0.5130
 2760TIP3   OH229838   2.028   0.213   7.940 -0.6272 -0.2167  0.1785
 2760TIP3    H129839   2.036   0.153   8.015  0.1645 -0.0535  0.2320
 2760TIP3    H229840   2.111   0.204   7.894 -0.8377  0.2171 -0.2898
 2761TIP3   OH229841   3.587   0.391   0.733  0.0725  0.2941  0.5940
 2761TIP3    H129842   3.521   0.353   0.791 -0.2216 -0.2353 -0.0662
 2761TIP3    H229843   3.549   0.475   0.706  0.2403  0.5739  1.2097
 2762TIP3   OH229844   2.849   3.867   0.914  0.2039  0.5075  0.2067
 2762TIP3    H129845   2.941   3.849   0.897 -0.2292 -1.1733 -0.5254
 2762TIP3    H229846   2.803   3.835   0.836 -0.9272  2.2609  0.0976
 2763TIP3   OH229847   2.561   1.015   8.489 -0.1844  0.3930  0.6365
 2763TIP3    H129848   2.542   1.108   8.506  2.6304  1.3715 -0.8843
 2763TIP3    H229849   2.611   0.986   8.565  1.1348  0.9281  0.0050
 2764TIP3   OH229850   3.210   1.224   1.375  0.0822  0.2436  0.1635
 2764TIP3    H129851   3.221   1.144   1.324 -0.3295 -1.4401  2.5371
 2764TIP3    H229852   3.289   1.228   1.430 -1.0250  0.0454  1.8430
 2765TIP3   OH229853   5.460   5.473   0.868 -0.2343 -0.5581  0.0096
 2765TIP3    H129854   5.449   5.488   0.962 -1.0305 -0.3122 -0.1122
 2765TIP3    H229855   5.553   5.484   0.852 -0.3642  1.4776  0.4094
 2766TIP3   OH229856   5.443   3.119   0.141  0.0259  0.1492 -0.3023
 2766TIP3    H129857   5.522   3.071   0.163  1.2239  2.4712  0.8386
 2766TIP3    H229858   5.466   3.169   0.063 -0.8392 -0.2781 -0.8520
 2767TIP3   OH229859   3.717   3.289   1.981 -0.3742 -0.3061  0.2362
 2767TIP3    H129860   3.726   3.225   2.051 -1.9211 -1.2888 -0.4215
 2767TIP3    H229861   3.623   3.301   1.971 -0.2134 -0.3410 -1.7866
 2768TIP3   OH229862   1.942   5.663   8.136 -0.6083 -0.4487  0.1169
 2768TIP3    H129863   1.912   5.661   8.227  1.4552 -1.4217  0.8513
 2768TIP3    H229864   1.990   5.746   8.129  1.9814 -1.7772  0.9627
 2769TIP3   OH229865   3.794   4.221   0.238  0.2684  0.3144 -0.1832
 2769TIP3    H129866   3.780   4.239   0.331 -0.4007  0.7566 -0.3611
 2769TIP3    H229867   3.714   4.177   0.210  0.9828 -0.9928 -0.2669
 2770TIP3   OH229868   5.530   0.448   2.582  0.1043 -0.3619 -0.2795
 2770TIP3    H129869   5.528   0.353   2.576  2.0668 -0.4216 -0.3527
 2770TIP3    H229870   5.496   0.478   2.497 -2.5875 -0.9188  0.5151
 2771TIP3   OH229871   1.431   6.036   0.165 -0.0362  0.7117  0.1408
 2771TIP3    H129872   1.502   6.050   0.102  1.4824 -0.2482  1.5422
 2771TIP3    H229873   1.390   6.122   0.175 -0.8792  0.7392 -2.7032
 2772TIP3   OH229874   6.242   5.622   1.352 -0.0082  0.0401 -0.1266
 2772TIP3    H129875   6.320   5.642   1.301 -0.3396  0.1798 -0.5896
 2772TIP3    H229876   6.172   5.615   1.286 -0.4629  0.3482  0.3179
 2773TIP3   OH229877   1.218   6.138   7.679  0.5480 -0.6838 -0.1111
 2773TIP3    H129878   1.174   6.166   7.759  0.6330  1.2842 -0.6983
 2773TIP3    H229879   1.147   6.106   7.623  0.4147 -1.4758  0.4978
 2774TIP3   OH229880   2.194   0.705   2.926 -0.1907 -0.1562 -0.1421
 2774TIP3    H129881   2.228   0.666   2.845 -2.2795 -1.0415 -0.6429
 2774TIP3    H229882   2.120   0.759   2.898 -0.1411  0.5599  1.0576
 2775TIP3   OH229883   1.713   2.769   1.878  0.4041 -0.7926  0.3692
 2775TIP3    H129884   1.688   2.779   1.786  0.6251 -0.3278  0.3599
 2775TIP3    H229885   1.761   2.849   1.899 -0.4081 -0.4837  1.1381
 2776TIP3   OH229886   4.909   0.376   2.784 -0.3796  0.0220 -0.3793
 2776TIP3    H129887   4.817   0.398   2.802 -0.0967 -0.2163  1.4935
 2776TIP3    H229888   4.940   0.335   2.864  1.2568 -0.3186 -1.1527
 2777TIP3   OH229889   2.514   0.111   7.727 -0.1816 -0.1592 -0.1033
 2777TIP3    H129890   2.564   0.043   7.681 -1.9326 -0.3288 -1.8558
 2777TIP3    H229891   2.569   0.189   7.721  1.1004 -0.9735  0.4783
 2778TIP3   OH229892   5.013   1.512   1.350 -0.1023  0.4120  0.0534
 2778TIP3    H129893   4.938   1.569   1.334 -0.1827  0.5244  0.8177
 2778TIP3    H229894   5.088   1.561   1.314 -0.1074  1.2041  1.0965
 2779TIP3   OH229895   3.121   1.518   8.021 -0.2889 -0.0855  0.3638
 2779TIP3    H129896   3.212   1.532   7.995 -0.2230  1.8067  1.4159
 2779TIP3    H229897   3.071   1.521   7.940  0.6119 -1.8750 -0.3161
 2780TIP3   OH229898   2.210   2.218   0.307 -0.0125  0.2075  0.3507
 2780TIP3    H129899   2.304   2.221   0.293 -0.0999  0.4173 -0.2251
 2780TIP3    H229900   2.195   2.272   0.385  0.4124 -0.4209  0.8805
 2781TIP3   OH229901   5.362   5.968   6.527  0.2444  0.3005 -0.3203
 2781TIP3    H129902   5.328   6.002   6.610 -0.3455 -1.0949  0.0470
 2781TIP3    H229903   5.455   5.990   6.527  0.7539 -1.5182  1.7361
 2782TIP3   OH229904   5.185   2.240   8.566  0.0029  0.2831  0.4774
 2782TIP3    H129905   5.208   2.234   8.658  0.6565  0.2102  0.3182
 2782TIP3    H229906   5.252   2.187   8.521 -1.0001 -0.6630  0.0611
 2783TIP3   OH229907   2.169   1.739   8.400 -0.2635  0.2781 -0.0027
 2783TIP3    H129908   2.080   1.706   8.395 -0.6089  1.1948  0.0167
 2783TIP3    H229909   2.161   1.827   8.437  0.5758  0.6576 -0.6813
 2784TIP3   OH229910   0.780   4.632   7.746  0.0009 -0.1618 -0.3531
 2784TIP3    H129911   0.708   4.672   7.698 -0.2606 -0.5846 -0.3257
 2784TIP3    H229912   0.837   4.705   7.771 -1.4395  0.4314  1.3615
 2785TIP3   OH229913   3.680   3.654   8.506  0.1050 -0.3478 -0.1279
 2785TIP3    H129914   3.719   3.567   8.520 -0.6330 -0.4852  1.2506
 2785TIP3    H229915   3.705   3.677   8.416  1.7113 -1.2568  0.0539
 2786TIP3   OH229916   2.277   2.685   1.694 -0.6863  0.3712  0.0733
 2786TIP3    H129917   2.205   2.657   1.749  0.3708 -1.4139  0.6347
 2786TIP3    H229918   2.347   2.707   1.755 -0.7256  2.1346 -0.4543
 2787TIP3   OH229919   2.199   3.914   1.873  0.4567  0.4588 -0.4354
 2787TIP3    H129920   2.109   3.925   1.904  0.2177 -0.4404 -0.7834
 2787TIP3    H229921   2.252   3.920   1.952  0.0149  0.0947 -0.1073
 2788TIP3   OH229922   3.436   2.877   7.903  0.0713  0.3918  0.0917
 2788TIP3    H129923   3.485   2.940   7.956 -0.5949  1.0860 -0.1108
 2788TIP3    H229924   3.426   2.920   7.818 -0.5591  0.0910  0.0110
 2789TIP3   OH229925   2.959   0.595   0.893 -0.2749 -0.2727  0.2802
 2789TIP3    H129926   2.909   0.524   0.933  0.9775 -0.2183  2.0621
 2789TIP3    H229927   2.902   0.672   0.899 -0.7451 -0.6362  0.4606
 2790TIP3   OH229928   3.363   0.099   0.164  0.3864 -0.3933  0.7449
 2790TIP3    H129929   3.292   0.067   0.108 -0.0210  0.3637  0.8217
 2790TIP3    H229930   3.357   0.044   0.243  0.1317 -0.5872  0.5942
 2791TIP3   OH229931   3.409   4.925   1.380 -0.0371 -0.8707  0.1311
 2791TIP3    H129932   3.338   4.975   1.420 -1.3753 -2.5134 -0.1059
 2791TIP3    H229933   3.438   4.865   1.449  2.1841  0.7407  0.7168
 2792TIP3   OH229934   3.852   4.346   7.216  0.5942  0.1218  0.6020
 2792TIP3    H129935   3.919   4.378   7.155 -0.5031  0.1195 -0.6616
 2792TIP3    H229936   3.794   4.293   7.161 -0.3992  0.0573  1.6820
 2793TIP3   OH229937   3.513   3.377   1.294 -0.1786  0.2377 -0.0690
 2793TIP3    H129938   3.440   3.362   1.234  0.0715  1.5269 -0.7376
 2793TIP3    H229939   3.502   3.468   1.323  0.9896  0.3619  0.0390
 2794TIP3   OH229940   0.491   3.096   7.914  0.0872  0.1799 -0.2381
 2794TIP3    H129941   0.397   3.093   7.893  0.1035  0.2523 -0.3238
 2794TIP3    H229942   0.494   3.114   8.008  0.0159  2.4350 -0.5987
 2795TIP3   OH229943   2.077   3.276   1.207  0.6881  0.5852 -0.4690
 2795TIP3    H129944   2.030   3.314   1.132  1.4461  2.6364  0.0096
 2795TIP3    H229945   2.169   3.278   1.180  0.7920 -0.5883 -0.2462
 2796TIP3   OH229946   1.415   5.608   1.017 -0.0162  0.1589  0.0694
 2796TIP3    H129947   1.471   5.685   1.025  0.0367  0.1088  0.1833
 2796TIP3    H229948   1.357   5.612   1.093 -0.2963  0.3136 -0.1497
 2797TIP3   OH229949   3.118   1.479   0.611  0.3777 -0.2854  0.4461
 2797TIP3    H129950   3.109   1.542   0.682 -3.4345 -0.7827  0.5757
 2797TIP3    H229951   3.144   1.531   0.535 -0.7790  1.1544  0.9997
 2798TIP3   OH229952   4.062   2.438   8.453  0.1144  0.0858  0.3258
 2798TIP3    H129953   4.122   2.384   8.504  0.7365 -0.0569 -0.5517
 2798TIP3    H229954   3.987   2.451   8.511  0.6104 -0.4589  1.1059
 2799TIP3   OH229955   1.815   6.428   8.016 -0.1917  0.0677  0.0433
 2799TIP3    H129956   1.884   6.466   8.070 -1.7367  1.5494  1.0765
 2799TIP3    H229957   1.861   6.392   7.940  1.5486  3.0657 -0.4704
 2800TIP3   OH229958   2.384   3.948   2.072 -0.0479  0.2199  0.3716
 2800TIP3    H129959   2.341   3.886   2.132 -0.2520  0.4637  0.4792
 2800TIP3    H229960   2.457   3.983   2.123  0.6382 -0.6147 -0.0001
 2801TIP3   OH229961   3.315   4.499   0.350  0.1973 -0.4242  0.1354
 2801TIP3    H129962   3.332   4.479   0.442  2.6564 -0.7891 -0.3320
 2801TIP3    H229963   3.221   4.515   0.346 -0.0588 -0.9229  2.6039
 2802TIP3   OH229964   0.507   5.509   1.929  0.9728 -0.2041 -0.4241
 2802TIP3    H129965   0.437   5.545   1.983  0.2566 -1.6431 -0.3386
 2802TIP3    H229966   0.474   5.515   1.839  1.5770  0.8972 -0.5903
 2803TIP3   OH229967   4.628   1.578   8.469 -0.6040 -0.1879  0.2223
 2803TIP3    H129968   4.597   1.649   8.525  2.7975  1.7171 -0.0281
 2803TIP3    H229969   4.673   1.518   8.528 -0.2092 -0.1256 -0.0105
 2804TIP3   OH229970   4.790   0.460   2.217  0.6797  0.3115 -0.0398
 2804TIP3    H129971   4.862   0.397   2.208  1.1333  0.7315  0.5616
 2804TIP3    H229972   4.726   0.416   2.273  0.5410  0.0049 -0.4315
 2805TIP3   OH229973   4.454   2.646   8.813  1.1372  0.5537  0.3828
 2805TIP3    H129974   4.451   2.733   8.772 -0.8547  0.6024  0.5330
 2805TIP3    H229975   4.425   2.661   8.903 -0.4056 -0.3840  0.0919
 2806TIP3   OH229976   6.724   0.272   8.010 -0.2319  0.1544  0.1217
 2806TIP3    H129977   6.661   0.290   8.080 -0.2851 -1.7546  0.6187
 2806TIP3    H229978   6.674   0.227   7.942  0.4360 -0.8128  0.2427
 2807TIP3   OH229979   0.172   1.556   2.799  0.3507  0.0331 -0.4275
 2807TIP3    H129980   0.116   1.546   2.876  0.8336 -1.6119 -0.2543
 2807TIP3    H229981   0.251   1.505   2.820 -0.0472 -1.5591 -2.5094
 2808TIP3   OH229982   4.200   2.751   7.624 -0.0098 -0.0304 -0.2986
 2808TIP3    H129983   4.159   2.729   7.708 -0.3725 -0.1242 -0.5008
 2808TIP3    H229984   4.239   2.837   7.639 -1.3495  0.6310 -0.4759
 2809TIP3   OH229985   1.819   5.658   8.374 -0.0089  0.0499  0.3807
 2809TIP3    H129986   1.827   5.653   8.469  0.6517  0.0413  0.3290
 2809TIP3    H229987   1.729   5.685   8.359 -0.2402 -0.3499  0.9982
 2810TIP3   OH229988   2.060   5.360   7.625  0.9158 -0.1409 -0.3145
 2810TIP3    H129989   2.057   5.265   7.636  1.0054 -0.1502 -0.3631
 2810TIP3    H229990   2.060   5.373   7.530  2.1676 -0.1430 -0.3379
 2811TIP3   OH229991   2.049   2.295   2.764  0.4622  0.1698  0.3448
 2811TIP3    H129992   2.064   2.235   2.691 -1.5493 -1.7113  1.3509
 2811TIP3    H229993   2.094   2.376   2.739  2.6373 -1.4652 -1.4361
 2812TIP3   OH229994   3.056   5.194   0.804  0.3833 -0.2668 -0.2011
 2812TIP3    H129995   3.110   5.193   0.883 -0.9902 -0.1632  0.7806
 2812TIP3    H229996   3.111   5.155   0.736  1.2459 -1.2935  1.0453
 2813TIP3   OH229997   5.404   6.141   1.566 -0.2033  0.0980 -0.0531
 2813TIP3    H129998   5.401   6.229   1.528  2.9021 -0.3982 -1.7156
 2813TIP3    H229999   5.479   6.142   1.625  1.2856 -1.9387 -1.7380
 2814TIP3   OH230000   0.246   4.786   1.403 -0.1948 -0.1916  0.5782
 2814TIP3    H130001   0.323   4.745   1.363 -0.3627 -1.5057  1.5135
 2814TIP3    H230002   0.278   4.870   1.435 -0.0390  0.8780 -2.1523
 2815TIP3   OH230003   4.914   0.648   0.165  0.1020  0.1606  0.2312
 2815TIP3    H130004   4.964   0.704   0.105  1.3388 -0.0844  0.9951
 2815TIP3    H230005   4.841   0.616   0.112  1.2550 -0.2129 -1.2126
 2816TIP3   OH230006   0.296   3.932   0.568 -0.0503 -0.0124  0.5144
 2816TIP3    H130007   0.259   3.864   0.625 -1.8522 -0.2550 -0.8458
 2816TIP3    H230008   0.225   3.995   0.557 -0.5021 -0.8801 -2.8532
 2817TIP3   OH230009   2.255   0.074   0.670  0.5613 -0.1543 -0.0598
 2817TIP3    H130010   2.287   0.157   0.635 -2.0159  1.4536  1.1255
 2817TIP3    H230011   2.288   0.072   0.760 -2.2070  1.4019  1.0918
 2818TIP3   OH230012   1.021   4.360   1.412 -0.0704  0.1757  0.6237
 2818TIP3    H130013   0.937   4.331   1.375  0.5865  0.3924 -1.1336
 2818TIP3    H230014   1.058   4.417   1.345  0.4615  1.9724  2.3540
 2819TIP3   OH230015   3.838   1.609   1.397  0.1239  0.0244 -0.2561
 2819TIP3    H130016   3.820   1.665   1.322 -1.1449  1.0195  0.7607
 2819TIP3    H230017   3.753   1.573   1.421  0.4998 -0.1840  0.7865
 2820TIP3   OH230018   5.526   5.751   7.803  0.0118  0.4562  0.0704
 2820TIP3    H130019   5.565   5.823   7.753 -0.9943 -0.5436 -2.3697
 2820TIP3    H230020   5.434   5.749   7.773 -0.1201 -1.4606  0.4565
 2821TIP3   OH230021   5.195   0.283   7.303  0.0169  0.4504 -0.8786
 2821TIP3    H130022   5.268   0.258   7.246 -0.7312  1.0571 -2.1719
 2821TIP3    H230023   5.128   0.217   7.286 -0.1622  0.5594 -0.5990
 2822TIP3   OH230024   2.813   2.354   0.535 -0.3522  0.2116 -0.3299
 2822TIP3    H130025   2.887   2.349   0.596  0.2359 -0.2549 -1.0722
 2822TIP3    H230026   2.787   2.263   0.521 -1.6877  0.4082  0.6475
 2823TIP3   OH230027   0.425   2.226   2.606 -0.3750 -0.1164  0.2339
 2823TIP3    H130028   0.348   2.268   2.643 -0.4686  1.3405 -1.4647
 2823TIP3    H230029   0.403   2.133   2.602 -2.5515  0.3961 -1.2721
 2824TIP3   OH230030   0.018   1.280   0.130 -0.1602  0.4988  0.5985
 2824TIP3    H130031   0.093   1.311   0.180  0.8665  0.0819 -0.6389
 2824TIP3    H230032  -0.029   1.359   0.105  1.4512  1.0198 -1.0184
 2825TIP3   OH230033   4.505   0.754   6.935 -0.6166  0.5417  0.1874
 2825TIP3    H130034   4.458   0.672   6.946 -0.9270  0.8163  0.9982
 2825TIP3    H230035   4.571   0.754   7.004  0.7005  0.0963 -1.0284
 2826TIP3   OH230036   3.521   6.586   7.242  0.0492  0.0855 -0.2564
 2826TIP3    H130037   3.514   6.574   7.147 -1.0561  1.0110 -0.3303
 2826TIP3    H230038   3.584   6.521   7.271 -1.3834 -1.8833 -1.3044
 2827TIP3   OH230039   4.221   2.484   1.920  0.2457 -0.6243  0.7342
 2827TIP3    H130040   4.214   2.568   1.874 -2.3308 -2.0735 -1.8102
 2827TIP3    H230041   4.300   2.443   1.884  0.3520 -0.1648  0.4397
 2828TIP3   OH230042   1.136   1.906   1.618  0.5183 -0.6466  0.3492
 2828TIP3    H130043   1.091   1.857   1.687  1.0824 -0.1806  1.0647
 2828TIP3    H230044   1.207   1.849   1.590  0.3245 -0.8124  0.1963
 2829TIP3   OH230045   2.989   4.074   1.568  0.6947 -0.6060  1.1078
 2829TIP3    H130046   2.894   4.072   1.570  0.5595  2.0870  3.4947
 2829TIP3    H230047   3.015   4.006   1.630  0.3023 -0.8042  1.0585
 2830TIP3   OH230048   4.336   3.790   8.191 -0.1857 -0.2714 -0.3285
 2830TIP3    H130049   4.323   3.724   8.123  1.4567  0.7511 -1.7002
 2830TIP3    H230050   4.270   3.857   8.171  0.5111  0.1867 -1.1579
 2831TIP3   OH230051   4.399   0.153   7.439 -0.2800  0.0402 -0.4712
 2831TIP3    H130052   4.462   0.095   7.482 -1.1147 -0.2050  0.4755
 2831TIP3    H230053   4.315   0.131   7.480 -0.4556  2.7842  0.8668
 2832TIP3   OH230054   5.854   1.429   0.456 -0.3062 -0.2589 -0.0197
 2832TIP3    H130055   5.914   1.504   0.457 -0.1164 -0.3525 -1.4779
 2832TIP3    H230056   5.769   1.466   0.433 -0.1798 -0.4912 -0.9015
 2833TIP3   OH230057   4.072   5.752   8.693  0.3390  0.2444 -0.5416
 2833TIP3    H130058   3.987   5.731   8.655  0.3578  0.5171 -0.7412
 2833TIP3    H230059   4.125   5.783   8.619  0.1012  1.6237 -0.1706
 2834TIP3   OH230060   4.997   2.497   8.437  0.4168 -0.3315  0.0753
 2834TIP3    H130061   5.001   2.404   8.461  1.5997 -0.2729  0.1984
 2834TIP3    H230062   4.916   2.529   8.476 -0.4677 -1.5141 -0.7408
 2835TIP3   OH230063   2.602   1.155   2.058 -0.5874  0.0557  0.3071
 2835TIP3    H130064   2.522   1.188   2.099  0.8470 -0.4582  3.9532
 2835TIP3    H230065   2.620   1.215   1.986 -2.9772  1.5523  0.8684
 2836TIP3   OH230066   6.459   1.000   8.087  0.5872 -0.4422  0.0768
 2836TIP3    H130067   6.400   1.018   8.160  0.6810 -1.1455  0.3349
 2836TIP3    H230068   6.529   1.064   8.097 -0.0326  0.2813 -0.1299
 2837TIP3   OH230069   3.483   2.275   0.456  0.2808  0.1420  0.0956
 2837TIP3    H130070   3.402   2.230   0.429  0.5390 -0.4274  0.2455
 2837TIP3    H230071   3.538   2.272   0.378  0.5795 -0.4619  0.3247
 2838TIP3   OH230072   2.898   2.989   0.489  0.2930  0.5097 -0.3829
 2838TIP3    H130073   2.873   3.045   0.562  0.4227 -0.1875  0.2171
 2838TIP3    H230074   2.858   2.904   0.510  2.7167 -0.5265  0.3894
 2839TIP3   OH230075   0.517   6.297   7.718 -0.1368 -0.6307 -0.2945
 2839TIP3    H130076   0.448   6.336   7.664  0.1951 -1.4232 -1.3246
 2839TIP3    H230077   0.487   6.207   7.733 -0.1833 -0.4516  0.8003
 2840TIP3   OH230078   1.483   4.726   1.866  0.2482  0.3304 -0.0856
 2840TIP3    H130079   1.550   4.692   1.807  0.2164  0.2038 -0.0475
 2840TIP3    H230080   1.504   4.689   1.951 -2.4553 -3.4917 -0.8268
 2841TIP3   OH230081   0.377   5.420   2.884  0.1350 -0.5332  0.3823
 2841TIP3    H130082   0.391   5.389   2.794 -0.1617 -1.2321  0.5655
 2841TIP3    H230083   0.414   5.351   2.938  2.4442  0.9370  0.8075
 2842TIP3   OH230084   3.835   5.738   7.863  0.3245 -0.3763 -0.1073
 2842TIP3    H130085   3.864   5.652   7.834  0.7438 -0.7117  1.2150
 2842TIP3    H230086   3.743   5.742   7.840  0.0771 -1.5485  0.6106
 2843TIP3   OH230087   2.114   1.915   8.803 -0.2942  0.4062 -0.2268
 2843TIP3    H130088   2.087   1.835   8.850 -0.9076  0.3915 -0.5954
 2843TIP3    H230089   2.207   1.902   8.786 -0.8277 -1.2863 -2.2857
 2844TIP3   OH230090   4.654   3.959   8.293  0.5614  0.5487 -0.0461
 2844TIP3    H130091   4.565   3.961   8.327  0.3042 -0.0753 -0.6716
 2844TIP3    H230092   4.648   3.908   8.212  1.4359  0.7275 -0.2341
 2845TIP3   OH230093   1.139   0.360   7.416 -0.4273  0.0042 -0.6058
 2845TIP3    H130094   1.172   0.271   7.407  0.2415  0.1852 -0.0285
 2845TIP3    H230095   1.079   0.371   7.342  0.9211 -0.2728 -1.7769
 2846TIP3   OH230096   2.585   2.482   0.467 -0.0543  0.0236 -0.0500
 2846TIP3    H130097   2.672   2.445   0.484  0.7219  1.5537 -0.5039
 2846TIP3    H230098   2.600   2.549   0.400 -1.5587  0.4485 -0.0025
 2847TIP3   OH230099   4.427   0.472   2.439 -0.1310  0.3417 -0.3027
 2847TIP3    H130100   4.341   0.437   2.415 -0.7666  0.0026  2.1660
 2847TIP3    H230101   4.408   0.543   2.500  1.3402  0.4574  0.0676
 2848TIP3   OH230102   0.415   5.176   1.350  0.0719  0.5304  0.6340
 2848TIP3    H130103   0.402   5.105   1.413  0.2362  1.1564  1.3865
 2848TIP3    H230104   0.473   5.139   1.284 -2.4324 -1.1276 -0.8048
 2849TIP3   OH230105   2.224   3.834   8.488 -0.2203  0.1018 -0.7549
 2849TIP3    H130106   2.189   3.921   8.469  0.4497  0.2891 -1.1612
 2849TIP3    H230107   2.319   3.846   8.490 -0.1692 -0.1881  1.3731
 2850TIP3   OH230108   0.678   5.413   1.534 -0.1842  0.0660  0.5246
 2850TIP3    H130109   0.734   5.342   1.564 -0.6524 -0.3386  0.4464
 2850TIP3    H230110   0.596   5.402   1.583 -0.5061  0.1418  0.0127
 2851TIP3   OH230111   0.302   1.121   7.703  0.0658  0.2384 -0.3129
 2851TIP3    H130112   0.347   1.166   7.631  1.6638 -0.5249  0.1503
 2851TIP3    H230113   0.286   1.033   7.669  1.8984 -0.4975  0.6202
 2852TIP3   OH230114   2.741   1.357   2.280 -0.5017 -0.5494 -0.1657
 2852TIP3    H130115   2.818   1.392   2.323 -0.6219  0.8385 -1.0355
 2852TIP3    H230116   2.771   1.333   2.192 -1.3009  1.3089 -1.0087
 2853TIP3   OH230117   5.623   4.129   8.286 -0.5930  0.9063 -0.5836
 2853TIP3    H130118   5.660   4.066   8.349 -0.5956 -0.2923 -1.7337
 2853TIP3    H230119   5.698   4.161   8.237 -0.8141  0.1599 -1.4288
 2854TIP3   OH230120   0.861   3.425   8.833  0.0075 -0.0171  0.3670
 2854TIP3    H130121   0.778   3.411   8.787  1.1247 -0.7851 -1.5488
 2854TIP3    H230122   0.853   3.512   8.872 -1.2387  0.4237 -0.8090
 2855TIP3   OH230123   3.381   1.039   2.023  0.2589 -0.0776  0.1410
 2855TIP3    H130124   3.397   1.132   2.008 -2.2966  0.7634  2.1025
 2855TIP3    H230125   3.418   1.021   2.110  0.6509 -0.9152 -0.1791
 2856TIP3   OH230126   4.809   0.402   7.361 -0.2355  0.2134 -0.3697
 2856TIP3    H130127   4.777   0.344   7.430  0.5071  0.5982  0.2976
 2856TIP3    H230128   4.834   0.342   7.290 -1.4155 -0.1528 -0.5100
 2857TIP3   OH230129   0.535   0.422   0.494  0.3592  0.2179 -0.0126
 2857TIP3    H130130   0.496   0.342   0.458 -1.6443  0.7022  0.9110
 2857TIP3    H230131   0.463   0.463   0.543  2.4134  0.5089  3.0073
 2858TIP3   OH230132   6.452   3.954   2.283 -0.0759  0.3975  0.2380
 2858TIP3    H130133   6.433   3.864   2.254  1.4247  0.3538 -0.7022
 2858TIP3    H230134   6.486   3.998   2.206  3.7261  0.3906  1.7082
 2859TIP3   OH230135   2.084   1.539   3.259  0.0270  0.2918  0.2215
 2859TIP3    H130136   2.089   1.614   3.201  0.9109  0.8356  0.9800
 2859TIP3    H230137   2.102   1.464   3.203 -0.9381  0.6157 -0.5597
 2860TIP3   OH230138   4.563   3.937   0.024  0.4590 -0.0387  0.3360
 2860TIP3    H130139   4.518   3.854   0.005 -0.5806  0.6326 -0.2399
 2860TIP3    H230140   4.507   4.004  -0.016  1.7077  0.8819  0.0800
 2861TIP3   OH230141   0.293   0.581   0.960 -0.0707  0.3148  0.2190
 2861TIP3    H130142   0.310   0.672   0.984  1.6711  0.1470 -0.3135
 2861TIP3    H230143   0.272   0.539   1.043  0.6484  0.8733  0.6982
 2862TIP3   OH230144   5.089   2.725   7.476 -0.4905  0.1376 -0.4108
 2862TIP3    H130145   5.091   2.640   7.518  1.0936  0.5189  0.3527
 2862TIP3    H230146   5.061   2.707   7.387  0.1519 -1.2249 -0.3614
 2863TIP3   OH230147   5.843   6.225   1.233  0.4596 -0.4293  0.3405
 2863TIP3    H130148   5.910   6.158   1.239 -0.7207 -1.6555  0.2871
 2863TIP3    H230149   5.763   6.178   1.208  0.0169  1.2506 -1.7276
 2864TIP3   OH230150   2.899   6.774   2.682 -0.1767  0.1548 -0.3343
 2864TIP3    H130151   2.989   6.806   2.680  0.2931 -1.0649 -0.0287
 2864TIP3    H230152   2.845   6.853   2.683  0.6858  1.0851 -4.8318
 2865TIP3   OH230153   5.565   4.067   6.744 -0.4911 -0.3312 -0.0580
 2865TIP3    H130154   5.591   4.075   6.836  1.5291 -2.8169 -0.3031
 2865TIP3    H230155   5.641   4.097   6.695 -1.6566  1.2483 -0.9908
 2866TIP3   OH230156   5.773   1.844   1.497 -0.2550  0.7698 -0.2092
 2866TIP3    H130157   5.851   1.818   1.447 -0.1842  1.7931 -0.6730
 2866TIP3    H230158   5.735   1.762   1.527  0.5741  0.2105 -0.6417
 2867TIP3   OH230159   2.096   0.848   1.738 -0.2485 -0.2660 -0.2780
 2867TIP3    H130160   2.053   0.898   1.807  0.1884  1.4883 -1.2238
 2867TIP3    H230161   2.112   0.762   1.777 -0.4307  0.5219  1.6239
 2868TIP3   OH230162   3.498   0.830   1.873  0.0488 -0.0296  0.5841
 2868TIP3    H130163   3.462   0.908   1.917 -0.6363 -0.2640  0.4529
 2868TIP3    H230164   3.463   0.756   1.923 -0.0975 -0.2772  0.1232
 2869TIP3   OH230165   1.269   5.911   7.078 -0.0468  0.3421 -0.3659
 2869TIP3    H130166   1.213   5.843   7.040 -0.7531  0.6826  0.0405
 2869TIP3    H230167   1.358   5.877   7.070 -0.2969 -0.1457 -1.1684
 2870TIP3   OH230168   1.557   0.814   1.746  0.1474 -0.2113  0.8936
 2870TIP3    H130169   1.599   0.733   1.774 -2.2176 -1.9153 -0.1838
 2870TIP3    H230170   1.552   0.807   1.651 -2.3709 -0.0703  0.9455
 2871TIP3   OH230171   3.694   2.176   1.253  0.2880  0.0047  0.1814
 2871TIP3    H130172   3.735   2.260   1.235 -1.0228  0.2420 -2.2186
 2871TIP3    H230173   3.612   2.198   1.298  1.1399 -0.2153  1.8918
 2872TIP3   OH230174   2.390   1.306   1.880 -0.1571 -0.4413 -0.7196
 2872TIP3    H130175   2.316   1.367   1.878 -0.1223 -0.3893 -0.4466
 2872TIP3    H230176   2.349   1.220   1.867 -0.4108 -0.5362  0.5539
 2873TIP3   OH230177   4.946   5.727   6.791 -0.2170 -0.5690  0.1355
 2873TIP3    H130178   4.961   5.819   6.813  0.0379 -0.6010  0.1013
 2873TIP3    H230179   4.869   5.728   6.734  0.2746 -0.2901 -0.5372
 2874TIP3   OH230180   0.508   2.204   2.282  0.2907 -0.0791  0.3361
 2874TIP3    H130181   0.539   2.268   2.346  0.1966  0.3254 -0.0086
 2874TIP3    H230182   0.415   2.196   2.300  0.3650 -0.3682  0.5901
 2875TIP3   OH230183   0.512   1.749   1.913  0.0497 -0.0434  0.6204
 2875TIP3    H130184   0.526   1.817   1.979  0.8713  1.9320 -1.4839
 2875TIP3    H230185   0.447   1.691   1.953 -1.9157  2.8306  1.9252
 2876TIP3   OH230186   4.228   5.239   8.373  0.3531 -0.7255 -0.2572
 2876TIP3    H130187   4.143   5.237   8.417  0.8362 -1.0451  0.7080
 2876TIP3    H230188   4.216   5.184   8.296 -0.7645  0.5521 -1.0377
 2877TIP3   OH230189   2.163   1.237   1.188 -0.5130 -0.0475 -0.3463
 2877TIP3    H130190   2.253   1.220   1.215 -0.5253  1.5961  0.8587
 2877TIP3    H230191   2.111   1.224   1.268 -1.3365 -0.7290 -0.9667
 2878TIP3   OH230192   5.621   0.175   1.290 -0.5203 -0.1825 -0.2154
 2878TIP3    H130193   5.713   0.165   1.315 -1.0869  0.8270  2.6409
 2878TIP3    H230194   5.611   0.269   1.272 -0.9647 -0.3124 -0.6681
 2879TIP3   OH230195   3.795   6.498   2.178 -0.8659  0.0919  0.6829
 2879TIP3    H130196   3.726   6.438   2.149  0.5875 -0.0201 -3.1613
 2879TIP3    H230197   3.842   6.449   2.245 -1.4089 -2.0014 -0.3705
 2880TIP3   OH230198   3.099   1.123   1.020  0.0274  0.0609  0.4175
 2880TIP3    H130199   3.010   1.124   1.054  0.2039  1.1767  0.8911
 2880TIP3    H230200   3.154   1.106   1.096  0.4222  2.5831  0.7829
 2881TIP3   OH230201   5.568   4.537   0.498  0.8737  0.1508 -0.4140
 2881TIP3    H130202   5.530   4.624   0.486  1.0699  0.1297 -1.2648
 2881TIP3    H230203   5.540   4.488   0.421  0.8873 -0.4948 -0.0105
 2882TIP3   OH230204   0.407   4.695   0.149 -0.4992 -0.3392 -0.8361
 2882TIP3    H130205   0.410   4.790   0.143  0.9357 -0.3957 -1.3153
 2882TIP3    H230206   0.481   4.671   0.205  1.2315 -1.3150 -3.3415
 2883TIP3   OH230207   4.952   5.165   8.635 -0.2657 -1.0506 -0.7502
 2883TIP3    H130208   4.899   5.102   8.684  0.2211  0.1715  1.4578
 2883TIP3    H230209   5.034   5.119   8.620 -0.2861 -1.3297 -0.0729
 2884TIP3   OH230210   2.753   0.767   0.086  0.0102  0.3704  0.6491
 2884TIP3    H130211   2.776   0.777   0.179  2.0933 -1.5935  0.4244
 2884TIP3    H230212   2.723   0.676   0.079  0.2769  0.3656 -0.6808
 2885TIP3   OH230213   5.218   5.069   8.518 -0.1756 -0.5373  1.0699
 2885TIP3    H130214   5.261   5.155   8.517 -1.3823  0.1027  1.5991
 2885TIP3    H230215   5.277   5.014   8.569  0.7970 -0.1357  0.4240
 2886TIP3   OH230216   2.717   6.549   8.226  0.4917 -0.1885 -0.6844
 2886TIP3    H130217   2.735   6.482   8.160  1.4654 -0.4238 -0.1929
 2886TIP3    H230218   2.734   6.507   8.310 -1.3892 -0.1033 -0.2057
 2887TIP3   OH230219   4.037   5.016   0.882  0.2488  0.3061  0.0741
 2887TIP3    H130220   3.951   4.976   0.871  0.9849 -1.0571 -1.1224
 2887TIP3    H230221   4.074   4.971   0.959 -0.4953  1.6842  1.2834
 2888TIP3   OH230222   3.929   2.839   0.402 -0.6437  0.2594 -0.0442
 2888TIP3    H130223   3.933   2.801   0.490 -0.2861  0.7400  0.1488
 2888TIP3    H230224   3.912   2.932   0.417  0.3848  0.5266 -0.4469
 2889TIP3   OH230225   4.414   5.898   7.403 -0.3859  0.7598  0.1517
 2889TIP3    H130226   4.353   5.900   7.329  0.8127  0.4304 -0.8666
 2889TIP3    H230227   4.501   5.894   7.363  0.3896  2.2548  1.5673
 2890TIP3   OH230228   2.124   1.722   7.553 -0.8578 -0.5211  0.3957
 2890TIP3    H130229   2.110   1.795   7.492 -3.3345 -0.7747  0.5735
 2890TIP3    H230230   2.169   1.656   7.501  2.8945  1.5900  0.6225
 2891TIP3   OH230231   0.115   0.704   8.299 -0.5748 -0.3697 -1.1671
 2891TIP3    H130232   0.047   0.758   8.260  0.1339  0.0731 -1.8245
 2891TIP3    H230233   0.070   0.653   8.366 -1.3079  0.8426 -0.7076
 2892TIP3   OH230234   5.017   2.753   0.500 -0.2487  0.0650 -0.5512
 2892TIP3    H130235   5.064   2.771   0.418  2.6782 -0.3388  0.9094
 2892TIP3    H230236   5.025   2.834   0.550 -2.9095  0.6678 -0.9389
 2893TIP3   OH230237   1.875   1.598   2.729  0.1334 -0.3425  0.2390
 2893TIP3    H130238   1.862   1.597   2.823  0.4426 -3.4816  0.3688
 2893TIP3    H230239   1.787   1.601   2.692  0.0242  1.2702  0.5732
 2894TIP3   OH230240   5.601   3.417   7.688 -0.4742 -0.2309  0.0019
 2894TIP3    H130241   5.669   3.447   7.748  0.1016 -1.1273 -0.1863
 2894TIP3    H230242   5.624   3.456   7.604 -1.7111  1.6647  0.4747
 2895TIP3   OH230243   4.610   3.612   2.896 -0.2389  0.0390 -0.3661
 2895TIP3    H130244   4.608   3.682   2.962  1.4231  0.5218 -0.7830
 2895TIP3    H230245   4.567   3.650   2.819  1.1606  0.8575 -0.7840
 2896TIP3   OH230246   6.725   3.103   7.461  0.1123  0.1755  0.0852
 2896TIP3    H130247   6.796   3.049   7.428  0.9897  0.9223  0.7046
 2896TIP3    H230248   6.744   3.191   7.428 -1.3984  0.1053 -1.0716
 2897TIP3   OH230249   6.454   5.338   2.222 -0.1164 -0.2080 -0.5957
 2897TIP3    H130250   6.486   5.311   2.136  1.4167 -0.7506  0.0873
 2897TIP3    H230251   6.380   5.281   2.240 -0.2010 -0.3504 -1.3980
 2898TIP3   OH230252   4.242   6.112   0.750 -0.1597  0.3453 -0.0541
 2898TIP3    H130253   4.167   6.067   0.790 -1.4862  1.5958 -0.9956
 2898TIP3    H230254   4.264   6.059   0.674 -0.2193  0.0713  0.1180
 2899TIP3   OH230255   0.297   0.990   2.476  0.4886 -0.3507  0.0350
 2899TIP3    H130256   0.319   1.067   2.529  0.9531 -0.4165 -0.0624
 2899TIP3    H230257   0.357   0.994   2.402  0.0300 -0.4138 -0.3444
 2900TIP3   OH230258   5.447   1.192   0.690 -0.0487 -0.1715  0.5070
 2900TIP3    H130259   5.461   1.140   0.611 -2.0656 -1.1510  0.7370
 2900TIP3    H230260   5.493   1.274   0.673 -0.1916 -0.4775 -1.5714
 2901TIP3   OH230261   2.688   4.993   8.553 -0.4078 -0.5049 -0.2965
 2901TIP3    H130262   2.657   4.903   8.541 -0.9003 -0.4184  0.2747
 2901TIP3    H230263   2.770   4.983   8.602  0.0536 -0.6876 -1.0814
 2902TIP3   OH230264   2.310   6.427   8.248 -0.6708 -0.0322  0.2771
 2902TIP3    H130265   2.344   6.498   8.302 -1.2758  0.5559 -0.1071
 2902TIP3    H230266   2.292   6.356   8.310 -1.9574  0.8528  0.9577
 2903TIP3   OH230267   1.604   2.121   1.236  0.0049 -0.4216 -0.4506
 2903TIP3    H130268   1.649   2.045   1.200  0.0508 -0.0929 -1.0988
 2903TIP3    H230269   1.595   2.102   1.329 -0.1069 -1.2789 -0.6323
 2904TIP3   OH230270   0.590   2.909   8.560  0.0935  0.5895  0.2380
 2904TIP3    H130271   0.604   2.955   8.477  0.1716  0.1183 -0.0143
 2904TIP3    H230272   0.639   2.827   8.550  0.6050  0.7921  0.9834
 2905TIP3   OH230273   6.240   3.655   0.529 -0.3469 -0.3477 -0.5972
 2905TIP3    H130274   6.320   3.674   0.479 -0.3715  0.9999 -0.1573
 2905TIP3    H230275   6.263   3.579   0.582 -0.0670 -1.3290 -2.0541
 2906TIP3   OH230276   0.577   3.204   1.803 -0.3777  0.3667 -0.5860
 2906TIP3    H130277   0.507   3.214   1.868  0.8546  2.0922  0.5346
 2906TIP3    H230278   0.611   3.116   1.819 -1.7882 -0.2301 -0.6769
 2907TIP3   OH230279   2.097   3.279   8.623 -0.4741 -0.3127  0.4185
 2907TIP3    H130280   2.053   3.248   8.544  0.7434 -0.9391 -0.0459
 2907TIP3    H230281   2.167   3.215   8.639  0.4087  0.7438  0.9871
 2908TIP3   OH230282   3.684   1.694   0.451  0.4036  0.3182 -0.2746
 2908TIP3    H130283   3.651   1.780   0.424  0.6054  0.6911  0.6445
 2908TIP3    H230284   3.609   1.635   0.445  0.2712  0.5484 -0.9324
 2909TIP3   OH230285   5.770   2.917   8.207 -0.3574  0.2827 -1.1606
 2909TIP3    H130286   5.775   2.955   8.120 -2.0223 -0.5401 -1.6593
 2909TIP3    H230287   5.677   2.924   8.231 -0.3995 -1.7902 -0.5294
 2910TIP3   OH230288   5.066   6.592   2.826  0.5654 -0.6602 -0.4152
 2910TIP3    H130289   5.125   6.631   2.891 -1.8887  1.5238  0.6494
 2910TIP3    H230290   4.982   6.585   2.872 -0.9645 -0.1684 -2.9869
 2911TIP3   OH230291   5.822   5.550   7.770 -0.6129 -0.2769  0.4963
 2911TIP3    H130292   5.826   5.592   7.684  0.0463 -1.0545  0.1347
 2911TIP3    H230293   5.747   5.491   7.764 -0.5826 -0.3121  0.4611
 2912TIP3   OH230294   2.938   2.306   2.534  0.2984 -0.1252 -0.7024
 2912TIP3    H130295   2.860   2.352   2.565  0.7928  0.6390 -0.5837
 2912TIP3    H230296   2.938   2.223   2.582 -0.4460 -0.1397 -0.7203
 2913TIP3   OH230297   5.756   2.365   1.915 -0.2377 -0.8242 -0.3694
 2913TIP3    H130298   5.757   2.269   1.909  0.8538 -0.9366  1.0915
 2913TIP3    H230299   5.790   2.384   2.002  2.7237  0.9884 -1.7750
 2914TIP3   OH230300   0.750   0.299   7.380 -0.4090 -0.6819 -0.1806
 2914TIP3    H130301   0.828   0.247   7.357  1.7952  2.7240 -1.0557
 2914TIP3    H230302   0.710   0.320   7.296 -1.4749 -1.1547  0.1868
 2915TIP3   OH230303   3.436   2.724   2.550 -0.0647 -0.5163 -0.4399
 2915TIP3    H130304   3.449   2.749   2.642 -1.1905  0.9209 -0.6424
 2915TIP3    H230305   3.509   2.765   2.503 -0.3823  0.1094 -0.3949
 2916TIP3   OH230306   6.062   3.694   2.467  0.1042  0.3348  0.2939
 2916TIP3    H130307   6.153   3.688   2.440  0.2005  1.0712  0.4437
 2916TIP3    H230308   6.012   3.696   2.385  0.2457  0.3293  0.2086
 2917TIP3   OH230309   1.478   0.161   1.161 -0.0971 -0.6188  0.2856
 2917TIP3    H130310   1.402   0.144   1.217 -0.5054 -1.1987 -0.4116
 2917TIP3    H230311   1.528   0.227   1.208 -1.9402  1.1369 -0.0519
 2918TIP3   OH230312   3.934   6.403   2.402  0.2831 -0.2490 -0.2197
 2918TIP3    H130313   3.996   6.405   2.475  2.2655 -1.9713 -1.7525
 2918TIP3    H230314   3.887   6.320   2.414 -0.1413 -0.0290 -0.3440
 2919TIP3   OH230315   5.192   5.024   1.785  0.2340 -0.0860  0.0195
 2919TIP3    H130316   5.169   4.942   1.829  0.2868  0.1722  0.5403
 2919TIP3    H230317   5.239   5.074   1.851 -0.3115  0.6120 -0.1023
 2920TIP3   OH230318   0.884   1.703   8.607  0.2950  0.4191 -0.5166
 2920TIP3    H130319   0.882   1.793   8.639  0.1343  0.0696  0.4963
 2920TIP3    H230320   0.936   1.707   8.527  0.3573  1.3965 -0.4375
 2921TIP3   OH230321   6.612   1.663   6.948 -0.5790  0.0386 -0.2634
 2921TIP3    H130322   6.653   1.708   6.874  1.1443  0.3727  0.8272
 2921TIP3    H230323   6.672   1.591   6.969 -1.4044 -0.4901  0.3518
 2922TIP3   OH230324   2.575   6.454   8.707 -0.3747 -0.1442 -0.6067
 2922TIP3    H130325   2.621   6.431   8.788  1.0221  1.7050 -0.8177
 2922TIP3    H230326   2.528   6.535   8.728 -1.6734 -0.7446 -1.0873
 2923TIP3   OH230327   5.044   6.091   1.628  0.0471  0.1733 -0.1183
 2923TIP3    H130328   5.082   6.025   1.571 -1.4190 -0.0634 -0.8514
 2923TIP3    H230329   4.954   6.101   1.598  0.5079  3.3369 -0.7900
 2924TIP3   OH230330   0.344   4.267   7.212  0.1128 -0.1814 -0.6529
 2924TIP3    H130331   0.350   4.268   7.117 -0.7846 -0.4742 -0.7188
 2924TIP3    H230332   0.325   4.176   7.234  0.5863 -0.1702 -0.1670
 2925TIP3   OH230333   3.942   2.966   1.658 -0.2634 -0.0338 -0.4296
 2925TIP3    H130334   3.891   2.937   1.734  0.0795 -0.1578 -0.2461
 2925TIP3    H230335   3.892   3.040   1.623 -0.5608 -0.1418 -0.2405
 2926TIP3   OH230336   6.082   4.558   2.266  0.4386 -0.2385  0.1412
 2926TIP3    H130337   6.039   4.628   2.217  0.3533 -1.1838 -1.1902
 2926TIP3    H230338   6.034   4.552   2.348 -0.4146  0.3523 -0.3086
 2927TIP3   OH230339   4.258   6.338   0.624 -0.1757  0.0147  0.8150
 2927TIP3    H130340   4.177   6.388   0.637 -0.0803  0.2185  0.6339
 2927TIP3    H230341   4.252   6.267   0.688 -0.5538 -0.0415  0.7221
 2928TIP3   OH230342   4.808   4.514   1.742 -0.3372  0.3095 -0.2448
 2928TIP3    H130343   4.892   4.468   1.738  0.1803  0.8329  2.5403
 2928TIP3    H230344   4.824   4.597   1.696  0.7522  0.4394  0.3101
 2929TIP3   OH230345   6.278   2.293   7.398 -0.3402  0.1581 -0.6939
 2929TIP3    H130346   6.191   2.253   7.389 -0.7911  0.7337  0.8406
 2929TIP3    H230347   6.268   2.381   7.363 -0.6335  0.5305  0.2965
 2930TIP3   OH230348   1.886   4.156   8.254  0.0802 -0.0145 -0.0187
 2930TIP3    H130349   1.809   4.115   8.295  1.0892  1.3690  3.5708
 2930TIP3    H230350   1.849   4.227   8.202 -1.1343  0.1662  1.0298
 2931TIP3   OH230351   2.467   3.516   8.082 -0.4420 -0.0499 -0.1554
 2931TIP3    H130352   2.487   3.609   8.080 -1.4711  0.2160  0.6349
 2931TIP3    H230353   2.424   3.499   7.998 -2.1529  0.6843  0.5269
 2932TIP3   OH230354   2.419   2.339   2.799  0.6494  0.3296 -0.0069
 2932TIP3    H130355   2.408   2.246   2.780  3.6825 -0.7644  2.6846
 2932TIP3    H230356   2.491   2.367   2.742 -1.8282  1.8663 -2.6451
 2933TIP3   OH230357   3.157   4.185   0.625  0.4382  0.0892  0.1135
 2933TIP3    H130358   3.126   4.166   0.713  0.2152  1.9271  0.4595
 2933TIP3    H230359   3.233   4.241   0.637  0.1366  0.7400 -0.8665
 2934TIP3   OH230360   0.424   2.487   7.663  0.1423  0.3834 -0.0277
 2934TIP3    H130361   0.391   2.432   7.591  2.0233  1.6751 -1.9978
 2934TIP3    H230362   0.428   2.428   7.738 -1.9068 -1.0321 -0.9578
 2935TIP3   OH230363   3.983   0.318   1.044  0.5149 -0.7662  0.1563
 2935TIP3    H130364   4.076   0.307   1.063  0.8499  1.2595 -0.0808
 2935TIP3    H230365   3.975   0.295   0.951  0.7089 -1.2489  0.2572
 2936TIP3   OH230366   4.235   0.958   7.411  0.1002  0.1582 -0.3613
 2936TIP3    H130367   4.304   0.916   7.360 -0.2781 -1.7227  0.5656
 2936TIP3    H230368   4.155   0.910   7.387 -0.7115  1.5823 -0.6164
 2937TIP3   OH230369   0.874   0.287   1.903  0.1817 -0.6591 -0.1887
 2937TIP3    H130370   0.967   0.274   1.885  0.9378  0.3540  2.5373
 2937TIP3    H230371   0.872   0.342   1.981 -2.7326 -0.9409  0.0427
 2938TIP3   OH230372   5.126   2.326   7.363  0.1541 -0.2060 -0.2744
 2938TIP3    H130373   5.179   2.328   7.284 -1.1106  0.7107 -1.1508
 2938TIP3    H230374   5.056   2.264   7.343  0.0013 -0.2043  0.2403
 2939TIP3   OH230375   3.519   3.260   7.187  0.3632 -0.6723  0.0113
 2939TIP3    H130376   3.585   3.261   7.118 -1.4518 -0.0183 -1.8236
 2939TIP3    H230377   3.453   3.199   7.157 -1.7009  1.4700 -0.1342
 2940TIP3   OH230378   0.973   2.358   1.515  0.2803 -0.6358 -0.1606
 2940TIP3    H130379   0.965   2.446   1.551  0.8035  0.1803 -1.9718
 2940TIP3    H230380   0.943   2.365   1.425  2.7584 -1.6900 -1.1785
 2941TIP3   OH230381   2.295   3.116   2.137 -0.3958 -0.2578 -0.0936
 2941TIP3    H130382   2.201   3.131   2.145 -0.1619  0.5694  1.4810
 2941TIP3    H230383   2.319   3.162   2.056 -1.2743 -0.1079 -0.2804
 2942TIP3   OH230384   5.924   0.495   1.619 -0.0694  0.0559  0.6515
 2942TIP3    H130385   6.007   0.448   1.607  0.4884  1.4744 -1.5903
 2942TIP3    H230386   5.860   0.444   1.569  0.7560  2.0327 -2.7392
 2943TIP3   OH230387   1.434   6.727   8.745  0.3208  0.4578  0.2373
 2943TIP3    H130388   1.347   6.739   8.706 -0.3073 -0.6602  1.2400
 2943TIP3    H230389   1.493   6.729   8.670 -0.9864 -3.1447 -1.1219
 2944TIP3   OH230390   5.306   1.764   2.814 -0.6094 -0.0518  0.4232
 2944TIP3    H130391   5.282   1.676   2.842 -0.8225  0.0808  0.6561
 2944TIP3    H230392   5.325   1.755   2.720  1.1241 -0.7040  0.8014
 2945TIP3   OH230393   4.862   6.042   8.649 -0.1269 -0.6002  0.1460
 2945TIP3    H130394   4.791   6.039   8.585  0.4513 -1.5274 -0.4767
 2945TIP3    H230395   4.834   6.108   8.712 -1.6920 -1.1606  0.0904
 2946TIP3   OH230396   5.805   3.479   7.194  0.8913  0.3513 -0.1429
 2946TIP3    H130397   5.793   3.548   7.128 -0.2487 -0.2040 -0.5383
 2946TIP3    H230398   5.764   3.401   7.155 -1.4997  0.4408  1.9293
 2947TIP3   OH230399   0.873   5.010   8.634  0.6116  0.3509  0.4253
 2947TIP3    H130400   0.967   4.990   8.633 -0.0499 -3.7479  0.9836
 2947TIP3    H230401   0.844   4.989   8.545  0.0425  0.2665  0.6304
 2948TIP3   OH230402   6.078   1.977   8.558  0.2029 -0.1914 -0.2011
 2948TIP3    H130403   6.031   1.906   8.601  0.6718  0.3863  1.3253
 2948TIP3    H230404   6.170   1.949   8.559  0.3761  0.3721  0.3135
 2949TIP3   OH230405   0.856   3.979   0.712  0.1471 -0.3163 -0.2879
 2949TIP3    H130406   0.879   3.887   0.701  0.0900 -0.3126 -0.4424
 2949TIP3    H230407   0.787   3.979   0.778  2.6336 -0.0898  2.5553
 2950TIP3   OH230408   5.645   4.923   2.191  0.2991 -0.2678 -0.3911
 2950TIP3    H130409   5.671   4.995   2.248  0.0785  1.5289 -2.4423
 2950TIP3    H230410   5.726   4.874   2.175  1.0786  1.2236 -1.2088
 2951TIP3   OH230411   3.843   2.573   8.211  0.5983  0.2387 -0.0135
 2951TIP3    H130412   3.825   2.501   8.151 -1.4798  1.6026 -1.1375
 2951TIP3    H230413   3.882   2.641   8.156  1.4676  0.4358  0.8142
 2952TIP3   OH230414   1.118   4.043   2.589  0.0387  0.1052 -0.0881
 2952TIP3    H130415   1.146   4.098   2.662  0.5810 -0.3104  0.0259
 2952TIP3    H230416   1.024   4.035   2.600  0.2926 -1.2595  1.5149
 2953TIP3   OH230417   0.369   2.188   1.532 -0.5191  0.2759  0.1395
 2953TIP3    H130418   0.454   2.171   1.572 -0.2537  0.1291 -0.4691
 2953TIP3    H230419   0.390   2.225   1.446 -1.0754  1.3000  0.4249
 2954TIP3   OH230420   4.420   3.423   2.358 -0.3101 -0.0783 -0.0858
 2954TIP3    H130421   4.336   3.460   2.331 -1.0731 -1.5374  0.2173
 2954TIP3    H230422   4.398   3.346   2.411  1.2042  0.0215  0.7747
 2955TIP3   OH230423   1.488   1.574   3.192 -0.3075  0.4252 -0.4748
 2955TIP3    H130424   1.417   1.622   3.149 -2.0794 -0.6762  1.0504
 2955TIP3    H230425   1.503   1.498   3.136  0.4978  1.2548 -1.4020
 2956TIP3   OH230426   2.332   4.174   7.401  0.5733  0.4040 -0.2580
 2956TIP3    H130427   2.257   4.178   7.460  0.4902  0.1456 -0.3432
 2956TIP3    H230428   2.309   4.233   7.329 -0.2613 -0.8510 -1.0808
 2957TIP3   OH230429   1.715   6.222   1.180  0.0907  0.6251 -0.7412
 2957TIP3    H130430   1.762   6.142   1.201  1.0173  1.8966  2.7518
 2957TIP3    H230431   1.750   6.249   1.095  1.7187 -1.2790 -0.7385
 2958TIP3   OH230432   0.260   1.147   1.927  0.1709 -0.0992 -0.5814
 2958TIP3    H130433   0.232   1.214   1.864  3.1357  0.9733 -0.9684
 2958TIP3    H230434   0.356   1.154   1.926  0.4094 -1.8060  2.2098
 2959TIP3   OH230435   0.994   2.002   1.351  0.1196  0.3161  0.0997
 2959TIP3    H130436   0.906   2.025   1.381 -1.0680 -2.6095 -0.7447
 2959TIP3    H230437   1.034   1.958   1.426 -0.0083 -0.3126 -0.1905
 2960TIP3   OH230438   2.030   5.020   8.022  0.0229  0.2724  0.5144
 2960TIP3    H130439   2.120   5.054   8.028  0.3308 -0.5527  0.5861
 2960TIP3    H230440   1.998   5.020   8.112  0.6485 -1.3033  0.7490
 2961TIP3   OH230441   3.509   0.364   7.403 -0.2201 -0.3795 -0.0411
 2961TIP3    H130442   3.441   0.374   7.470 -0.1497  0.3135 -0.0653
 2961TIP3    H230443   3.578   0.425   7.430  0.1789 -0.7183 -0.2835
 2962TIP3   OH230444   3.791   2.487   0.067  0.8291  0.3806  0.4311
 2962TIP3    H130445   3.743   2.562   0.031 -1.7924 -0.5686  1.6419
 2962TIP3    H230446   3.780   2.418   0.002  1.6511  0.4962  0.1599
 2963TIP3   OH230447   5.085   5.752   1.665  0.5532 -0.2632 -0.5671
 2963TIP3    H130448   5.166   5.791   1.700  0.0172 -0.4618  0.9758
 2963TIP3    H230449   5.015   5.805   1.703 -0.0630 -0.1281 -1.8455
 2964TIP3   OH230450   1.054   5.483   1.340 -0.3319  0.2208 -0.7206
 2964TIP3    H130451   1.125   5.484   1.405 -1.0340  2.2293  0.0810
 2964TIP3    H230452   1.009   5.400   1.355 -0.8979  0.9060  1.8945
 2965TIP3   OH230453   0.793   2.021   7.848 -0.6131  0.0666 -0.0010
 2965TIP3    H130454   0.874   1.970   7.859 -1.1312 -1.3044 -1.9869
 2965TIP3    H230455   0.752   2.020   7.934  0.3514 -1.2345  0.4781
 2966TIP3   OH230456   3.302   5.081   2.405  0.6091  0.0133  0.1278
 2966TIP3    H130457   3.340   5.021   2.469 -0.3754 -1.1950 -0.3896
 2966TIP3    H230458   3.225   5.035   2.372 -0.6040  1.8858  0.2425
 2967TIP3   OH230459   5.010   0.138   0.159 -0.4328  0.3923  0.3565
 2967TIP3    H130460   5.084   0.180   0.202 -1.2734  1.3624  0.8941
 2967TIP3    H230461   4.973   0.206   0.103  0.2892 -0.6757 -1.4998
 2968TIP3   OH230462   1.511   0.184   8.059 -0.3210  0.0034 -0.5575
 2968TIP3    H130463   1.506   0.210   7.967 -1.4505  0.1969 -0.4518
 2968TIP3    H230464   1.461   0.103   8.064  0.9527 -0.8087 -0.3681
 2969TIP3   OH230465   1.066   0.279   0.635 -0.3606 -0.2980 -0.1796
 2969TIP3    H130466   1.109   0.293   0.551 -2.7003  1.4423 -1.2039
 2969TIP3    H230467   0.977   0.252   0.612 -1.7105  2.2060  1.6057
 2970TIP3   OH230468   0.115   4.578   7.320 -0.1677 -0.1844  0.2531
 2970TIP3    H130469   0.036   4.629   7.334 -0.3167 -0.3825  0.1357
 2970TIP3    H230470   0.095   4.522   7.245  0.1079 -0.1840  0.1747
 2971TIP3   OH230471   3.678   3.220   1.609 -0.2763 -0.2498 -0.2083
 2971TIP3    H130472   3.695   3.310   1.580  4.6122 -1.3626 -1.7955
 2971TIP3    H230473   3.710   3.217   1.699 -1.1348 -0.3099  0.1085
 2972TIP3   OH230474   5.523   6.594   8.011 -0.5079  0.5265  0.0526
 2972TIP3    H130475   5.541   6.685   7.989 -1.1503  0.6555  0.0168
 2972TIP3    H230476   5.427   6.589   8.012 -0.4871  0.0733  0.9403
 2973TIP3   OH230477   1.024   4.614   2.459 -0.1144  0.3231  0.3385
 2973TIP3    H130478   1.043   4.520   2.451  0.5316  0.3799  1.0594
 2973TIP3    H230479   0.970   4.634   2.383  1.2908 -0.2416 -0.8499
 2974TIP3   OH230480   5.404   2.815   0.663  0.3862 -0.7933 -0.3685
 2974TIP3    H130481   5.467   2.771   0.720  1.4591 -0.2508 -1.0947
 2974TIP3    H230482   5.381   2.895   0.710 -1.5807 -2.0460  0.9623
 2975TIP3   OH230483   6.538   3.527   8.641 -0.7159 -0.8862 -0.3030
 2975TIP3    H130484   6.498   3.564   8.719 -0.5083 -2.2856  0.4929
 2975TIP3    H230485   6.632   3.525   8.661 -0.7566 -2.1889 -0.1468
 2976TIP3   OH230486   5.660   2.087   0.413 -0.0838 -0.2510 -0.0379
 2976TIP3    H130487   5.720   2.027   0.457 -0.6580 -0.9470 -0.1718
 2976TIP3    H230488   5.573   2.061   0.445 -0.5917 -1.2145 -2.0193
 2977TIP3   OH230489   1.693   3.603   1.084  0.9516  0.0576  0.0859
 2977TIP3    H130490   1.722   3.656   1.010 -0.5108  1.5950  0.5517
 2977TIP3    H230491   1.731   3.646   1.160  1.3169 -0.7026  0.3360
 2978TIP3   OH230492   0.967   4.852   1.661  0.0530  0.1998 -0.0467
 2978TIP3    H130493   0.947   4.845   1.568  0.0670 -0.5949  0.0004
 2978TIP3    H230494   0.976   4.761   1.690  2.8065  0.4569  0.1315
 2979TIP3   OH230495   1.404   1.076   2.496  0.0019  0.3981  0.0501
 2979TIP3    H130496   1.462   1.073   2.572 -0.6168 -1.8545  0.5076
 2979TIP3    H230497   1.457   1.045   2.424  0.1542  1.0859 -0.1424
 2980TIP3   OH230498   0.175   0.399   1.756 -0.5744 -0.1482  0.1033
 2980TIP3    H130499   0.206   0.390   1.847 -0.8748  1.0808  0.3451
 2980TIP3    H230500   0.157   0.309   1.728  0.4441 -0.6338  0.9303
 2981TIP3   OH230501   1.916   4.411   1.199 -0.2111  0.4678 -0.2248
 2981TIP3    H130502   1.979   4.483   1.199  1.6221 -1.0333 -1.4087
 2981TIP3    H230503   1.845   4.440   1.142  0.6331  1.2195 -0.9142
 2982TIP3   OH230504   0.992   0.865   7.348  0.6131  0.5386 -0.1959
 2982TIP3    H130505   0.945   0.783   7.329  0.9854  0.4297 -0.6706
 2982TIP3    H230506   0.950   0.899   7.427 -0.3594  0.5202 -0.6902
 2983TIP3   OH230507   1.539   2.923   7.788 -0.5328 -0.3417 -0.8662
 2983TIP3    H130508   1.588   2.848   7.822  1.2682  1.0400 -0.2270
 2983TIP3    H230509   1.457   2.923   7.837  0.5249 -0.4578  0.9929
 2984TIP3   OH230510   3.959   2.313   1.902 -0.5347 -0.0070  0.6526
 2984TIP3    H130511   3.976   2.228   1.943 -1.1557 -0.6298 -0.3623
 2984TIP3    H230512   4.042   2.360   1.910 -0.0644 -0.8550  0.8576
 2985TIP3   OH230513   3.207   3.110   1.116  0.0582  0.3894 -0.4511
 2985TIP3    H130514   3.260   3.047   1.165 -1.8424  0.7196  2.2677
 2985TIP3    H230515   3.136   3.057   1.080 -0.5925  0.6925  0.3655
 2986TIP3   OH230516   4.847   5.636   1.530 -0.3220  0.0028  0.3582
 2986TIP3    H130517   4.891   5.692   1.594 -0.8397 -0.7432  1.4032
 2986TIP3    H230518   4.786   5.583   1.583 -3.5685  1.9723 -1.0982
 2987TIP3   OH230519   4.818   1.328   2.747 -1.0077 -0.0302  0.6937
 2987TIP3    H130520   4.799   1.420   2.763  2.7870  1.5227 -2.4472
 2987TIP3    H230521   4.753   1.301   2.682 -0.1242  1.4694 -0.8571
 2988TIP3   OH230522   5.009   5.080   2.217 -0.2010 -0.4439 -0.5628
 2988TIP3    H130523   5.023   5.090   2.123  0.4379  0.2479 -0.3985
 2988TIP3    H230524   4.994   4.986   2.229 -2.4157 -0.2929 -1.6248
 2989TIP3   OH230525   1.773   6.028   8.468  0.3172  0.2686  1.0460
 2989TIP3    H130526   1.746   6.117   8.447 -0.9588 -0.1832  0.6328
 2989TIP3    H230527   1.780   5.985   8.383 -1.2795 -0.5941  1.2959
 2990TIP3   OH230528   1.655   6.203   7.740 -0.2098 -0.6599 -0.3899
 2990TIP3    H130529   1.575   6.230   7.784  2.0388  1.6267  2.7310
 2990TIP3    H230530   1.642   6.228   7.649 -2.0063  2.3724  0.5577
 2991TIP3   OH230531   5.272   2.400   7.816  0.8819  0.2999 -0.1368
 2991TIP3    H130532   5.364   2.415   7.794  1.1062 -0.4012  0.2924
 2991TIP3    H230533   5.273   2.369   7.906  0.0424  2.3333  0.6407
 2992TIP3   OH230534   3.983   3.616   2.582  0.1174 -0.0554 -0.0985
 2992TIP3    H130535   3.960   3.527   2.554 -0.9837  0.4860 -0.9796
 2992TIP3    H230536   4.049   3.645   2.519  0.4719 -0.2302  0.1850
 2993TIP3   OH230537   3.745   2.941   1.277 -0.4011 -0.8336 -0.0646
 2993TIP3    H130538   3.686   2.884   1.229 -1.0969 -0.2482  0.0829
 2993TIP3    H230539   3.690   2.985   1.341  0.1422 -0.1006 -0.0805
 2994TIP3   OH230540   2.069   5.185   0.150  1.1552 -0.0056 -0.9972
 2994TIP3    H130541   2.004   5.116   0.158  1.1867  0.1320  0.8728
 2994TIP3    H230542   2.085   5.214   0.240  2.5110  1.1644 -1.5690
 2995TIP3   OH230543   5.169   4.099   1.536 -0.4948 -0.3735 -0.0598
 2995TIP3    H130544   5.084   4.109   1.577 -0.0352 -0.5164  0.9455
 2995TIP3    H230545   5.167   4.012   1.496 -0.6811 -0.5344  0.2943
 2996TIP3   OH230546   3.615   5.531   2.511  1.0348 -0.2671  0.8459
 2996TIP3    H130547   3.566   5.463   2.465  2.2214 -0.3413 -0.3735
 2996TIP3    H230548   3.572   5.538   2.596  0.1211 -1.6574  0.5335
 2997TIP3   OH230549   6.260   4.179   7.980 -0.0214 -0.2363  0.3776
 2997TIP3    H130550   6.202   4.129   8.038  2.7973 -1.3473  2.4379
 2997TIP3    H230551   6.331   4.209   8.037  1.8426  0.4165 -2.1370
 2998TIP3   OH230552   2.830   0.213   0.895  0.3713 -0.0861 -0.2592
 2998TIP3    H130553   2.818   0.237   0.804 -1.5324 -1.3291 -0.3822
 2998TIP3    H230554   2.813   0.294   0.944  0.0182  0.2550 -0.9341
 2999TIP3   OH230555   1.830   0.438   1.134 -0.0479  0.3334  0.4385
 2999TIP3    H130556   1.767   0.463   1.066 -0.5085  0.7151  0.9952
 2999TIP3    H230557   1.782   0.376   1.189  1.2912 -2.4132 -1.3187
 3000TIP3   OH230558   6.776   0.437   2.216  0.3821 -0.1052  0.6666
 3000TIP3    H130559   6.828   0.466   2.291 -0.0046  0.0687  0.8705
 3000TIP3    H230560   6.685   0.444   2.246  0.1888  0.6132 -0.0459
 3001TIP3   OH230561   3.158   3.064   2.213  0.0697  0.2148 -0.0312
 3001TIP3    H130562   3.173   3.148   2.255 -0.1160  0.7096 -0.9337
 3001TIP3    H230563   3.131   3.006   2.284  2.5072  0.2633  1.0284
 3002TIP3   OH230564   1.932   4.923   2.679  0.0435  0.9992  0.2251
 3002TIP3    H130565   1.964   4.844   2.723 -1.3282  1.2484  1.7423
 3002TIP3    H230566   1.855   4.894   2.630 -0.1344  1.2877  0.3331
 3003TIP3   OH230567   5.895   4.067   7.406 -0.2413  0.1955 -0.1004
 3003TIP3    H130568   5.828   4.092   7.470 -2.5539 -1.2953 -1.7907
 3003TIP3    H230569   5.862   4.099   7.322  1.3012 -0.3582 -0.9716
 3004TIP3   OH230570   2.368   0.010   0.331 -0.4603 -0.6378  0.0598
 3004TIP3    H130571   2.326   0.060   0.401 -0.1533 -0.6411  0.2467
 3004TIP3    H230572   2.373   0.071   0.258 -1.1227 -0.7468 -0.0898
 3005TIP3   OH230573   5.015   4.360   2.668 -0.1565 -0.3074  0.1125
 3005TIP3    H130574   4.950   4.306   2.714 -0.3878  0.4275  0.6614
 3005TIP3    H230575   5.098   4.314   2.683 -0.3235 -0.4188  0.7441
 3006TIP3   OH230576   0.235   3.475   0.992 -0.4075 -0.1377  0.4794
 3006TIP3    H130577   0.232   3.563   1.029 -0.8407 -0.2064  0.6124
 3006TIP3    H230578   0.144   3.447   0.990 -0.2897 -0.5080  0.2550
 3007TIP3   OH230579   1.343   1.778   8.438 -0.0660  0.4547  0.0939
 3007TIP3    H130580   1.336   1.683   8.447 -1.8006  0.5512  0.0423
 3007TIP3    H230581   1.382   1.807   8.520 -0.5287 -0.2090  0.5577
 3008TIP3   OH230582   3.409   1.769   0.059 -0.0754 -0.3958 -0.1742
 3008TIP3    H130583   3.415   1.852   0.108 -0.9750  0.4611 -1.4410
 3008TIP3    H230584   3.496   1.730   0.067  0.2090  0.3989  0.9067
 3009TIP3   OH230585   3.095   5.205   6.781  0.0222  0.0572 -0.1782
 3009TIP3    H130586   3.068   5.295   6.801 -0.3990  0.1430 -1.0684
 3009TIP3    H230587   3.021   5.168   6.733  0.5843 -0.4422 -0.6804
 3010TIP3   OH230588   0.172   5.278   1.073 -0.5461 -0.5878 -0.0554
 3010TIP3    H130589   0.205   5.325   0.996 -0.8447 -1.0621 -0.4765
 3010TIP3    H230590   0.077   5.288   1.069 -0.5584 -0.5629  0.2860
 3011TIP3   OH230591   5.951   0.172   1.965  0.3787  0.0060 -0.4374
 3011TIP3    H130592   5.884   0.157   1.898 -0.2377 -0.6012  0.2949
 3011TIP3    H230593   5.959   0.268   1.969 -0.3355  0.0831 -0.6552
 3012TIP3   OH230594   6.706   1.244   1.230  0.1952 -0.1174  0.0831
 3012TIP3    H130595   6.745   1.304   1.294 -0.5598  0.1637  0.2926
 3012TIP3    H230596   6.757   1.163   1.239  0.5257  0.1368  0.5636
 3013TIP3   OH230597   0.899   0.207   8.357  0.0712  0.3848  0.4190
 3013TIP3    H130598   0.933   0.248   8.436  1.6781  1.5654 -0.8180
 3013TIP3    H230599   0.974   0.160   8.319 -0.3383  0.7923 -0.9754
 3014TIP3   OH230600   5.734   1.213   8.515  0.3136 -0.1691  0.3256
 3014TIP3    H130601   5.663   1.218   8.578 -0.2365 -2.6914  0.0094
 3014TIP3    H230602   5.727   1.126   8.477  0.3849  1.3034 -3.5155
 3015TIP3   OH230603   2.195   3.407   8.211  0.3606 -0.1435 -0.5184
 3015TIP3    H130604   2.275   3.444   8.175  0.4498  0.9149  0.6814
 3015TIP3    H230605   2.129   3.418   8.142  0.8739  0.4024 -0.9235
 3016TIP3   OH230606   4.379   5.050   7.592 -0.1912  0.4125 -0.6728
 3016TIP3    H130607   4.393   5.002   7.673 -0.8101  1.5263  0.1142
 3016TIP3    H230608   4.430   5.001   7.527  0.4427 -0.4076  0.3968
 3017TIP3   OH230609   5.497   2.738   2.022 -0.5545 -0.2347  0.1931
 3017TIP3    H130610   5.529   2.827   2.037  0.8818 -0.7856  0.4827
 3017TIP3    H230611   5.512   2.723   1.929  0.5558 -0.6789  0.4316
 3018TIP3   OH230612   2.552   2.568   8.147 -0.0369 -0.0226 -0.2241
 3018TIP3    H130613   2.627   2.611   8.106 -1.9511  1.5681 -2.3591
 3018TIP3    H230614   2.513   2.636   8.202 -0.8706 -0.2602 -0.5009
 3019TIP3   OH230615   4.481   2.665   0.471 -0.4466 -0.1683 -0.1475
 3019TIP3    H130616   4.535   2.724   0.524 -0.8659  0.0945 -0.0088
 3019TIP3    H230617   4.543   2.601   0.436  0.2602  1.1698 -1.4753
 3020TIP3   OH230618   3.897   1.436   1.886 -0.0561  0.3109  0.1367
 3020TIP3    H130619   3.875   1.448   1.978 -1.1765  0.0560 -0.0782
 3020TIP3    H230620   3.816   1.455   1.839  0.5593  0.6801 -0.8214
 3021TIP3   OH230621   0.509   4.686   8.697 -0.3177 -0.0245  0.6330
 3021TIP3    H130622   0.573   4.755   8.713  0.8472 -1.1431  0.9789
 3021TIP3    H230623   0.463   4.675   8.781 -2.1284  1.8477 -0.0236
 3022TIP3   OH230624   3.820   2.361   2.820  0.1050  0.2882  0.2692
 3022TIP3    H130625   3.901   2.320   2.791  0.1243  0.8923 -0.5636
 3022TIP3    H230626   3.752   2.298   2.796  0.4298 -1.3745  3.1250
 3023TIP3   OH230627   0.160   1.995   2.425 -0.3379 -0.2494  0.2512
 3023TIP3    H130628   0.211   1.962   2.352 -0.7879  0.5151 -0.4280
 3023TIP3    H230629   0.223   2.000   2.498  0.4641  0.3161 -0.4597
 3024TIP3   OH230630   3.188   4.840   1.004 -0.3871  0.5344  0.0009
 3024TIP3    H130631   3.270   4.817   1.046 -0.0999  0.5121 -0.5622
 3024TIP3    H230632   3.197   4.932   0.981  0.1728  0.1215 -1.5826
 3025TIP3   OH230633   3.248   5.518   0.150 -0.3016  0.1353 -0.2540
 3025TIP3    H130634   3.218   5.483   0.066  3.1948 -0.1295 -1.5497
 3025TIP3    H230635   3.254   5.442   0.207  2.6102 -0.7763 -1.5860
 3026TIP3   OH230636   3.647   6.751   8.711  0.3092 -0.9014 -0.2151
 3026TIP3    H130637   3.715   6.806   8.672  0.4734 -1.5863 -0.9343
 3026TIP3    H230638   3.565   6.793   8.686  0.4631 -0.2488  0.3812
 3027TIP3   OH230639   1.730   5.137   8.200 -0.3074 -0.1680  0.1050
 3027TIP3    H130640   1.761   5.184   8.278 -0.7351  1.2846 -0.5560
 3027TIP3    H230641   1.762   5.190   8.127  2.5882 -2.9852 -0.9010
 3028TIP3   OH230642   5.569   5.336   8.676  0.0712 -0.5820 -0.7024
 3028TIP3    H130643   5.578   5.253   8.628 -1.7153 -2.1010  1.3612
 3028TIP3    H230644   5.495   5.321   8.735 -1.2688  3.0090 -1.2289
 3029TIP3   OH230645   6.733   3.770   7.325  0.3876 -0.2211  0.0763
 3029TIP3    H130646   6.756   3.860   7.348 -0.5991 -0.1224  0.7361
 3029TIP3    H230647   6.803   3.717   7.364  0.3864  0.1798  0.6307
 3030TIP3   OH230648   4.893   3.533   8.072 -0.1773 -0.1301  0.2206
 3030TIP3    H130649   4.874   3.512   8.163 -2.9944  0.1619 -0.2165
 3030TIP3    H230650   4.863   3.624   8.061  4.2415  1.5618  0.0190
 3031TIP3   OH230651   2.199   4.852   0.107  0.1365 -0.1274 -0.2458
 3031TIP3    H130652   2.150   4.904   0.043  0.8636 -0.1991 -0.8854
 3031TIP3    H230653   2.286   4.843   0.068  0.6307 -0.0735  0.8288
 3032TIP3   OH230654   5.981   4.063   2.719  0.2000  0.3563  0.2051
 3032TIP3    H130655   6.055   4.099   2.669 -0.4408  0.2247 -0.8613
 3032TIP3    H230656   5.906   4.115   2.692 -0.0073  0.9897  1.8434
 3033TIP3   OH230657   1.116   2.424   6.443  0.0061  0.2209 -0.0602
 3033TIP3    H130658   1.070   2.343   6.465  2.4116 -1.8777 -2.0525
 3033TIP3    H230659   1.161   2.449   6.524  0.7741 -1.6276  0.1306
 3034TIP3   OH230660   3.309   5.743   1.903  0.2907 -0.1573 -0.0301
 3034TIP3    H130661   3.392   5.790   1.890 -0.5634  1.4526  0.0511
 3034TIP3    H230662   3.277   5.726   1.814  0.1960  0.1560 -0.0549
 3035TIP3   OH230663   5.767   0.640   1.341  0.5343 -0.5840 -0.3349
 3035TIP3    H130664   5.841   0.643   1.281 -1.2183  0.4147 -2.6043
 3035TIP3    H230665   5.793   0.696   1.414  1.6513  0.5231 -1.5258
 3036TIP3   OH230666   5.462   6.352   0.687 -0.6486  0.0087  0.1689
 3036TIP3    H130667   5.398   6.298   0.641  0.3301 -3.0810  2.1286
 3036TIP3    H230668   5.411   6.397   0.754 -1.1500 -0.4079  0.0787
 3037TIP3   OH230669   5.194   4.996   7.488 -0.3839  0.7233  0.4480
 3037TIP3    H130670   5.235   5.066   7.439  0.2530 -0.5601 -0.9180
 3037TIP3    H230671   5.267   4.950   7.530 -0.8480  1.2656  1.9504
 3038TIP3   OH230672   0.747   5.115   2.423 -0.3537  0.0568  0.2048
 3038TIP3    H130673   0.703   5.031   2.441  0.8409 -0.5086  0.6367
 3038TIP3    H230674   0.698   5.153   2.351 -0.3406 -1.4922 -0.6702
 3039TIP3   OH230675   4.948   5.939   7.034  0.0087  0.0458 -0.6373
 3039TIP3    H130676   5.030   5.891   7.046  0.7665  1.6809  1.2687
 3039TIP3    H230677   4.903   5.929   7.118 -0.2673  1.7660 -0.5598
 3040TIP3   OH230678   2.518   6.710   8.810  0.0800  0.0066 -0.4793
 3040TIP3    H130679   2.531   6.742   8.899  2.1199 -0.4809 -0.5499
 3040TIP3    H230680   2.580   6.760   8.757 -1.3358  0.5298 -1.7106
 3041TIP3   OH230681   4.535   0.904   0.538  0.5600 -0.5174 -0.2305
 3041TIP3    H130682   4.599   0.958   0.492  1.1726 -1.0267  0.0092
 3041TIP3    H230683   4.452   0.950   0.527  1.1965  0.9003  0.6650
 3042TIP3   OH230684   6.434   4.761   1.384  0.5132 -0.4280 -0.4163
 3042TIP3    H130685   6.435   4.826   1.314 -0.3138 -0.4905 -0.4960
 3042TIP3    H230686   6.471   4.806   1.460 -0.7139  0.3757 -0.2690
 3043TIP3   OH230687   4.841   3.984   7.783  0.0907 -0.0555 -0.4052
 3043TIP3    H130688   4.802   3.975   7.696  1.1370  1.3467 -1.0712
 3043TIP3    H230689   4.921   3.931   7.779  0.1950  0.0949 -0.3477
 3044TIP3   OH230690   2.370   0.579   0.289  0.2274 -0.0843  0.3246
 3044TIP3    H130691   2.284   0.618   0.277  0.7184  0.4763 -1.6502
 3044TIP3    H230692   2.397   0.554   0.201  1.8714 -0.7264  0.9848
 3045TIP3   OH230693   3.396   4.565   8.241  0.7506  0.0977  0.0307
 3045TIP3    H130694   3.367   4.600   8.156  0.5747 -0.4519 -0.1402
 3045TIP3    H230695   3.480   4.524   8.222  0.1371 -1.1099 -0.1422
 3046TIP3   OH230696   5.368   3.349   0.320 -0.2163 -0.0509 -0.1566
 3046TIP3    H130697   5.392   3.273   0.268 -1.8690 -0.5978 -0.1900
 3046TIP3    H230698   5.355   3.419   0.256 -1.2092 -0.4440 -0.4094
 3047TIP3   OH230699   0.174   3.082   0.991  0.2445  0.3121 -0.2873
 3047TIP3    H130700   0.090   3.101   1.032  0.2950  0.9622 -0.4740
 3047TIP3    H230701   0.192   2.991   1.014 -0.6329  0.0827 -0.4735
 3048TIP3   OH230702   2.149   4.921   2.109 -0.2779  1.0444 -0.6619
 3048TIP3    H130703   2.178   4.925   2.200 -0.2366  1.3701 -0.6874
 3048TIP3    H230704   2.227   4.944   2.057  0.3683 -1.4577 -0.9160
 3049TIP3   OH230705   4.115   6.620   7.758  0.2606  0.1139 -0.0791
 3049TIP3    H130706   4.107   6.709   7.793 -0.1107 -0.1469  0.5199
 3049TIP3    H230707   4.065   6.622   7.677 -0.0088  0.3702  0.0896
 3050TIP3   OH230708   4.756   2.878   1.843  0.2085 -0.6788 -0.1851
 3050TIP3    H130709   4.715   2.949   1.794 -0.0094 -0.5386  0.1993
 3050TIP3    H230710   4.848   2.903   1.851  0.2324 -0.6776 -0.4767
 3051TIP3   OH230711   0.337   1.053   1.277  0.0315  0.4330 -0.3013
 3051TIP3    H130712   0.400   1.067   1.349 -0.7124  0.1008  0.4320
 3051TIP3    H230713   0.252   1.076   1.315 -0.3032  0.8497 -1.2716
 3052TIP3   OH230714   0.415   5.740   7.916 -0.0054  0.3415  0.6170
 3052TIP3    H130715   0.377   5.681   7.981 -0.6870 -0.7215 -0.6924
 3052TIP3    H230716   0.507   5.714   7.911 -0.5466 -1.5259 -0.8189
 3053TIP3   OH230717   5.536   4.883   2.498  0.3234 -0.0518  0.0194
 3053TIP3    H130718   5.582   4.961   2.469  0.1546  0.7485  1.7500
 3053TIP3    H230719   5.543   4.822   2.425 -0.0688  1.7826 -1.6440
 3054TIP3   OH230720   0.372   4.454   7.392  0.2388 -0.2716 -0.3096
 3054TIP3    H130721   0.285   4.493   7.395 -0.3949 -1.7148  1.1877
 3054TIP3    H230722   0.368   4.392   7.319  0.0764 -0.2210 -0.3447
 3055TIP3   OH230723   5.297   0.239   0.976  0.4695  0.6814 -0.2177
 3055TIP3    H130724   5.209   0.272   0.964 -0.1450 -1.3401 -1.7664
 3055TIP3    H230725   5.344   0.265   0.897  0.4896 -0.4593 -0.6010
 3056TIP3   OH230726   3.004   4.120   0.869  0.4518 -0.1418  0.1231
 3056TIP3    H130727   3.025   4.186   0.935 -0.9047  1.4384 -0.9474
 3056TIP3    H230728   2.923   4.079   0.900  1.1595 -1.1739  0.6626
 3057TIP3   OH230729   5.033   4.981   7.718  0.2723 -0.1661 -0.2543
 3057TIP3    H130730   5.103   5.025   7.670  0.6930 -0.1500  0.3527
 3057TIP3    H230731   5.072   4.962   7.804  0.0526 -1.5564 -0.4407
 3058TIP3   OH230732   5.393   2.792   7.727  0.1189  0.3814  0.7054
 3058TIP3    H130733   5.413   2.811   7.819 -0.1099 -0.5377  0.9586
 3058TIP3    H230734   5.298   2.784   7.724  0.2287 -1.4013  0.7819
 3059TIP3   OH230735   4.936   5.090   0.187 -0.5229  0.3960 -0.5601
 3059TIP3    H130736   4.891   5.068   0.105  0.6115 -1.3928 -0.7453
 3059TIP3    H230737   5.001   5.021   0.199 -0.4948  0.7372  1.7562
 3060TIP3   OH230738   5.763   3.896   1.690  0.5863 -1.0377 -0.3522
 3060TIP3    H130739   5.672   3.900   1.717  0.3889 -1.2552 -0.9707
 3060TIP3    H230740   5.802   3.976   1.725 -0.4560  0.4045 -2.2971
 3061TIP3   OH230741   3.415   4.715   0.683 -0.0926  0.6426 -0.5351
 3061TIP3    H130742   3.353   4.679   0.747  0.3296 -2.7830 -1.8369
 3061TIP3    H230743   3.360   4.739   0.608 -0.0480 -1.2677 -1.2272
 3062TIP3   OH230744   3.445   5.174   0.766  0.2834 -0.0102 -0.5960
 3062TIP3    H130745   3.405   5.124   0.837  1.4018 -0.8093 -0.4953
 3062TIP3    H230746   3.529   5.203   0.802  0.1940  0.8849 -1.0834
 3063TIP3   OH230747   6.027   6.316   7.604 -0.2508 -0.4682  0.2464
 3063TIP3    H130748   6.089   6.388   7.590 -0.0782 -0.7936 -0.7437
 3063TIP3    H230749   5.953   6.337   7.546 -0.4206 -0.8312  0.3291
 3064TIP3   OH230750   4.889   2.149   7.713 -0.5644  0.0074 -0.3936
 3064TIP3    H130751   4.831   2.116   7.645 -1.4332  0.3957  0.1448
 3064TIP3    H230752   4.831   2.177   7.783  0.1014  2.5822 -0.7602
 3065TIP3   OH230753   1.812   4.140   0.185  0.4815 -0.4894  0.2717
 3065TIP3    H130754   1.904   4.134   0.163  0.3742 -0.4818 -0.1828
 3065TIP3    H230755   1.798   4.231   0.209  0.2281 -0.0736 -1.3323
 3066TIP3   OH230756   0.221   3.073   7.858 -0.5969 -0.0677 -0.0911
 3066TIP3    H130757   0.161   3.103   7.926 -2.6001  0.7440 -2.1178
 3066TIP3    H230758   0.205   3.132   7.784  1.9981 -0.4763 -1.0741
 3067TIP3   OH230759   4.284   6.151   0.420  0.2045 -0.3962 -0.8017
 3067TIP3    H130760   4.295   6.194   0.505  0.5746 -1.3838 -0.3319
 3067TIP3    H230761   4.329   6.067   0.430 -0.4221 -0.8537 -1.7207
 3068TIP3   OH230762   3.085   2.275   6.790  0.6896 -0.3234  0.0600
 3068TIP3    H130763   3.158   2.336   6.781 -0.2674  0.9854  0.6354
 3068TIP3    H230764   3.033   2.287   6.711  2.0806 -2.7358 -1.3255
 3069TIP3   OH230765   1.726   4.840   7.888 -0.3847  0.2099  0.4537
 3069TIP3    H130766   1.748   4.773   7.954  0.1843 -1.7294 -1.5744
 3069TIP3    H230767   1.809   4.855   7.842 -1.3557 -0.7769 -1.7447
 3070TIP3   OH230768   6.717   5.719   7.924  0.8271 -0.0030  0.4984
 3070TIP3    H130769   6.758   5.696   8.007  1.8051  0.8722  0.2815
 3070TIP3    H230770   6.738   5.645   7.866  2.2342  0.4723  0.3627
 3071TIP3   OH230771   2.442   6.118   8.324 -0.4758  0.1014  0.0991
 3071TIP3    H130772   2.508   6.161   8.269 -0.6113  0.6407  0.3529
 3071TIP3    H230773   2.462   6.024   8.316  0.3324  0.2541  0.1824
 3072TIP3   OH230774   2.430   4.697   8.775 -0.5142  0.2761 -0.5756
 3072TIP3    H130775   2.455   4.788   8.758  0.4266  0.3116  0.8036
 3072TIP3    H230776   2.491   4.668   8.844 -1.3493 -1.1300 -0.3924
 3073TIP3   OH230777   6.056   1.919   2.164  0.0536 -0.1732  0.2473
 3073TIP3    H130778   6.077   1.855   2.232 -0.3543 -0.4031  0.1611
 3073TIP3    H230779   5.961   1.914   2.156  0.0479  0.2612  0.0594
 3074TIP3   OH230780   3.068   2.160   1.026  0.2594  0.3595 -0.0539
 3074TIP3    H130781   3.090   2.228   0.962 -0.2312 -0.9244 -1.6567
 3074TIP3    H230782   3.148   2.147   1.077  0.9319  0.8232 -0.9819
 3075TIP3   OH230783   0.845   5.267   8.711 -0.1826 -0.7642  0.0252
 3075TIP3    H130784   0.812   5.241   8.797 -2.2551 -1.8142 -1.0141
 3075TIP3    H230785   0.855   5.184   8.664 -0.5880 -0.1034 -1.2399
 3076TIP3   OH230786   3.727   5.228   7.184  0.3221 -0.1845 -0.1226
 3076TIP3    H130787   3.677   5.155   7.218 -0.6628  1.0309  1.1393
 3076TIP3    H230788   3.753   5.201   7.096  0.0571 -2.0557  0.3472
 3077TIP3   OH230789   1.597   3.925   1.043  0.2171 -0.5015 -0.5605
 3077TIP3    H130790   1.630   3.895   1.127  0.8216 -0.8639 -0.9179
 3077TIP3    H230791   1.654   3.883   0.978  0.6886  0.9089 -1.1067
 3078TIP3   OH230792   4.409   2.398   1.273  0.2075  0.4696  0.9629
 3078TIP3    H130793   4.471   2.330   1.246  0.8343  0.7031  1.7739
 3078TIP3    H230794   4.355   2.414   1.195  0.7124 -0.2247  0.4560
 3079TIP3   OH230795   5.389   2.925   2.525 -0.0607  0.4447 -0.4127
 3079TIP3    H130796   5.358   2.870   2.597 -0.8559  1.6155  0.1931
 3079TIP3    H230797   5.382   3.014   2.559  1.2642  0.9303 -1.3235
 3080TIP3   OH230798   3.344   0.112   7.683 -0.1644 -0.8740  0.5726
 3080TIP3    H130799   3.419   0.078   7.633 -0.4521  0.3965 -0.7646
 3080TIP3    H230800   3.268   0.069   7.644 -0.4637  0.6847 -0.6649
 3081TIP3   OH230801   2.805   2.027   1.037  0.4483 -0.6562  0.0073
 3081TIP3    H130802   2.886   2.064   1.073 -0.2256  2.0299 -1.0492
 3081TIP3    H230803   2.741   2.099   1.042 -1.0916 -1.8180 -1.7778
 3082TIP3   OH230804   0.089   4.104   0.576 -0.2040 -0.0114 -0.8039
 3082TIP3    H130805   0.148   4.180   0.574 -0.0897 -0.0598  0.2713
 3082TIP3    H230806   0.022   4.128   0.641  0.0516 -0.9976 -0.1737
 3083TIP3   OH230807   6.092   3.580   1.511 -0.3607  0.3852 -0.2881
 3083TIP3    H130808   6.004   3.600   1.481 -0.5622  0.4531  0.3269
 3083TIP3    H230809   6.093   3.608   1.603 -0.7132 -2.5682  0.7145
 3084TIP3   OH230810   2.344   1.774   3.123  0.3195 -0.4169  0.0255
 3084TIP3    H130811   2.349   1.754   3.217 -0.4859 -1.2058 -0.0798
 3084TIP3    H230812   2.256   1.811   3.112  1.1101  1.4704 -0.1107
 3085TIP3   OH230813   0.510   6.006   2.406  0.1832 -0.2885 -0.5594
 3085TIP3    H130814   0.499   5.997   2.501  1.1057  2.3350 -0.1236
 3085TIP3    H230815   0.578   6.073   2.396  0.0253 -0.4131 -3.0871
 3086TIP3   OH230816   5.627   1.654   1.715  0.2381 -0.2624  0.1637
 3086TIP3    H130817   5.577   1.734   1.699 -2.3809 -1.7977  0.2290
 3086TIP3    H230818   5.599   1.624   1.801 -0.5036 -2.3618 -0.7312
 3087TIP3   OH230819   5.050   0.081   2.016  0.0203 -0.5005 -0.3221
 3087TIP3    H130820   5.009   0.145   2.074 -2.0919 -2.0295  0.0037
 3087TIP3    H230821   5.084   0.132   1.943 -1.0540  1.0483  0.2150
 3088TIP3   OH230822   1.409   3.492   7.892 -0.1415 -0.1556 -0.3850
 3088TIP3    H130823   1.331   3.546   7.883 -0.7824 -1.4088 -4.0120
 3088TIP3    H230824   1.477   3.538   7.843  0.7067 -0.3318  0.5855
 3089TIP3   OH230825   3.980   2.572   2.918  0.3807 -0.1139 -0.1131
 3089TIP3    H130826   3.922   2.498   2.902  0.2950  0.2152 -1.4389
 3089TIP3    H230827   4.064   2.544   2.882  0.2218  0.6012 -1.0846
 3090TIP3   OH230828   0.203   3.656   1.500 -0.4097 -0.3253 -0.0700
 3090TIP3    H130829   0.196   3.669   1.594 -0.4038  0.6316 -0.1971
 3090TIP3    H230830   0.296   3.645   1.484 -0.4519 -0.9534  0.0879
 3091TIP3   OH230831   1.684   4.694   7.549  0.1230 -0.9537 -0.4698
 3091TIP3    H130832   1.653   4.617   7.501  0.3541 -1.6140  0.4215
 3091TIP3    H230833   1.612   4.756   7.543  0.3805 -0.7453 -2.2170
 3092TIP3   OH230834   5.820   5.556   8.474 -0.0565  0.2998  0.1730
 3092TIP3    H130835   5.875   5.479   8.458  0.2148  0.2756  1.1167
 3092TIP3    H230836   5.739   5.538   8.427 -0.4391 -1.1125  1.2766
 3093TIP3   OH230837   4.087   2.420   2.366  0.1647  0.2764  0.1452
 3093TIP3    H130838   4.014   2.357   2.371  1.1683 -0.9471 -0.0795
 3093TIP3    H230839   4.144   2.396   2.440  0.5020  1.0122  0.1268
 3094TIP3   OH230840   6.279   6.610   1.599  0.1183  0.4430  0.5107
 3094TIP3    H130841   6.280   6.662   1.518  0.2439  1.7202  1.3015
 3094TIP3    H230842   6.194   6.566   1.597  0.4510 -0.1796 -0.6933
 3095TIP3   OH230843   4.976   4.815   7.392 -0.0283  0.2253 -0.5632
 3095TIP3    H130844   5.018   4.897   7.419  0.7338  0.1139 -1.3642
 3095TIP3    H230845   4.882   4.836   7.390  0.0289  0.6476  0.6659
 3096TIP3   OH230846   2.411   3.941   1.325  0.7702 -0.4429  0.1530
 3096TIP3    H130847   2.461   3.931   1.243  2.3121 -2.2907  1.2473
 3096TIP3    H230848   2.465   3.899   1.391 -0.7503  0.4448  2.0412
 3097TIP3   OH230849   4.664   2.852   8.606  1.1045  0.0856  0.5334
 3097TIP3    H130850   4.703   2.886   8.687  2.3093 -0.5353  0.2369
 3097TIP3    H230851   4.629   2.930   8.562 -0.7172  0.2954  2.2166
 3098TIP3   OH230852   5.395   4.289   2.971  0.3093 -0.0625  0.2340
 3098TIP3    H130853   5.435   4.243   3.045  0.8513  1.8950  1.2380
 3098TIP3    H230854   5.464   4.347   2.939 -0.8101  1.2272  0.0727
 3099TIP3   OH230855   6.710   4.814   7.162  0.3803  0.1823  0.0193
 3099TIP3    H130856   6.675   4.770   7.239 -0.0680 -0.4888 -0.5527
 3099TIP3    H230857   6.644   4.801   7.094  0.9014  0.4991 -0.5677
 3100TIP3   OH230858   3.778   6.652   7.843 -0.0864 -0.1957 -0.1544
 3100TIP3    H130859   3.745   6.723   7.898  0.5582 -0.0709  0.0848
 3100TIP3    H230860   3.796   6.694   7.759  0.8289  0.0673  0.1543
 3101TIP3   OH230861   1.368   4.270   1.010  0.0347  0.1684 -0.2550
 3101TIP3    H130862   1.368   4.178   1.037 -0.0182 -0.5703 -2.5242
 3101TIP3    H230863   1.275   4.290   0.994  0.2096 -0.0604 -1.7155
 3102TIP3   OH230864   1.458   1.208   0.028 -0.1304 -0.3708 -0.2609
 3102TIP3    H130865   1.479   1.185  -0.063 -1.5480 -0.8620 -0.4872
 3102TIP3    H230866   1.474   1.127   0.077  1.2047  0.0553  0.0556
 3103TIP3   OH230867   1.254   5.564   8.150  0.4220  0.2913 -0.3665
 3103TIP3    H130868   1.295   5.642   8.112 -0.0467  0.8299  0.1997
 3103TIP3    H230869   1.212   5.596   8.230  1.5265 -0.8336  0.7103
 3104TIP3   OH230870   2.985   1.365   8.209 -0.1698 -0.3176 -0.1954
 3104TIP3    H130871   3.062   1.419   8.189 -0.7186  0.6497  0.2220
 3104TIP3    H230872   2.926   1.379   8.136 -0.2090 -0.5707 -0.2141
 3105TIP3   OH230873   4.535   3.063   2.709  0.1283  0.3319  0.0716
 3105TIP3    H130874   4.497   3.000   2.770  0.2132  1.3957  1.2708
 3105TIP3    H230875   4.604   3.014   2.664 -0.6257 -0.7629  0.0633
 3106TIP3   OH230876   2.263   6.779   1.416 -0.0884 -0.0789  0.0455
 3106TIP3    H130877   2.288   6.720   1.487 -0.8873 -0.0267  0.3864
 3106TIP3    H230878   2.188   6.735   1.375  0.1983  0.0251 -0.5930
 3107TIP3   OH230879   2.277   1.191   8.210 -0.1122  0.2185  0.1020
 3107TIP3    H130880   2.258   1.219   8.300  0.9366  0.9763  0.1097
 3107TIP3    H230881   2.227   1.110   8.199 -0.4956  0.2728  1.2650
 3108TIP3   OH230882   3.564   1.787   2.409  0.4702 -0.0205 -0.0996
 3108TIP3    H130883   3.641   1.815   2.458  1.7359  1.5185 -2.7434
 3108TIP3    H230884   3.562   1.844   2.332 -1.8373 -1.7425 -1.4609
 3109TIP3   OH230885   0.261   2.307   2.303  0.9621  0.3050  0.0002
 3109TIP3    H130886   0.261   2.398   2.271 -0.4179  0.2704 -0.1663
 3109TIP3    H230887   0.193   2.306   2.371  1.6170 -0.3947  0.6643
 3110TIP3   OH230888   4.163   0.705   8.460  0.0885  0.2099  0.1620
 3110TIP3    H130889   4.249   0.735   8.430  0.1789  0.6910  0.8778
 3110TIP3    H230890   4.107   0.782   8.455  0.0733  0.2699  1.0851
 3111TIP3   OH230891   5.511   6.289   7.966  0.3380  0.0428  0.5327
 3111TIP3    H130892   5.439   6.277   8.028 -0.5929 -0.8104 -0.6428
 3111TIP3    H230893   5.471   6.338   7.894  1.5918  1.7040  0.9157
 3112TIP3   OH230894   4.515   0.663   0.710 -0.2959 -0.2999 -0.0544
 3112TIP3    H130895   4.593   0.621   0.675 -0.5252 -0.5666 -0.2483
 3112TIP3    H230896   4.519   0.754   0.679  0.0049 -0.2768  0.0510
 3113TIP3   OH230897   5.760   1.176   1.653  0.5196 -0.4669  0.5220
 3113TIP3    H130898   5.664   1.173   1.652  0.2889  0.9914  3.9849
 3113TIP3    H230899   5.781   1.268   1.634  1.3327 -0.9086 -0.8699
 3114TIP3   OH230900   1.808   1.105   8.692  0.0662 -0.0276  0.3345
 3114TIP3    H130901   1.835   1.027   8.740 -0.9963  0.0712  1.1364
 3114TIP3    H230902   1.715   1.090   8.672  0.4163  0.0176 -1.5522
 3115TIP3   OH230903   1.993   6.378   7.631 -0.4505  0.1800 -0.0883
 3115TIP3    H130904   1.929   6.445   7.607  0.4799  0.4962 -1.7981
 3115TIP3    H230905   1.951   6.331   7.704 -2.7173  0.2454 -1.2555
 3116TIP3   OH230906   0.415   1.137   0.488 -0.0200  0.4772 -0.7226
 3116TIP3    H130907   0.332   1.154   0.535  1.3286  1.0678  1.6144
 3116TIP3    H230908   0.443   1.224   0.459  0.1693  0.3790 -0.8286
 3117TIP3   OH230909   2.285   2.286   8.653 -0.3716  0.1276  0.5163
 3117TIP3    H130910   2.246   2.310   8.569 -0.1940  0.3462  0.4968
 3117TIP3    H230911   2.214   2.297   8.716 -0.6576 -0.5504  0.3216
 3118TIP3   OH230912   4.808   3.682   1.042 -0.9704 -0.2753 -0.9561
 3118TIP3    H130913   4.859   3.737   1.102 -0.2193 -1.7298 -0.2053
 3118TIP3    H230914   4.815   3.725   0.957  1.2029 -0.1946 -0.8007
 3119TIP3   OH230915   3.758   6.230   8.730 -0.3358 -0.2206  0.0171
 3119TIP3    H130916   3.812   6.161   8.690 -0.8286 -0.3991 -0.3493
 3119TIP3    H230917   3.669   6.210   8.701 -0.5326  0.3582  0.2175
 3120TIP3   OH230918   5.716   5.325   0.193 -0.1438 -0.3264  0.1878
 3120TIP3    H130919   5.671   5.384   0.133  0.2928 -0.5139 -0.3251
 3120TIP3    H230920   5.659   5.249   0.200 -0.0019 -0.4818 -0.3155
 3121TIP3   OH230921   2.815   3.509   2.203  0.2551 -0.5870  0.2048
 3121TIP3    H130922   2.776   3.578   2.258 -1.1014 -1.3747  0.2672
 3121TIP3    H230923   2.824   3.434   2.262 -0.5637 -1.2186 -0.4554
 3122TIP3   OH230924   6.579   2.601   2.117  0.1074  0.3023  0.3013
 3122TIP3    H130925   6.505   2.661   2.111 -1.2966 -1.2254  1.5808
 3122TIP3    H230926   6.642   2.647   2.173 -0.8308  0.7051  1.0645
 3123TIP3   OH230927   0.609   0.496   8.083  0.2492 -0.2073 -0.1961
 3123TIP3    H130928   0.534   0.530   8.131  0.1754  0.3809 -0.7173
 3123TIP3    H230929   0.608   0.402   8.101  0.3759  0.0311  1.1512
 3124TIP3   OH230930   1.141   0.482   8.694 -0.1749 -0.1772  0.0365
 3124TIP3    H130931   1.127   0.512   8.784  0.8126 -0.5672  0.3332
 3124TIP3    H230932   1.110   0.555   8.640 -0.4544  0.2071  0.6888
 3125TIP3   OH230933   3.004   1.905   8.587  0.8199 -0.5044 -0.1420
 3125TIP3    H130934   2.979   1.988   8.627 -0.0952 -1.4210  1.2800
 3125TIP3    H230935   3.020   1.926   8.495  1.7713  1.4520  0.4102
 3126TIP3   OH230936   1.112   6.541   0.189  0.3300  0.1810 -0.3787
 3126TIP3    H130937   1.200   6.565   0.219  0.7940 -0.3192 -1.2996
 3126TIP3    H230938   1.105   6.448   0.209 -0.5095  0.4961  0.8961
 3127TIP3   OH230939   5.599   1.618   2.441 -0.0076 -0.3933  0.0388
 3127TIP3    H130940   5.671   1.617   2.504  0.1766 -0.2559 -0.1643
 3127TIP3    H230941   5.632   1.567   2.367  0.5539  1.0965 -0.7724
 3128TIP3   OH230942   1.993   6.652   2.159  0.2839 -0.1129  0.2807
 3128TIP3    H130943   1.969   6.658   2.066 -1.6581  0.1361  0.7543
 3128TIP3    H230944   2.005   6.558   2.175 -0.7702 -0.3045  0.0657
 3129TIP3   OH230945   1.993   1.575   1.940  0.0852  0.6601  0.3101
 3129TIP3    H130946   2.054   1.619   1.881 -0.2225 -1.0200 -1.3740
 3129TIP3    H230947   1.912   1.624   1.933  0.2028  0.7734 -0.3015
 3130TIP3   OH230948   3.910   3.407   8.129  0.1076 -0.3133 -0.0715
 3130TIP3    H130949   3.869   3.322   8.116  0.5526 -0.3399 -1.3803
 3130TIP3    H230950   3.881   3.434   8.217 -3.2199 -0.0018 -1.1369
 3131TIP3   OH230951   6.404   0.629   2.026  0.4992  0.3560 -0.1985
 3131TIP3    H130952   6.492   0.617   1.993  0.5200 -1.4929  0.4099
 3131TIP3    H230953   6.416   0.662   2.115  0.6035 -0.2196  0.0059
 3132TIP3   OH230954   1.138   4.792   2.074  0.2689  0.2659  0.4851
 3132TIP3    H130955   1.217   4.798   2.127  1.6100 -1.6265 -1.1606
 3132TIP3    H230956   1.150   4.858   2.006 -0.1694  0.8003  0.9112
 3133TIP3   OH230957   1.655   0.337   1.317  0.0202 -0.2279 -0.1063
 3133TIP3    H130958   1.593   0.405   1.341 -0.1485 -0.3242 -0.2722
 3133TIP3    H230959   1.649   0.273   1.388 -0.4524 -0.4951 -0.3869
 3134TIP3   OH230960   5.864   0.108   1.395 -0.1153 -0.2509 -0.2038
 3134TIP3    H130961   5.853   0.111   1.490 -0.8740 -2.5426 -0.1628
 3134TIP3    H230962   5.909   0.190   1.374 -1.3580  1.0806  1.9118
 3135TIP3   OH230963   6.752   6.496   7.920  0.1588  0.2040  0.3570
 3135TIP3    H130964   6.702   6.562   7.968  0.3601  0.1749  0.6111
 3135TIP3    H230965   6.705   6.414   7.936  0.5574  0.0892  1.0128
 3136TIP3   OH230966   2.181   1.739   1.427  0.2675  0.0158 -0.2726
 3136TIP3    H130967   2.135   1.800   1.369 -0.4227  0.0191  0.2567
 3136TIP3    H230968   2.262   1.784   1.449 -0.5717  1.1182  0.7282
 3137TIP3   OH230969   4.179   4.882   6.803  0.3260 -0.0591  0.0617
 3137TIP3    H130970   4.143   4.793   6.815  0.3243 -0.5857 -3.0232
 3137TIP3    H230971   4.265   4.868   6.764  1.3395  1.3196  1.6869
 3138TIP3   OH230972   4.543   3.316   7.549 -0.3428  0.1451  0.0182
 3138TIP3    H130973   4.455   3.280   7.534  0.2800 -1.0747 -0.8310
 3138TIP3    H230974   4.531   3.377   7.623 -1.7172 -0.7127  0.5503
 3139TIP3   OH230975   2.422   3.098   7.497 -0.4834 -0.0327  0.5907
 3139TIP3    H130976   2.473   3.077   7.419 -0.4720  1.7834  0.0704
 3139TIP3    H230977   2.462   3.045   7.566  0.3166 -0.7238 -0.3817
 3140TIP3   OH230978   5.303   2.780   1.573  0.5342 -0.0785  0.3590
 3140TIP3    H130979   5.241   2.798   1.503  1.1756  1.4648  0.1547
 3140TIP3    H230980   5.283   2.845   1.640  1.6839  0.2216  0.4307
 3141TIP3   OH230981   2.083   0.384   0.946 -0.0843 -0.3434  0.6464
 3141TIP3    H130982   2.147   0.378   1.016 -0.0868 -1.0227  0.5982
 3141TIP3    H230983   1.998   0.388   0.990 -0.0716 -0.5404  0.6901
 3142TIP3   OH230984   1.316   4.010   1.058 -0.0675 -0.3475 -0.0044
 3142TIP3    H130985   1.257   3.937   1.044  1.8050 -1.7205 -1.2326
 3142TIP3    H230986   1.395   3.971   1.096  0.5940  1.1996  0.3298
 3143TIP3   OH230987   4.199   3.909   1.925 -0.2041  0.3432  0.7483
 3143TIP3    H130988   4.126   3.847   1.928  0.6300 -0.6792  0.5757
 3143TIP3    H230989   4.166   3.983   1.873 -1.1717 -0.0165  0.8338
 3144TIP3   OH230990   1.554   3.291   0.369 -0.2752 -0.4992  0.3683
 3144TIP3    H130991   1.490   3.224   0.394 -1.8768  0.2423 -1.5270
 3144TIP3    H230992   1.639   3.249   0.383 -1.2107 -3.0692 -1.0359
 3145TIP3   OH230993   1.503   6.300   0.567 -0.1215  0.2174  0.3160
 3145TIP3    H130994   1.410   6.286   0.585 -0.3153 -0.8789 -1.3881
 3145TIP3    H230995   1.537   6.213   0.545  1.4046  0.5394  1.2465
 3146TIP3   OH230996   0.900   2.905   0.183  0.4313  0.2549  0.0656
 3146TIP3    H130997   0.834   2.878   0.246  1.2650  0.6087  1.1349
 3146TIP3    H230998   0.852   2.955   0.117 -0.5924 -0.8575 -0.0552
 3147TIP3   OH230999   0.717   6.118   6.643 -0.0083 -0.2816  0.2204
 3147TIP3    H131000   0.636   6.115   6.694  0.1781  0.0520  0.5397
 3147TIP3    H231001   0.785   6.140   6.707  0.1816  0.4471 -0.2239
 3148TIP3   OH231002   1.298   4.349   7.458 -0.4821  0.2864 -0.4288
 3148TIP3    H131003   1.284   4.281   7.393 -0.0922 -1.0586  0.8274
 3148TIP3    H231004   1.367   4.313   7.515 -0.5412  1.5633  0.4892
 3149TIP3   OH231005   4.846   6.173   1.114  0.5903  0.1192 -0.2750
 3149TIP3    H131006   4.848   6.104   1.180 -0.7888  1.3621  1.1605
 3149TIP3    H231007   4.937   6.186   1.090  1.1194 -0.5244  1.2663
 3150TIP3   OH231008   6.725   5.922   7.699  0.4470 -0.0744  0.2394
 3150TIP3    H131009   6.663   5.872   7.753  1.0576  0.1597  1.1740
 3150TIP3    H231010   6.704   5.896   7.609 -0.6170 -0.4399  0.5778
 3151TIP3   OH231011   5.916   0.327   8.335  0.0969 -0.0265  0.3370
 3151TIP3    H131012   5.865   0.321   8.415 -0.9110  2.2602 -0.0505
 3151TIP3    H231013   5.859   0.371   8.272  0.9690 -1.4645 -1.5737
 3152TIP3   OH231014   3.226   6.108   1.515 -0.1884  0.0585 -0.0450
 3152TIP3    H131015   3.286   6.172   1.477 -1.1433  0.8777 -0.2222
 3152TIP3    H231016   3.140   6.131   1.478 -0.8098 -0.3439  1.1009
 3153TIP3   OH231017   2.555   1.503   7.604 -0.2904  0.4125 -0.7086
 3153TIP3    H131018   2.607   1.561   7.548 -0.0001 -0.1224 -1.0037
 3153TIP3    H231019   2.495   1.459   7.544 -0.8975  0.8208 -0.4071
 3154TIP3   OH231020   2.998   5.394   0.609 -0.2575  0.1287 -0.2839
 3154TIP3    H131021   3.023   5.302   0.624  1.8523  0.6219 -0.5279
 3154TIP3    H231022   3.012   5.408   0.516 -0.2668  0.7946 -0.1895
 3155TIP3   OH231023   1.562   2.168   2.161  0.0860 -0.6109 -0.7175
 3155TIP3    H131024   1.638   2.125   2.201  2.3916 -0.3696 -4.3471
 3155TIP3    H231025   1.558   2.254   2.204  1.4596 -0.8843  0.0124
 3156TIP3   OH231026   3.929   1.918   1.074  0.6784  0.2014 -0.2129
 3156TIP3    H131027   3.875   1.850   1.032 -0.3159  0.7000  0.2203
 3156TIP3    H231028   3.873   1.996   1.075 -0.2523 -0.2834  3.9466
 3157TIP3   OH231029   6.400   4.334   8.510 -0.1651 -0.1150 -0.3096
 3157TIP3    H131030   6.371   4.395   8.578  0.1861 -2.5556  2.2492
 3157TIP3    H231031   6.474   4.288   8.550  0.1702 -1.5695 -2.4423
 3158TIP3   OH231032   1.471   2.818   1.358  0.1298 -0.0505  0.1530
 3158TIP3    H131033   1.488   2.780   1.272 -0.3095 -0.7347  0.3629
 3158TIP3    H231034   1.395   2.771   1.391  1.9782 -1.8348  2.1440
 3159TIP3   OH231035   6.654   6.737   1.620 -0.1295 -0.4023 -0.1301
 3159TIP3    H131036   6.674   6.774   1.705 -1.8376  0.2033  0.0497
 3159TIP3    H231037   6.574   6.686   1.634 -0.7720  0.1873 -1.4683
 3160TIP3   OH231038   6.673   4.380   1.364 -0.3303 -0.2777 -0.1982
 3160TIP3    H131039   6.661   4.285   1.356 -1.6350 -0.3580  1.8295
 3160TIP3    H231040   6.766   4.394   1.347 -0.3781 -1.6917 -2.0128
 3161TIP3   OH231041   5.720   0.432   8.134 -0.1905  0.0176  0.2984
 3161TIP3    H131042   5.628   0.452   8.120  0.0010 -0.1212 -1.3880
 3161TIP3    H231043   5.740   0.363   8.070  1.1964  0.3996  0.2674
 3162TIP3   OH231044   6.348   6.089   8.577 -0.1580  0.0226  0.1463
 3162TIP3    H131045   6.254   6.086   8.560 -0.4523 -1.7488  1.7728
 3162TIP3    H231046   6.356   6.071   8.670  1.6325  3.7430  0.9146
 3163TIP3   OH231047   3.847   5.691   8.569 -0.2000  0.0422 -0.2800
 3163TIP3    H131048   3.810   5.611   8.530 -0.7976 -0.4429  1.2169
 3163TIP3    H231049   3.771   5.742   8.596  0.1962  0.2437  0.4789
 3164TIP3   OH231050   3.964   3.853   8.238 -0.8290 -0.1419 -0.0416
 3164TIP3    H131051   4.037   3.900   8.198  1.2217 -2.4481  0.7862
 3164TIP3    H231052   3.886   3.890   8.196  0.6729  2.9924 -0.4009
 3165TIP3   OH231053   4.865   1.759   2.129  0.3687 -0.1151  0.0484
 3165TIP3    H131054   4.837   1.673   2.159 -1.4630  0.1713 -0.6892
 3165TIP3    H231055   4.783   1.809   2.118  1.2577  1.1988 -1.0617
 3166TIP3   OH231056   2.352   4.382   2.134 -0.2725  0.4549  0.2290
 3166TIP3    H131057   2.322   4.443   2.202 -0.3255 -0.9629  1.5506
 3166TIP3    H231058   2.439   4.355   2.163  0.1944  0.6917 -0.9068
 3167TIP3   OH231059   6.796   2.043   2.127 -0.3672  0.0390  0.2341
 3167TIP3    H131060   6.706   2.043   2.162 -1.6059 -0.8915 -2.6430
 3167TIP3    H231061   6.830   1.956   2.151 -0.7246 -0.1203  0.1706
 3168TIP3   OH231062   2.246   5.276   2.464  0.2122  0.1151  0.1910
 3168TIP3    H131063   2.243   5.366   2.497 -0.5020  0.6555 -1.2734
 3168TIP3    H231064   2.339   5.259   2.450  0.4421  0.2380  1.4519
 3169TIP3   OH231065   2.600   2.258   6.700 -0.0926 -0.1623  0.0315
 3169TIP3    H131066   2.675   2.279   6.644  0.9847 -0.1440  1.4260
 3169TIP3    H231067   2.533   2.321   6.675  0.8751  0.7998 -0.2408
 3170TIP3   OH231068   2.709   6.337   2.605  0.1075  0.0527 -0.4048
 3170TIP3    H131069   2.670   6.412   2.651 -2.2730 -2.8651  2.8569
 3170TIP3    H231070   2.795   6.326   2.644 -0.8817 -0.8225  1.6730
 3171TIP3   OH231071   5.893   3.645   8.730 -0.2799  0.1344  0.4612
 3171TIP3    H131072   5.854   3.732   8.725  1.3406  0.8766  0.2756
 3171TIP3    H231073   5.863   3.601   8.650  0.1917  1.0990 -0.2668
 3172TIP3   OH231074   0.380   2.713   0.391 -0.5187  0.6969  0.1482
 3172TIP3    H131075   0.434   2.675   0.460 -0.2153 -0.8932 -0.9028
 3172TIP3    H231076   0.323   2.775   0.436  0.1154  0.1829  1.7158
 3173TIP3   OH231077   4.049   4.762   7.443  0.1227  0.3906 -0.3098
 3173TIP3    H131078   4.081   4.784   7.530 -0.1710  0.1910 -0.1480
 3173TIP3    H231079   4.000   4.839   7.415 -0.6728  0.0600  0.1409
 3174TIP3   OH231080   3.523   4.697   7.617 -0.1912  0.1986  0.4708
 3174TIP3    H131081   3.453   4.762   7.605  0.0186  0.4779  0.7321
 3174TIP3    H231082   3.482   4.614   7.595 -0.2760  0.4908 -0.5563
 3175TIP3   OH231083   0.090   1.035   0.471 -0.0527 -0.5030  0.1967
 3175TIP3    H131084   0.011   0.996   0.510  1.2027 -3.1077  0.3140
 3175TIP3    H231085   0.110   1.109   0.528 -0.6718 -1.6792  2.0272
 3176TIP3   OH231086   0.017   1.759   1.179 -0.3377  0.0434  0.5781
 3176TIP3    H131087  -0.046   1.831   1.179 -0.6533 -0.2126 -0.2795
 3176TIP3    H231088  -0.027   1.690   1.130  0.7340 -0.0300 -0.3144
 3177TIP3   OH231089   5.159   0.113   8.008  0.5189  0.4092  0.6339
 3177TIP3    H131090   5.155   0.138   7.916  0.8648 -1.9497 -0.0753
 3177TIP3    H231091   5.070   0.087   8.030  0.5087  0.6499  0.8839
 3178TIP3   OH231092   0.576   0.251   7.585 -0.3998 -0.2397 -0.2042
 3178TIP3    H131093   0.661   0.253   7.539 -0.5241 -2.8610 -0.7004
 3178TIP3    H231094   0.512   0.264   7.515 -0.5172  3.7287  0.4065
 3179TIP3   OH231095   0.478   1.643   2.511  0.0060 -0.5951  0.1253
 3179TIP3    H131096   0.489   1.735   2.534 -1.3250 -0.5192  0.5611
 3179TIP3    H231097   0.558   1.600   2.541 -0.6230 -0.0973  2.7464
 3180TIP3   OH231098   3.622   1.217   2.678 -0.2773  0.5951  0.0669
 3180TIP3    H131099   3.708   1.178   2.661 -1.8119 -2.2324 -1.9953
 3180TIP3    H231100   3.576   1.152   2.730 -1.3013  2.0078  1.0015
 3181TIP3   OH231101   0.885   5.710   6.978 -0.3444 -0.1221 -0.0410
 3181TIP3    H131102   0.800   5.678   6.949  0.3389 -0.6870 -1.5618
 3181TIP3    H231103   0.918   5.762   6.904  0.8759 -0.4082  0.2710
 3182TIP3   OH231104   5.826   0.735   1.990  0.1893 -0.4876  0.3434
 3182TIP3    H131105   5.745   0.768   1.952 -0.8228 -2.8444  0.2312
 3182TIP3    H231106   5.840   0.651   1.946  3.0686  0.1198 -0.0807
 3183TIP3   OH231107   1.295   6.153   2.372 -0.5178 -0.0848 -0.2061
 3183TIP3    H131108   1.331   6.120   2.455 -1.0305 -1.9687 -0.6717
 3183TIP3    H231109   1.268   6.074   2.325 -2.6790  1.0803 -1.0634
 3184TIP3   OH231110   4.760   0.555   0.589 -0.0001  1.0804  0.4608
 3184TIP3    H131111   4.841   0.562   0.639  0.6617  0.4216 -0.4971
 3184TIP3    H231112   4.774   0.480   0.530 -1.2110  1.0961  0.1220
 3185TIP3   OH231113   2.064   4.486   1.466 -0.2429  0.0479 -0.2596
 3185TIP3    H131114   1.979   4.446   1.445 -0.5019  0.6996 -0.4746
 3185TIP3    H231115   2.114   4.478   1.384  0.2052 -1.0449  0.0904
 3186TIP3   OH231116   4.415   0.992   1.379  0.6439 -0.6561 -0.3053
 3186TIP3    H131117   4.383   1.055   1.444 -0.0969 -0.9306 -0.3874
 3186TIP3    H231118   4.476   1.042   1.325 -0.7147  0.3110 -1.0290
 3187TIP3   OH231119   0.776   5.809   0.833  0.5888  0.3290 -0.1666
 3187TIP3    H131120   0.814   5.764   0.909  2.5738  3.2525  0.7392
 3187TIP3    H231121   0.839   5.794   0.763  0.2905  0.1300 -0.3911
 3188TIP3   OH231122   3.565   4.954   8.058  0.1239 -0.0165  0.0957
 3188TIP3    H131123   3.537   4.934   8.147 -0.5435 -1.0964 -0.3316
 3188TIP3    H231124   3.612   4.875   8.030 -1.6066 -0.6386 -1.2609
 3189TIP3   OH231125   0.217   3.785   1.846  0.0622 -0.0744  0.2027
 3189TIP3    H131126   0.289   3.823   1.795 -0.8535  2.7005  0.8438
 3189TIP3    H231127   0.259   3.719   1.901  2.0375  1.0066  0.0853
 3190TIP3   OH231128   1.806   2.500   1.712 -0.0937 -0.0871  0.0112
 3190TIP3    H131129   1.835   2.579   1.757  0.6845  0.8464 -2.0055
 3190TIP3    H231130   1.778   2.441   1.782  1.5740  1.0542  1.7359
 3191TIP3   OH231131   2.333   6.528   1.516  0.1010  0.0522  0.4920
 3191TIP3    H131132   2.379   6.480   1.585 -0.5120  0.7643  1.4299
 3191TIP3    H231133   2.240   6.518   1.538 -0.0928  0.4477 -0.1221
 3192TIP3   OH231134   5.208   3.940   8.060 -0.3731 -0.2883 -0.2159
 3192TIP3    H131135   5.300   3.953   8.084 -0.0450  1.1764 -2.0931
 3192TIP3    H231136   5.198   3.845   8.059  0.8899 -0.4691  0.8092
 3193TIP3   OH231137   5.272   4.657   7.802  0.5871  0.2204  0.2717
 3193TIP3    H131138   5.303   4.628   7.888  0.7998  0.7694  0.3848
 3193TIP3    H231139   5.280   4.580   7.746 -0.1879 -0.3343  0.9024
 3194TIP3   OH231140   5.607   5.767   1.043  0.0256 -0.0277  0.7744
 3194TIP3    H131141   5.569   5.697   1.095  2.5068 -0.8216  1.6737
 3194TIP3    H231142   5.669   5.810   1.102  1.1108  0.6480 -0.7790
 3195TIP3   OH231143   6.106   3.269   0.755  0.1970  0.4212  0.4966
 3195TIP3    H131144   6.100   3.278   0.850 -1.2443 -0.1319  0.4811
 3195TIP3    H231145   6.028   3.218   0.731 -0.4343  2.0979 -1.1899
 3196TIP3   OH231146   3.686   2.079   7.929 -0.6269  0.2065  0.5168
 3196TIP3    H131147   3.772   2.072   7.971 -1.5704  0.9542  2.7365
 3196TIP3    H231148   3.681   2.003   7.872  1.7638  0.5040 -0.2251
 3197TIP3   OH231149   5.874   1.034   1.442 -0.5092  0.2607 -0.2958
 3197TIP3    H131150   5.847   0.949   1.475  0.1425 -0.4733 -1.6041
 3197TIP3    H231151   5.822   1.097   1.492  0.7715 -0.7326  2.4677
 3198TIP3   OH231152   0.142   6.378   1.724  0.3678  0.2224  0.2851
 3198TIP3    H131153   0.103   6.293   1.743  0.2509  0.0284 -0.7200
 3198TIP3    H231154   0.102   6.438   1.786  1.4824 -0.6778  1.9500
 3199TIP3   OH231155   0.661   6.739   0.585  0.6671  0.4697 -0.1963
 3199TIP3    H131156   0.640   6.647   0.599  1.4752  0.4596  1.1369
 3199TIP3    H231157   0.611   6.785   0.653  0.3879  1.0109 -0.7548
 3200TIP3   OH231158   6.339   0.691   6.688 -0.0165  0.4014 -0.0925
 3200TIP3    H131159   6.266   0.703   6.749  0.1069  2.9422 -0.3448
 3200TIP3    H231160   6.414   0.731   6.731  0.6411  0.0669 -0.9023
 3201TIP3   OH231161   3.691   6.786   0.124  0.3107  0.4818  1.1231
 3201TIP3    H131162   3.696   6.755   0.034 -0.5320  1.2916  0.7699
 3201TIP3    H231163   3.597   6.801   0.139  0.5333  1.3740  1.7623
 3202TIP3   OH231164   4.804   5.835   1.342 -0.2019  0.8428 -0.9241
 3202TIP3    H131165   4.795   5.754   1.392  0.4423 -0.6062 -3.0260
 3202TIP3    H231166   4.731   5.889   1.370 -0.0164  0.0080  1.3355
 3203TIP3   OH231167   2.558   1.882   2.596 -0.4355  1.1431 -0.3820
 3203TIP3    H131168   2.533   1.791   2.578 -0.5682  1.0446  0.2795
 3203TIP3    H231169   2.652   1.879   2.611 -0.7266  0.7459  1.7396
 3204TIP3   OH231170   3.009   2.739   2.027 -0.3559  1.0390 -0.0393
 3204TIP3    H131171   2.985   2.805   2.092  2.8645  1.8112  0.5301
 3204TIP3    H231172   3.004   2.784   1.943  1.2260  1.8979  0.2902
 3205TIP3   OH231173   1.342   1.470   0.825 -0.2431  0.1352  0.2441
 3205TIP3    H131174   1.415   1.412   0.848  0.9913  0.5850 -2.2377
 3205TIP3    H231175   1.361   1.552   0.871 -0.0605 -0.2756  0.9084
 3206TIP3   OH231176   1.669   2.611   6.408 -0.0892 -0.4746 -0.2348
 3206TIP3    H131177   1.595   2.667   6.432  0.7346  0.9469 -0.8634
 3206TIP3    H231178   1.637   2.560   6.333 -0.1930  0.7589 -1.0689
 3207TIP3   OH231179   3.285   0.125   7.338  0.0945  0.0038 -0.2248
 3207TIP3    H131180   3.301   0.033   7.315  0.0295 -0.0219 -0.1661
 3207TIP3    H231181   3.191   0.137   7.328 -0.4259 -0.7955  2.7992
 3208TIP3   OH231182   5.319   5.692   0.432 -0.2493 -0.0776  0.1404
 3208TIP3    H131183   5.309   5.639   0.511 -0.8127 -1.2433 -0.6964
 3208TIP3    H231184   5.401   5.661   0.393 -0.2856  0.0688 -0.0527
 3209TIP3   OH231185   5.510   6.008   8.398  0.4652 -0.6483 -0.1973
 3209TIP3    H131186   5.422   5.988   8.367  0.9685 -1.6793 -1.0337
 3209TIP3    H231187   5.567   5.949   8.348  1.5090 -0.9051  1.2473
 3210TIP3   OH231188   0.145   2.446   1.590 -0.1555  0.2528  0.7051
 3210TIP3    H131189   0.065   2.489   1.617 -0.7084 -0.5550  0.4147
 3210TIP3    H231190   0.181   2.408   1.670  0.7639  1.8848  1.1078
 3211TIP3   OH231191   5.991   6.241   0.996 -0.0629 -0.4020 -0.6847
 3211TIP3    H131192   5.983   6.272   1.086  1.3157  0.0904 -0.7166
 3211TIP3    H231193   6.030   6.154   1.005  2.1415  0.5085 -0.8610
 3212TIP3   OH231194   2.819   2.744   8.389 -0.0877 -0.1439 -0.0094
 3212TIP3    H131195   2.908   2.755   8.420  0.4853 -2.6071 -0.6194
 3212TIP3    H231196   2.777   2.829   8.407  2.9094  1.8804 -1.6253
 3213TIP3   OH231197   2.801   4.225   7.547  0.1886 -0.3027 -0.0882
 3213TIP3    H131198   2.824   4.133   7.530 -0.6056 -0.2397 -1.7006
 3213TIP3    H231199   2.886   4.269   7.556  0.5956 -1.0093 -0.3743
 3214TIP3   OH231200   3.419   0.640   0.680  0.2517 -0.3094  0.3076
 3214TIP3    H131201   3.350   0.635   0.746 -0.3300 -2.1802 -0.3751
 3214TIP3    H231202   3.379   0.606   0.600  1.3762  0.5243 -0.6535
 3215TIP3   OH231203   5.836   3.891   1.989  0.6139  0.4081  0.2981
 3215TIP3    H131204   5.817   3.981   2.013 -0.7228  0.6344 -1.4231
 3215TIP3    H231205   5.811   3.884   1.897  1.0682 -1.6205  0.2612
 3216TIP3   OH231206   1.428   2.316   7.744  1.0202  0.3939 -0.2422
 3216TIP3    H131207   1.482   2.389   7.713  1.3689  0.8772  1.4332
 3216TIP3    H231208   1.422   2.328   7.838 -1.9488  0.3123 -0.3213
 3217TIP3   OH231209   2.920   5.583   2.414  0.1845  0.4138  0.1473
 3217TIP3    H131210   2.976   5.510   2.386 -0.4522  0.1575 -0.4781
 3217TIP3    H231211   2.870   5.548   2.488  0.1135  0.3232  0.0562
 3218TIP3   OH231212   2.189   5.139   7.801 -0.4943 -0.2105  0.4833
 3218TIP3    H131213   2.240   5.068   7.761 -1.3881 -0.5225 -0.1341
 3218TIP3    H231214   2.109   5.097   7.830 -1.1328  0.5810 -0.0835
 3219TIP3   OH231215   1.972   2.825   0.612 -0.3815 -0.5476  0.1038
 3219TIP3    H131216   1.929   2.794   0.533 -0.2064  0.7538 -0.5273
 3219TIP3    H231217   1.909   2.806   0.682 -0.9597 -0.8173 -0.4766
 3220TIP3   OH231218   2.991   2.872   1.786  0.1686  0.7566  0.2717
 3220TIP3    H131219   3.060   2.876   1.720 -0.1436  1.0489 -0.0441
 3220TIP3    H231220   2.911   2.851   1.737  0.0790  0.1603  0.6692
 3221TIP3   OH231221   4.987   0.021   7.282 -0.1777 -0.1766 -0.5541
 3221TIP3    H131222   4.981  -0.026   7.365  1.3550 -0.8524 -0.7966
 3221TIP3    H231223   4.971  -0.045   7.215 -1.3028  0.3457 -0.8131
 3222TIP3   OH231224   0.655   1.121   7.324  0.1201 -0.0094  0.2705
 3222TIP3    H131225   0.684   1.149   7.237 -2.2214  1.2933 -0.1964
 3222TIP3    H231226   0.720   1.156   7.384  0.7329  0.7891 -0.8176
 3223TIP3   OH231227   0.208   5.089   2.175 -0.0082 -0.4293  0.1841
 3223TIP3    H131228   0.190   4.998   2.152 -0.0214 -0.6180  0.9013
 3223TIP3    H231229   0.144   5.140   2.125 -1.8119 -1.0049  1.7830
 3224TIP3   OH231230   1.087   4.266   1.644 -0.7028  0.5853 -0.1029
 3224TIP3    H131231   1.040   4.186   1.668 -1.9603  1.3934  0.2679
 3224TIP3    H231232   1.044   4.296   1.564 -2.0155  2.2286  1.1365
 3225TIP3   OH231233   6.571   0.543   2.344  0.5570  0.2676  0.1129
 3225TIP3    H131234   6.605   0.632   2.359 -0.7046  0.5397  1.7487
 3225TIP3    H231235   6.575   0.502   2.431  1.3327 -1.3760 -0.6707
 3226TIP3   OH231236   3.312   2.700   0.666  0.2771  0.6876  0.8027
 3226TIP3    H131237   3.271   2.763   0.607 -2.0409 -1.2051  0.2524
 3226TIP3    H231238   3.367   2.646   0.609 -0.3841  0.1232  0.6897
 3227TIP3   OH231239   6.619   4.624   7.345 -0.0058  0.3078 -0.2894
 3227TIP3    H131240   6.576   4.649   7.427 -0.7746  0.6232 -0.7766
 3227TIP3    H231241   6.548   4.590   7.290  0.3942  0.6347 -1.0283
 3228TIP3   OH231242   4.873   0.363   8.560 -0.5816 -0.0310  0.2253
 3228TIP3    H131243   4.910   0.450   8.577 -0.0214 -0.3840  0.8362
 3228TIP3    H231244   4.778   0.378   8.561 -0.4932  0.5770  0.3168
 3229TIP3   OH231245   0.518   5.479   1.289  0.2089 -0.1584  0.0023
 3229TIP3    H131246   0.451   5.411   1.282  0.7831 -0.5942 -1.6592
 3229TIP3    H231247   0.601   5.432   1.280  0.7250  0.4903  1.1450
 3230TIP3   OH231248   1.470   5.127   2.199 -0.1875 -0.3394 -0.2881
 3230TIP3    H131249   1.522   5.076   2.261 -0.5976 -1.0555 -0.5237
 3230TIP3    H231250   1.519   5.209   2.189  0.2439 -0.4912  0.4425
 3231TIP3   OH231251   6.263   5.295   0.050  0.2065 -0.2909 -0.6172
 3231TIP3    H131252   6.325   5.297  -0.023  0.3606 -1.0846 -0.5118
 3231TIP3    H231253   6.215   5.378   0.043  2.0805  0.9186 -0.0138
 3232TIP3   OH231254   4.160   2.215   0.436 -0.1538  0.4136 -0.8349
 3232TIP3    H131255   4.212   2.291   0.463  2.3439 -1.3953 -0.3095
 3232TIP3    H231256   4.214   2.170   0.371 -0.0907 -2.5945  1.1358
 3233TIP3   OH231257   0.391   4.992   1.584 -0.2087 -0.1565  0.8958
 3233TIP3    H131258   0.453   4.924   1.610 -1.2070 -1.2448  0.5481
 3233TIP3    H231259   0.366   5.035   1.665  2.4056  1.6278  0.8772
 3234TIP3   OH231260   0.055   5.252   8.728 -0.0785 -0.1276  0.4196
 3234TIP3    H131261   0.133   5.306   8.741  1.2371 -1.5469 -0.9641
 3234TIP3    H231262   0.090   5.164   8.710 -1.9670 -0.6987 -0.7924
 3235TIP3   OH231263   6.461   4.502   1.464  0.4065 -0.0951  0.3492
 3235TIP3    H131264   6.454   4.595   1.442 -0.9949 -0.6066 -1.5892
 3235TIP3    H231265   6.545   4.475   1.427  0.3977  0.2007  0.1110
 3236TIP3   OH231266   6.329   3.608   8.314 -0.3191 -0.2750 -0.3888
 3236TIP3    H131267   6.386   3.668   8.265 -1.0728 -0.1126 -1.0724
 3236TIP3    H231268   6.284   3.665   8.377 -1.0540 -0.1089 -1.0554
 3237TIP3   OH231269   0.839   3.727   0.836 -0.5242  0.2762  0.4652
 3237TIP3    H131270   0.849   3.709   0.743 -0.7342  0.6495  0.3673
 3237TIP3    H231271   0.797   3.648   0.872 -0.9653  0.3556  0.1399
 3238TIP3   OH231272   4.742   6.240   8.816 -0.5349  0.3761  0.2941
 3238TIP3    H131273   4.691   6.245   8.897 -0.2974 -0.8333  0.5429
 3238TIP3    H231274   4.688   6.285   8.751 -1.5371 -0.1394  0.7441
 3239TIP3   OH231275   5.242   0.424   8.025  0.1290 -0.0833 -0.7687
 3239TIP3    H131276   5.197   0.464   8.099  0.8124 -0.9887  0.1617
 3239TIP3    H231277   5.221   0.331   8.031  2.2318 -0.5701 -0.1945
 3240TIP3   OH231278   6.540   2.218   6.841  0.0820 -0.1636  1.0261
 3240TIP3    H131279   6.574   2.308   6.844  1.4250 -0.6054 -0.0133
 3240TIP3    H231280   6.451   2.226   6.874  0.5309  1.3735  2.0018
 3241TIP3   OH231281   5.851   3.967   1.093  0.4404  0.3953  0.3418
 3241TIP3    H131282   5.819   3.959   1.183  0.7545  1.1798  0.5382
 3241TIP3    H231283   5.775   3.946   1.039  0.4947 -1.0117  0.7726
 3242TIP3   OH231284   0.974   3.087   2.032 -0.7290 -0.5914  0.0474
 3242TIP3    H131285   0.903   3.029   2.060 -0.9977  0.1876  1.0397
 3242TIP3    H231286   0.950   3.114   1.944 -1.4421 -0.6765  0.2093
 3243TIP3   OH231287   5.330   1.689   1.177 -0.0499  0.7468  0.8117
 3243TIP3    H131288   5.407   1.741   1.153  1.3535 -1.0137  1.2544
 3243TIP3    H231289   5.257   1.750   1.169  0.8807  1.6865 -2.9500
 3244TIP3   OH231290   2.421   2.357   0.664  0.3355  0.1315  0.2643
 3244TIP3    H131291   2.439   2.263   0.663  1.8418  0.4022  0.1371
 3244TIP3    H231292   2.478   2.393   0.596 -0.3465  1.1304  0.1956
 3245TIP3   OH231293   2.105   2.810   2.105  0.0332  0.4813  0.0966
 3245TIP3    H131294   2.108   2.853   2.020  0.9639  0.2405  0.0041
 3245TIP3    H231295   2.072   2.877   2.165  0.4631  0.9933 -0.2423
 3246TIP3   OH231296   0.934   5.753   1.946  0.5205  0.2417 -0.2109
 3246TIP3    H131297   0.986   5.674   1.961 -0.8175 -0.1112  3.7394
 3246TIP3    H231298   0.848   5.720   1.918 -0.2530  0.1460  2.1121
 3247TIP3   OH231299   2.930   1.515   2.095 -0.3333  0.3339  0.1349
 3247TIP3    H131300   3.011   1.502   2.145  0.6792  1.1366 -1.2238
 3247TIP3    H231301   2.953   1.580   2.028 -2.2073  0.8444 -0.0777
 3248TIP3   OH231302   3.387   3.871   8.211 -0.3313 -0.4912  0.5210
 3248TIP3    H131303   3.353   3.944   8.263  0.9730  1.5599 -1.3147
 3248TIP3    H231304   3.465   3.842   8.259  0.4686  0.9161  0.1207
 3249TIP3   OH231305   2.423   4.091   1.697 -0.0831 -0.2565 -0.3282
 3249TIP3    H131306   2.337   4.063   1.729 -0.1483 -0.3445 -0.5769
 3249TIP3    H231307   2.441   4.172   1.744 -0.6604  0.1842 -0.8684
 3250TIP3   OH231308   0.200   0.754   8.643  0.4674  0.0346 -0.0171
 3250TIP3    H131309   0.272   0.693   8.659  1.3842  0.5070 -2.0914
 3250TIP3    H231310   0.239   0.841   8.655  0.0335  0.2830 -0.3877
 3251TIP3   OH231311   6.099   5.816   1.476 -0.1955 -0.1748 -0.4954
 3251TIP3    H131312   6.086   5.777   1.563  0.5169 -1.5321 -0.9671
 3251TIP3    H231313   6.181   5.778   1.445  0.6852  1.9116 -0.9190
 3252TIP3   OH231314   4.101   4.907   8.801  0.6070  0.6211 -0.7177
 3252TIP3    H131315   4.170   4.960   8.759  0.3838 -0.5574 -2.6611
 3252TIP3    H231316   4.074   4.845   8.734  0.4600 -1.6297  1.3001
 3253TIP3   OH231317   1.875   2.590   7.469  0.2003 -0.2084 -0.2385
 3253TIP3    H131318   1.919   2.514   7.431  0.2598 -0.1013 -0.3825
 3253TIP3    H231319   1.945   2.654   7.482  0.1359 -0.1465 -0.1966
 3254TIP3   OH231320   0.792   1.293   0.549  0.0870  0.9390 -0.3172
 3254TIP3    H131321   0.792   1.299   0.644 -0.0455 -0.7512 -0.1714
 3254TIP3    H231322   0.709   1.332   0.522  0.6114  2.4436  0.1383
 3255TIP3   OH231323   4.787   0.637   1.335  0.1521 -0.5700 -0.3324
 3255TIP3    H131324   4.823   0.565   1.283  1.8948  0.0979 -0.0927
 3255TIP3    H231325   4.747   0.695   1.270  0.2669 -0.8915 -0.6937
 3256TIP3   OH231326   5.847   2.361   8.159 -0.3592 -0.2945  0.0389
 3256TIP3    H131327   5.759   2.327   8.150 -0.5279  0.6103 -2.7335
 3256TIP3    H231328   5.841   2.453   8.131  1.1063  0.3650  1.6978
 3257TIP3   OH231329   5.519   5.592   1.794 -0.1207 -0.6615  0.7319
 3257TIP3    H131330   5.511   5.668   1.737 -1.0471 -0.3858  1.2044
 3257TIP3    H231331   5.500   5.517   1.737  0.8071 -0.5491  0.2656
 3258TIP3   OH231332   4.064   0.842   8.050  0.1916 -0.0578  0.0802
 3258TIP3    H131333   3.992   0.860   7.989  0.1238 -1.3709 -0.2424
 3258TIP3    H231334   4.121   0.919   8.043  0.5741 -0.4829 -2.2309
 3259TIP3   OH231335   1.863   6.466   1.411  0.3639 -0.6100  0.0241
 3259TIP3    H131336   1.789   6.501   1.361  1.6629 -1.2644 -2.5583
 3259TIP3    H231337   1.826   6.394   1.462 -0.8200 -0.8355 -1.0969
 3260TIP3   OH231338   4.606   3.460   7.793  0.2614 -0.4271 -0.0344
 3260TIP3    H131339   4.677   3.504   7.747 -0.2567  1.3524  0.7708
 3260TIP3    H231340   4.541   3.529   7.810 -1.7093 -1.9800 -0.7712
 3261TIP3   OH231341   5.150   0.683   0.306  0.0029 -0.1898  0.1796
 3261TIP3    H131342   5.062   0.664   0.273 -0.0864  0.2878  0.1228
 3261TIP3    H231343   5.135   0.727   0.390  0.1077  1.5366 -0.6624
 3262TIP3   OH231344   3.301   5.232   8.005  0.4983  0.2450 -0.2742
 3262TIP3    H131345   3.222   5.222   7.952  0.8329 -0.1746 -0.6959
 3262TIP3    H231346   3.344   5.310   7.969  1.4198 -0.8046 -1.5376
 3263TIP3   OH231347   2.974   5.761   0.490 -0.0046  0.4116  0.1071
 3263TIP3    H131348   3.009   5.780   0.577  3.1332  0.2904 -1.0113
 3263TIP3    H231349   2.929   5.842   0.465 -0.3933  0.6783  1.5322
 3264TIP3   OH231350   6.693   4.926   7.522 -0.4133  0.2612 -0.5548
 3264TIP3    H131351   6.744   4.996   7.562 -1.2400  0.5235  0.0793
 3264TIP3    H231352   6.753   4.852   7.519  0.3012  0.8307 -0.7208
 3265TIP3   OH231353   4.596   1.052   0.192 -0.1967 -0.6841  0.1712
 3265TIP3    H131354   4.630   1.077   0.278  0.8554  2.9040 -1.0869
 3265TIP3    H231355   4.673   1.023   0.143  0.1583  1.7004 -0.8420
 3266TIP3   OH231356   2.910   5.021   8.723 -0.3131 -0.7196  0.2564
 3266TIP3    H131357   2.909   4.933   8.761  1.1256 -1.6435 -1.6551
 3266TIP3    H231358   2.965   5.072   8.783  1.6623 -2.0572 -0.2929
 3267TIP3   OH231359   6.760   6.008   6.831  0.1508  0.2390 -0.1279
 3267TIP3    H131360   6.820   6.035   6.762 -1.3385  0.1831 -1.5212
 3267TIP3    H231361   6.735   5.918   6.807  0.3531 -0.1493  1.0465
 3268TIP3   OH231362   2.398   2.974   1.827  0.0543 -0.5522  0.2429
 3268TIP3    H131363   2.490   3.002   1.824  0.2768 -1.3301 -1.0619
 3268TIP3    H231364   2.402   2.884   1.861 -0.1160 -0.9047 -0.6318
 3269TIP3   OH231365   4.455   3.116   2.236  0.2398 -0.5668  0.2030
 3269TIP3    H131366   4.433   3.052   2.168  0.2510  1.7019 -2.1288
 3269TIP3    H231367   4.376   3.170   2.244  1.0696  0.7114  0.1353
 3270TIP3   OH231368   0.063   2.922   2.082  0.1259 -0.1939 -0.0160
 3270TIP3    H131369   0.143   2.906   2.132  0.3823  0.5398 -0.1873
 3270TIP3    H231370  -0.004   2.871   2.129  0.4732  0.0339  0.7532
 3271TIP3   OH231371   2.137   5.482   7.390  0.0645 -0.4294 -0.1091
 3271TIP3    H131372   2.193   5.533   7.332 -0.2778 -0.2441 -0.2768
 3271TIP3    H231373   2.054   5.530   7.392 -0.2860 -1.0155 -0.3343
 3272TIP3   OH231374   5.735   5.889   1.805 -0.0317  0.4705 -0.0035
 3272TIP3    H131375   5.656   5.868   1.754  0.7181 -0.5667 -0.7967
 3272TIP3    H231376   5.776   5.960   1.757  0.3800 -0.1276 -0.5570
 3273TIP3   OH231377   1.837   6.178   0.286 -0.2515  0.1946 -0.2285
 3273TIP3    H131378   1.853   6.148   0.197  1.5997  2.7720 -0.9002
 3273TIP3    H231379   1.925   6.194   0.322 -0.9073 -1.2114  2.2808
 3274TIP3   OH231380   1.902   5.920   2.392  0.0715 -0.0448 -0.0191
 3274TIP3    H131381   1.915   5.945   2.483  0.4704  0.0648 -0.1005
 3274TIP3    H231382   1.985   5.879   2.367 -0.4528 -1.1296  0.0062
 3275TIP3   OH231383   5.524   5.899   0.068 -0.1831  0.2800  0.1263
 3275TIP3    H131384   5.488   5.949  -0.005 -1.3947 -0.4164  0.2237
 3275TIP3    H231385   5.598   5.951   0.099  0.3966  0.5491 -1.6323
 3276TIP3   OH231386   4.390   6.656   7.340 -0.2321 -0.3020 -0.1506
 3276TIP3    H131387   4.321   6.715   7.308  0.1154 -0.0022 -0.3581
 3276TIP3    H231388   4.390   6.583   7.278 -0.2933 -0.2505 -0.2119
 3277TIP3   OH231389   2.696   1.691   8.062  0.3262  0.1627  0.3358
 3277TIP3    H131390   2.669   1.768   8.011 -0.1873  0.1198  0.5444
 3277TIP3    H231391   2.678   1.617   8.004  3.1973  0.3156 -0.9205
 3278TIP3   OH231392   1.243   3.016   7.520  0.2817 -0.0321 -0.1146
 3278TIP3    H131393   1.303   3.089   7.534 -0.0484  0.2120  0.0307
 3278TIP3    H231394   1.284   2.942   7.565  0.4737  0.1316 -0.0203
 3279TIP3   OH231395   4.100   1.990   1.276 -0.4262 -0.4123 -0.1695
 3279TIP3    H131396   4.057   1.967   1.194  1.6099  1.5261 -1.9229
 3279TIP3    H231397   4.028   2.015   1.334 -1.8634 -0.2002 -1.9308
 3280TIP3   OH231398   2.226   4.085   6.796 -0.3195 -1.0472  0.0302
 3280TIP3    H131399   2.188   3.998   6.808 -0.6901 -0.8362  0.4317
 3280TIP3    H231400   2.151   4.144   6.800  0.1817 -0.4707  2.5610
 3281TIP3   OH231401   3.311   2.726   8.294  0.9503  0.5034 -0.2264
 3281TIP3    H131402   3.365   2.794   8.334  0.3398  0.4170  0.7878
 3281TIP3    H231403   3.373   2.657   8.269  1.4273  0.8761 -0.0761
 3282TIP3   OH231404   5.853   6.675   0.054  0.0144  0.7754  0.4331
 3282TIP3    H131405   5.827   6.585   0.033  1.3147  0.4142  0.2545
 3282TIP3    H231406   5.802   6.698   0.132 -0.8402  0.1477  0.0770
 3283TIP3   OH231407   6.557   3.815   0.699 -0.3483  0.2174 -0.2262
 3283TIP3    H131408   6.481   3.792   0.752  0.4546  0.8289  1.2934
 3283TIP3    H231409   6.534   3.790   0.610 -0.9494 -2.8941  0.6856
 3284TIP3   OH231410   0.610   6.039   0.886  0.1177  0.0997  0.2025
 3284TIP3    H131411   0.658   5.956   0.876 -0.7263 -0.3800  0.0339
 3284TIP3    H231412   0.620   6.062   0.979  1.4468  0.4983 -0.0232
 3285TIP3   OH231413   1.245   1.090   8.713  0.1532 -0.6104  0.3594
 3285TIP3    H131414   1.171   1.142   8.681  0.3603 -0.5266  0.0258
 3285TIP3    H231415   1.275   1.137   8.791 -0.3682 -0.8341  0.7029
 3286TIP3   OH231416   2.670   6.140   1.333 -0.6948 -0.1454 -0.1876
 3286TIP3    H131417   2.578   6.135   1.306 -1.0292  0.1722  0.8555
 3286TIP3    H231418   2.676   6.087   1.412 -0.4929  1.5475  1.0062
 3287TIP3   OH231419   4.187   6.787   8.354  0.0481 -0.4602  0.2959
 3287TIP3    H131420   4.176   6.878   8.325 -0.0655  0.1513  2.1234
 3287TIP3    H231421   4.201   6.738   8.273  0.8647  1.2800 -0.6869
 3288TIP3   OH231422   0.529   5.053   2.717  0.2937  0.3960  0.5095
 3288TIP3    H131423   0.435   5.043   2.730  0.2006 -0.3771 -0.6018
 3288TIP3    H231424   0.560   4.965   2.696  1.2851  0.6291  0.9286
 3289TIP3   OH231425   5.872   2.566   7.691  0.5993 -0.4077 -0.1868
 3289TIP3    H131426   5.821   2.646   7.697  1.0501  0.0418 -1.9204
 3289TIP3    H231427   5.908   2.554   7.779  0.6812  1.3859  0.0610
 3290TIP3   OH231428   5.796   3.797   7.944 -0.3415 -0.3436  0.0611
 3290TIP3    H131429   5.740   3.854   7.891 -1.4567 -0.0249  1.5314
 3290TIP3    H231430   5.780   3.824   8.034  3.1650  0.6772  0.5526
 3291TIP3   OH231431   6.112   1.688   6.954 -0.2089  0.0225 -0.1732
 3291TIP3    H131432   6.054   1.657   7.023 -1.7339  0.5809 -1.1544
 3291TIP3    H231433   6.065   1.760   6.914  0.8311 -0.0075 -1.5168
 3292TIP3   OH231434   0.645   3.336   1.170 -0.1103 -0.4751 -0.4028
 3292TIP3    H131435   0.602   3.250   1.173 -0.7846 -0.1490 -0.5865
 3292TIP3    H231436   0.711   3.332   1.240 -0.8071 -0.7903  0.2457
 3293TIP3   OH231437   5.902   5.835   1.123  0.3640  0.5894 -0.2211
 3293TIP3    H131438   5.889   5.874   1.037  1.8323 -0.7423 -1.0908
 3293TIP3    H231439   5.961   5.895   1.168  0.0909  0.9612 -0.3470
 3294TIP3   OH231440   1.710   4.923   1.787 -0.3961 -0.2847 -0.2214
 3294TIP3    H131441   1.631   4.975   1.803  0.4262  0.9002  0.1772
 3294TIP3    H231442   1.731   4.886   1.873  0.3494  0.6889  0.0238
 3295TIP3   OH231443   0.363   2.023   7.970 -0.2420  0.6825 -0.2479
 3295TIP3    H131444   0.395   1.933   7.973 -0.6705  0.4867 -1.1649
 3295TIP3    H231445   0.318   2.036   8.053 -0.6362 -0.1347 -0.3297
 3296TIP3   OH231446   1.055   5.551   0.813  0.1348 -0.3578 -0.0128
 3296TIP3    H131447   1.150   5.558   0.812  0.1048  0.2338 -1.3044
 3296TIP3    H231448   1.028   5.582   0.899  1.0289  0.7788 -0.1296
 3297TIP3   OH231449   5.678   4.569   1.559  0.3366  0.1653 -1.0463
 3297TIP3    H131450   5.729   4.490   1.540  0.1537  0.4917 -3.1033
 3297TIP3    H231451   5.698   4.628   1.486 -0.4671  1.5587 -0.1747
 3298TIP3   OH231452   1.829   4.511   2.503 -0.1582  0.0725 -0.6486
 3298TIP3    H131453   1.808   4.435   2.557  0.4677  0.4665  0.1927
 3298TIP3    H231454   1.897   4.556   2.553 -1.6002  2.0301 -0.3147
 3299TIP3   OH231455   3.054   4.318   1.059  0.4340  0.1536 -0.5489
 3299TIP3    H131456   3.032   4.408   1.083 -1.1939  0.1285 -1.7066
 3299TIP3    H231457   3.043   4.268   1.140 -2.5896  0.4173 -0.6629
 3300TIP3   OH231458   5.005   1.958   0.302 -0.0650 -0.3106  0.2440
 3300TIP3    H131459   4.958   1.881   0.270  1.0896 -0.2735 -1.6714
 3300TIP3    H231460   4.958   1.984   0.381 -0.9998 -2.4557  0.4505
 3301TIP3   OH231461   4.156   1.150   1.203  0.1601  0.5649  0.5656
 3301TIP3    H131462   4.128   1.115   1.119 -1.7355  0.1926  1.3102
 3301TIP3    H231463   4.249   1.172   1.190  0.3252 -0.9120 -1.1273
 3302TIP3   OH231464   3.774   2.593   2.647 -0.4776  0.0791  0.2549
 3302TIP3    H131465   3.865   2.615   2.668 -1.2002  1.2993  2.4362
 3302TIP3    H231466   3.768   2.498   2.663  0.6746 -0.2616 -1.1507
 3303TIP3   OH231467   0.635   2.157   1.987 -0.0344  0.4878  0.1138
 3303TIP3    H131468   0.579   2.101   1.933 -0.1964  0.8104 -0.0528
 3303TIP3    H231469   0.651   2.105   2.066  1.5609 -0.7105 -0.9113
 3304TIP3   OH231470   0.276   3.961   8.071 -0.4483  0.2582 -0.0092
 3304TIP3    H131471   0.250   3.920   8.153  0.9893  2.0407  1.4258
 3304TIP3    H231472   0.355   4.010   8.093  0.2775  0.3861 -2.5997
 3305TIP3   OH231473   4.315   0.832   2.155  0.3815 -0.0809  0.0813
 3305TIP3    H131474   4.300   0.883   2.076 -0.4046 -0.1689  0.1665
 3305TIP3    H231475   4.326   0.742   2.124 -0.4167 -0.1917  0.1063
 3306TIP3   OH231476   3.422   3.165   0.252 -0.3405 -0.6338  0.7542
 3306TIP3    H131477   3.362   3.165   0.327  0.1934 -1.9884  1.2092
 3306TIP3    H231478   3.438   3.073   0.234  0.6768 -0.3069 -0.1223
 3307TIP3   OH231479   5.234   4.036   7.474  0.2338  0.3256  0.3215
 3307TIP3    H131480   5.241   3.981   7.396 -1.9128  0.5359 -0.0830
 3307TIP3    H231481   5.257   4.124   7.443  0.2726  0.2534  0.1424
 3308TIP3   OH231482   0.146   5.880   3.206 -0.1755  0.1456 -0.1924
 3308TIP3    H131483   0.171   5.898   3.296  2.3298  0.3469 -0.8749
 3308TIP3    H231484   0.084   5.950   3.184 -0.4054  0.4054  1.1798
 3309TIP3   OH231485   2.118   4.384   8.406 -0.2586  0.3450 -0.1720
 3309TIP3    H131486   2.042   4.341   8.445 -0.4708  0.0804 -0.8521
 3309TIP3    H231487   2.174   4.407   8.480 -1.2914  1.1209  0.4004
 3310TIP3   OH231488   3.304   6.183   2.349  0.0533  0.1955 -0.8034
 3310TIP3    H131489   3.399   6.189   2.340 -0.0923  1.6843 -1.6455
 3310TIP3    H231490   3.272   6.160   2.262 -0.4910  2.2301 -1.2063
 3311TIP3   OH231491   2.093   2.172   0.715  0.1143  0.4164  0.0389
 3311TIP3    H131492   2.071   2.079   0.727  0.1372  0.1815 -1.5205
 3311TIP3    H231493   2.165   2.187   0.776  0.6357 -0.8115 -0.2365
 3312TIP3   OH231494   2.346   3.468   1.395  0.0238  0.1951  0.3769
 3312TIP3    H131495   2.343   3.476   1.300 -2.1336  2.0723  0.5147
 3312TIP3    H231496   2.313   3.551   1.428  2.4057  0.3134  2.8660
 3313TIP3   OH231497   4.086   6.754   7.282 -0.1700 -0.3642  0.1703
 3313TIP3    H131498   4.070   6.800   7.364 -1.1860  1.5041 -1.0052
 3313TIP3    H231499   4.025   6.680   7.283  0.5104 -0.9454  1.4775
 3314TIP3   OH231500   4.588   3.300   6.808 -0.5853 -0.9948 -0.0753
 3314TIP3    H131501   4.628   3.313   6.894 -0.7445  0.5874 -0.2051
 3314TIP3    H231502   4.660   3.310   6.747 -0.8667  0.2367 -0.2276
 3315TIP3   OH231503   1.429   0.720   8.366  0.4790 -0.2572  0.2500
 3315TIP3    H131504   1.381   0.717   8.283 -1.2224  0.9354  1.1270
 3315TIP3    H231505   1.493   0.791   8.354 -0.3338  0.4932  0.2041
 3316TIP3   OH231506   4.801   4.753   0.502  0.1668  0.4083  0.5124
 3316TIP3    H131507   4.774   4.671   0.459 -0.6495  0.4117  1.0073
 3316TIP3    H231508   4.760   4.749   0.588 -1.4193  2.1793 -0.1031
 3317TIP3   OH231509   3.621   2.264   0.220  0.3283 -0.3146  0.1506
 3317TIP3    H131510   3.569   2.193   0.183 -0.6849  1.0534 -1.1218
 3317TIP3    H231511   3.676   2.294   0.148 -1.7855  2.4928 -0.4525
 3318TIP3   OH231512   5.314   0.081   2.252  0.0877 -0.4149  0.2106
 3318TIP3    H131513   5.219   0.080   2.245  0.1406  0.6320 -1.1361
 3318TIP3    H231514   5.332   0.064   2.345 -1.2783 -3.4660  0.0375
 3319TIP3   OH231515   5.254   4.760   1.840 -0.2594  0.3194  0.1961
 3319TIP3    H131516   5.220   4.714   1.916 -0.1096 -0.3101 -0.1151
 3319TIP3    H231517   5.250   4.696   1.769 -1.5240  1.2425 -0.6227
 3320TIP3   OH231518   0.470   6.579   0.254  0.3703  0.2804  0.3049
 3320TIP3    H131519   0.409   6.510   0.278 -0.2593 -0.3126 -2.5856
 3320TIP3    H231520   0.554   6.535   0.244  0.1970  0.1227 -0.4994
 3321TIP3   OH231521   0.603   2.253   8.044 -0.0981 -0.1720  0.5238
 3321TIP3    H131522   0.610   2.159   8.027 -1.0772 -0.3109  0.8010
 3321TIP3    H231523   0.646   2.265   8.129  1.8008 -0.0226 -0.4114
 3322TIP3   OH231524   1.414   5.341   0.998 -0.3595 -0.5642  0.4325
 3322TIP3    H131525   1.406   5.437   1.000 -0.6213 -0.5968  1.8727
 3322TIP3    H231526   1.453   5.319   1.082  1.2873 -1.6113 -0.5508
 3323TIP3   OH231527   2.354   1.639   0.393  0.0058 -0.2890  0.1587
 3323TIP3    H131528   2.330   1.548   0.382  2.8575 -1.3798  1.8672
 3323TIP3    H231529   2.411   1.658   0.318 -1.7516  0.6396 -1.0152
 3324TIP3   OH231530   5.825   3.389   2.508 -0.6803 -0.0136 -0.8023
 3324TIP3    H131531   5.800   3.342   2.588  1.4083  0.4009  0.1799
 3324TIP3    H231532   5.821   3.481   2.533  0.8160  0.0945 -0.8646
 3325TIP3   OH231533   4.976   0.051   1.149 -0.0321  0.6918 -0.9421
 3325TIP3    H131534   4.902   0.061   1.210 -0.2174  0.2355 -1.0882
 3325TIP3    H231535   4.962   0.120   1.084  1.0896  2.3113  0.4318
 3326TIP3   OH231536   1.352   2.879   1.787 -0.0378  0.0057 -0.4585
 3326TIP3    H131537   1.300   2.934   1.727  0.3668 -0.7279 -1.5204
 3326TIP3    H231538   1.432   2.860   1.737  0.4464 -0.3775  0.4481
 3327TIP3   OH231539   3.145   3.237   1.358 -0.3464  0.2220 -0.0023
 3327TIP3    H131540   3.103   3.168   1.409  0.1781 -0.2317 -0.1746
 3327TIP3    H231541   3.177   3.193   1.279  1.3592  0.3056  0.5925
 3328TIP3   OH231542   6.439   1.571   3.074 -0.1788  0.0699  0.2529
 3328TIP3    H131543   6.460   1.641   3.012  0.4790 -0.3381 -0.0090
 3328TIP3    H231544   6.346   1.581   3.092 -0.5357 -0.1881 -1.3114
 3329TIP3   OH231545   1.619   6.602   8.566 -0.3167 -0.0493  0.3276
 3329TIP3    H131546   1.685   6.584   8.499 -0.8265 -1.6344  0.2009
 3329TIP3    H231547   1.536   6.604   8.519 -0.5683 -0.1525  0.7543
 3330TIP3   OH231548   4.290   4.309   6.778  0.0035 -0.1220  0.5989
 3330TIP3    H131549   4.238   4.327   6.700  0.7722 -0.9423 -0.1253
 3330TIP3    H231550   4.328   4.394   6.802 -0.2534  0.1390  0.0945
 3331TIP3   OH231551   0.760   2.712   8.495 -0.3153 -0.5369  0.4323
 3331TIP3    H131552   0.769   2.703   8.400  0.1333 -0.5610  0.4733
 3331TIP3    H231553   0.849   2.700   8.529 -0.4060 -0.1279  0.8242
 3332TIP3   OH231554   0.035   5.669   1.866  0.2199  0.3408 -0.0605
 3332TIP3    H131555  -0.042   5.616   1.843  0.5479  0.4785 -1.5904
 3332TIP3    H231556   0.003   5.730   1.933 -0.8556  0.0257 -0.2659
 3333TIP3   OH231557   1.980   1.856   1.709  0.2536 -0.0478  0.1356
 3333TIP3    H131558   1.977   1.786   1.643 -2.2625 -0.0845  0.1754
 3333TIP3    H231559   2.061   1.841   1.757  1.1157 -1.2865 -1.6082
 3334TIP3   OH231560   0.489   6.467   8.313 -0.3968  0.2423 -0.2118
 3334TIP3    H131561   0.536   6.384   8.309 -1.6885 -0.4936 -0.5541
 3334TIP3    H231562   0.529   6.513   8.387  1.1123 -0.1741 -0.7255
 3335TIP3   OH231563   3.856   1.896   7.673  0.2797 -0.7812  0.7198
 3335TIP3    H131564   3.943   1.928   7.650 -0.5741 -0.4214 -2.4455
 3335TIP3    H231565   3.798   1.968   7.653 -0.9273 -1.6680  0.9212
 3336TIP3   OH231566   2.087   2.571   1.865 -0.0641 -0.2167  0.3626
 3336TIP3    H131567   2.053   2.496   1.914  1.6734 -1.8977 -0.8196
 3336TIP3    H231568   2.160   2.603   1.918  0.7567 -0.9732 -0.2814
 3337TIP3   OH231569   6.707   6.384   0.178 -0.0249 -0.4286  0.2921
 3337TIP3    H131570   6.690   6.411   0.268 -0.6232  1.2550 -0.2935
 3337TIP3    H231571   6.801   6.366   0.176  0.2903  1.0124  0.8950
 3338TIP3   OH231572   0.628   0.443   7.178 -0.4825  0.2820 -0.3385
 3338TIP3    H131573   0.552   0.496   7.154 -1.8122 -2.1991 -2.0185
 3338TIP3    H231574   0.668   0.418   7.095  0.8415 -0.3535  0.4464
 3339TIP3   OH231575   2.935   1.411   2.455  0.2792  0.6085  0.3338
 3339TIP3    H131576   3.015   1.433   2.408  1.1381  0.4844  1.6884
 3339TIP3    H231577   2.961   1.342   2.516 -0.7157  0.9966  1.2266
 3340TIP3   OH231578   6.219   0.478   0.748 -0.3004  0.7749 -0.3772
 3340TIP3    H131579   6.195   0.514   0.834  2.1835  1.8202 -0.0406
 3340TIP3    H231580   6.308   0.509   0.733  0.5944 -2.1799 -1.8506
 3341TIP3   OH231581   4.175   0.854   0.674  0.5657  0.3428 -0.0119
 3341TIP3    H131582   4.143   0.798   0.745  0.7128  1.0502  0.6236
 3341TIP3    H231583   4.117   0.834   0.600  0.8802 -0.9402  0.0765
 3342TIP3   OH231584   3.783   4.932   0.871  0.0010  0.0678  0.5399
 3342TIP3    H131585   3.715   4.925   0.804 -1.0468 -0.0725  1.6043
 3342TIP3    H231586   3.771   5.019   0.908  0.4294  0.0534  0.7202
 3343TIP3   OH231587   4.724   5.195   1.792 -0.2027  0.7046 -0.0559
 3343TIP3    H131588   4.735   5.275   1.742 -2.0897 -0.3914 -2.4308
 3343TIP3    H231589   4.643   5.207   1.841 -0.3669  0.3430 -0.2344
 3344TIP3   OH231590   3.449   3.346   1.924  0.6039  0.2273 -0.1607
 3344TIP3    H131591   3.364   3.305   1.908  0.4293 -0.1072  1.4828
 3344TIP3    H231592   3.456   3.414   1.857 -1.3549  0.8587  0.2316
 3345TIP3   OH231593   3.445   3.529   1.729 -0.0606  0.0144  0.8135
 3345TIP3    H131594   3.374   3.544   1.792 -0.0993 -1.7234  1.2179
 3345TIP3    H231595   3.415   3.572   1.649 -0.2711  1.7482  1.7803
 3346TIP3   OH231596   3.914   6.659   0.215  0.1152  0.4532  0.1755
 3346TIP3    H131597   3.903   6.587   0.277  0.2619  2.5011  2.7961
 3346TIP3    H231598   3.827   6.700   0.210  0.2091  0.5682 -0.6837
 3347TIP3   OH231599   2.247   6.488   8.603  0.4289  0.0517 -0.1469
 3347TIP3    H131600   2.248   6.400   8.565  1.2535  0.0790 -0.2067
 3347TIP3    H231601   2.298   6.480   8.683  1.1892  0.6465 -0.5585
 3348TIP3   OH231602   0.119   3.806   2.860  0.2975  0.6006  0.2285
 3348TIP3    H131603   0.061   3.768   2.794  1.8387  1.2636 -1.6019
 3348TIP3    H231604   0.088   3.895   2.871  0.3841  0.6706 -0.0678
 3349TIP3   OH231605   4.971   1.268   7.724  0.3505  0.4057 -0.1684
 3349TIP3    H131606   5.053   1.223   7.743  0.8080  1.5317  0.6483
 3349TIP3    H231607   4.962   1.263   7.629  1.2913  0.1472 -0.2492
 3350TIP3   OH231608   3.105   1.385   2.661 -0.5017  0.2998  0.1327
 3350TIP3    H131609   3.125   1.465   2.613  0.7630 -0.5247 -0.7759
 3350TIP3    H231610   3.083   1.415   2.750  5.4650  1.5115  1.6829
 3351TIP3   OH231611   2.271   6.628   0.594  0.0211 -0.0957 -0.1595
 3351TIP3    H131612   2.325   6.634   0.515 -0.0357  0.5109 -0.1558
 3351TIP3    H231613   2.277   6.715   0.634 -0.7242 -0.1064 -0.0067
 3352TIP3   OH231614   5.067   4.591   1.989 -0.9286 -0.2316  0.3381
 3352TIP3    H131615   5.118   4.580   2.070 -0.1844 -0.4606 -0.1467
 3352TIP3    H231616   4.997   4.526   1.995 -0.9672 -0.1453  0.8671
 3353TIP3   OH231617   0.842   4.653   0.436  0.0260 -0.5130 -0.2319
 3353TIP3    H131618   0.854   4.578   0.377  2.2492 -1.1109  0.8692
 3353TIP3    H231619   0.835   4.729   0.377 -0.6241 -1.3905 -1.3123
 3354TIP3   OH231620   5.566   3.821   2.258 -0.0955 -0.3365 -0.1282
 3354TIP3    H131621   5.639   3.869   2.296 -1.0535 -0.7184  2.3939
 3354TIP3    H231622   5.594   3.729   2.259 -0.8396 -0.5796  1.5866
 3355TIP3   OH231623   2.831   5.029   7.151 -0.3768  0.1618  0.3111
 3355TIP3    H131624   2.750   4.978   7.158  0.4387 -0.9430  2.6972
 3355TIP3    H231625   2.828   5.066   7.063 -4.4811  1.8758  0.9025
 3356TIP3   OH231626   0.517   1.322   6.748 -0.2727 -0.1754  0.0403
 3356TIP3    H131627   0.424   1.343   6.751 -0.0830  0.9526 -1.0616
 3356TIP3    H231628   0.521   1.234   6.713 -0.8872  0.5165 -1.8819
 3357TIP3   OH231629   1.222   0.518   2.140  0.2419 -0.1078 -0.0507
 3357TIP3    H131630   1.277   0.577   2.089 -1.1428  1.9652  0.7277
 3357TIP3    H231631   1.275   0.438   2.149  1.6453  0.4749 -2.2727
 3358TIP3   OH231632   2.052   5.971   0.173 -0.2613  0.0678 -0.4841
 3358TIP3    H131633   2.096   5.900   0.126 -0.9646 -0.6730 -0.0305
 3358TIP3    H231634   2.040   6.040   0.107  3.3656  1.1847 -0.2324
 3359TIP3   OH231635   3.316   2.587   2.068  0.3139 -0.2409  0.1066
 3359TIP3    H131636   3.327   2.629   2.153  2.7336  0.2885 -0.4085
 3359TIP3    H231637   3.221   2.578   2.059 -0.1006  1.3171  2.0513
 3360TIP3   OH231638   4.902   3.453   7.361  0.2647  0.3195 -0.0869
 3360TIP3    H131639   4.962   3.378   7.365 -0.3162 -0.2658 -1.5926
 3360TIP3    H231640   4.815   3.413   7.355 -0.2051  1.1527  0.8745
 3361TIP3   OH231641   0.912   0.583   0.042 -0.3545 -0.2747  0.2585
 3361TIP3    H131642   0.920   0.599  -0.051 -1.2943 -0.0640  0.2086
 3361TIP3    H231643   0.916   0.669   0.083  0.5652 -0.3969  0.4741
 3362TIP3   OH231644   0.054   6.648   8.759  0.3931 -0.8382 -0.2953
 3362TIP3    H131645   0.010   6.669   8.677 -1.4019 -1.1803  0.5446
 3362TIP3    H231646   0.080   6.556   8.750 -1.3344 -1.3935  0.1576
 3363TIP3   OH231647   1.970   4.106   7.494 -0.2580  0.1277 -0.0182
 3363TIP3    H131648   1.946   4.030   7.548 -0.8119  0.3474  0.0442
 3363TIP3    H231649   1.911   4.102   7.419 -0.6256  0.7810  0.2357
 3364TIP3   OH231650   6.062   5.534   7.107  0.4481 -0.4509  0.4582
 3364TIP3    H131651   5.983   5.496   7.068 -1.1641  2.2711  0.8528
 3364TIP3    H231652   6.107   5.575   7.033  0.1796  0.1461  0.6264
 3365TIP3   OH231653   2.745   1.235   7.196  0.2650 -0.0622 -0.1210
 3365TIP3    H131654   2.660   1.231   7.240 -0.5334 -2.2534 -1.6808
 3365TIP3    H231655   2.763   1.329   7.187 -1.0830  0.4497  1.8494
 3366TIP3   OH231656   4.733   2.293   0.200  0.1294 -0.1319 -0.0687
 3366TIP3    H131657   4.810   2.236   0.202  0.2060 -0.0454 -0.4910
 3366TIP3    H231658   4.735   2.333   0.113  0.2591  0.7703  0.3323
 3367TIP3   OH231659   1.341   4.730   8.137 -0.1022 -0.4307  0.3244
 3367TIP3    H131660   1.408   4.797   8.149 -0.2708 -0.1927 -0.0620
 3367TIP3    H231661   1.258   4.775   8.153 -0.4121  0.1171 -2.4533
 3368TIP3   OH231662   5.050   5.320   7.641 -0.0497  0.3279  0.5521
 3368TIP3    H131663   5.133   5.311   7.594  0.1133  0.9208  0.7189
 3368TIP3    H231664   5.034   5.233   7.678  1.5256  0.6853  2.2217
 3369TIP3   OH231665   3.297   4.984   7.300  0.7490  0.4585 -0.3476
 3369TIP3    H131666   3.275   5.078   7.301  0.3933  0.3862 -0.7761
 3369TIP3    H231667   3.228   4.945   7.247 -0.6978 -0.4599  2.0506
 3370TIP3   OH231668   0.085   5.530   2.120  0.5024  0.3661 -0.2620
 3370TIP3    H131669   0.006   5.556   2.168  0.8112  0.8943 -0.0429
 3370TIP3    H231670   0.075   5.569   2.034 -0.5916 -1.4948 -1.0574
 3371TIP3   OH231671   5.250   4.367   7.461  0.1476 -0.1555 -0.5608
 3371TIP3    H131672   5.305   4.439   7.432  3.1664 -2.4731 -1.1026
 3371TIP3    H231673   5.163   4.405   7.470  1.9395  4.1141  1.6562
 3372TIP3   OH231674   0.796   4.271   8.727 -0.2566  0.2355  0.1024
 3372TIP3    H131675   0.777   4.282   8.633 -0.7018  1.9981  0.3578
 3372TIP3    H231676   0.716   4.297   8.771  0.1349 -0.0436  0.9988
 3373TIP3   OH231677   4.017   5.476   0.993 -0.5956  0.1045 -0.3529
 3373TIP3    H131678   3.948   5.467   0.927  0.7687 -0.3360 -1.7796
 3373TIP3    H231679   4.097   5.490   0.942  0.3003  1.1166  1.2778
 3374TIP3   OH231680   1.768   0.259   0.078 -0.0254  0.4249 -0.5428
 3374TIP3    H131681   1.741   0.187   0.022  0.5146  0.3096 -0.6614
 3374TIP3    H231682   1.793   0.329   0.016 -0.3125  0.6302 -0.4313
 3375TIP3   OH231683   1.430   4.230   0.717 -0.5201 -0.1894 -0.2229
 3375TIP3    H131684   1.368   4.270   0.657 -0.9229  0.9843  0.9274
 3375TIP3    H231685   1.384   4.228   0.801  0.9346  0.5880  0.6308
 3376TIP3   OH231686   5.258   6.298   8.438  0.2727 -0.3535  0.0142
 3376TIP3    H131687   5.163   6.295   8.445  0.1135  1.8531 -0.5543
 3376TIP3    H231688   5.289   6.245   8.511 -1.3886 -0.5895  0.5933
 3377TIP3   OH231689   3.180   0.116   1.840 -0.1218  0.0137  0.7087
 3377TIP3    H131690   3.268   0.144   1.866 -0.4356  2.2223 -0.3702
 3377TIP3    H231691   3.129   0.121   1.921  0.8059 -1.9210  1.4949
 3378TIP3   OH231692   6.736   1.538   8.536  0.1307 -0.2625 -0.9467
 3378TIP3    H131693   6.756   1.461   8.589  0.9368  0.4740 -0.1580
 3378TIP3    H231694   6.797   1.605   8.566  1.4717 -0.1373 -3.5807
 3379TIP3   OH231695   1.662   5.813   1.248  0.1118 -0.6465 -0.1046
 3379TIP3    H131696   1.672   5.881   1.315  0.5042 -0.1309 -0.6757
 3379TIP3    H231697   1.598   5.850   1.186 -0.0549 -1.0136 -0.1543
 3380TIP3   OH231698   4.500   4.596   8.782 -0.3306  0.4693  0.0892
 3380TIP3    H131699   4.474   4.636   8.865  1.9474  1.8373  0.2226
 3380TIP3    H231700   4.475   4.661   8.715 -0.9561 -0.0385 -0.1805
 3381TIP3   OH231701   4.214   2.822   0.355 -0.5041 -0.4047 -0.3868
 3381TIP3    H131702   4.132   2.799   0.399  0.4318 -0.6424  1.3392
 3381TIP3    H231703   4.282   2.801   0.419  0.9483 -0.6138 -1.9364
 3382TIP3   OH231704   6.228   0.445   1.334 -0.2088 -0.2984 -0.0357
 3382TIP3    H131705   6.320   0.455   1.309 -0.2612 -0.6380 -0.3742
 3382TIP3    H231706   6.231   0.398   1.418  0.0143  1.9122  1.2636
 3383TIP3   OH231707   1.371   0.284   8.707 -0.5014 -0.3310  0.1400
 3383TIP3    H131708   1.313   0.210   8.721 -1.3244  0.2340 -0.2160
 3383TIP3    H231709   1.335   0.354   8.760 -1.3335  0.6266 -1.5860
 3384TIP3   OH231710   0.053   2.303   6.657  0.2935 -0.4231 -1.0025
 3384TIP3    H131711   0.080   2.281   6.746  0.1842  1.1150 -0.5672
 3384TIP3    H231712   0.000   2.382   6.666 -0.4050 -0.7045 -2.3564
 3385TIP3   OH231713   2.325   1.651   7.831  0.0619  0.1212  0.0155
 3385TIP3    H131714   2.347   1.703   7.908  2.8561 -0.0054 -0.5691
 3385TIP3    H231715   2.384   1.683   7.762 -0.0170 -1.9722 -1.1267
 3386TIP3   OH231716   5.373   2.357   0.391  0.7098  0.3739 -0.5069
 3386TIP3    H131717   5.365   2.452   0.401 -3.0806  0.0907  0.8974
 3386TIP3    H231718   5.286   2.329   0.360  2.0506 -2.5627 -2.0012
 3387TIP3   OH231719   1.071   3.479   1.983 -0.1218  0.2972  0.2900
 3387TIP3    H131720   1.139   3.415   2.004  0.4466  0.9843  0.5881
 3387TIP3    H231721   0.988   3.433   1.998  0.2249 -1.1089 -1.7286
 3388TIP3   OH231722   4.432   4.614   7.599 -0.3576  0.3742  0.0247
 3388TIP3    H131723   4.427   4.524   7.631 -0.6906 -0.0813 -1.2092
 3388TIP3    H231724   4.437   4.605   7.503  0.1726  1.6543 -0.0920
 3389TIP3   OH231725   0.164   5.655   7.550  0.3370 -0.0348 -0.2826
 3389TIP3    H131726   0.092   5.623   7.496  0.9558 -1.9177 -0.0663
 3389TIP3    H231727   0.232   5.678   7.487 -0.0736  0.7810 -0.4373
 3390TIP3   OH231728   4.728   5.742   0.516  0.0898  0.3882  0.5232
 3390TIP3    H131729   4.741   5.650   0.539  1.7564  0.3766 -0.3087
 3390TIP3    H231730   4.674   5.738   0.436  0.5335  0.1037  0.2317
 3391TIP3   OH231731   5.189   3.751   8.385  0.4519 -0.2472  0.0113
 3391TIP3    H131732   5.101   3.755   8.423  0.9826  1.1050  1.1618
 3391TIP3    H231733   5.174   3.738   8.291 -0.9932  0.6259  0.0996
 3392TIP3   OH231734   1.953   6.169   2.698  0.6001  0.3336 -0.0333
 3392TIP3    H131735   2.009   6.247   2.702  1.5214 -0.3188  0.1564
 3392TIP3    H231736   1.881   6.188   2.758  1.0791  0.8272  0.3953
 3393TIP3   OH231737   0.572   2.099   8.473  0.6065 -0.0678  0.3871
 3393TIP3    H131738   0.523   2.179   8.493  1.8753 -0.0706  4.2418
 3393TIP3    H231739   0.538   2.034   8.534  0.5512 -2.1731 -1.7480
 3394TIP3   OH231740   3.302   5.003   8.427  0.2877 -0.3337  0.1850
 3394TIP3    H131741   3.323   4.994   8.334 -0.0020 -0.7974  0.1634
 3394TIP3    H231742   3.374   4.958   8.472 -0.5436 -1.7839  0.1157
 3395TIP3   OH231743   5.104   1.474   8.571  0.4166 -0.2448 -0.0070
 3395TIP3    H131744   5.047   1.527   8.515 -1.3901 -2.6542 -0.6207
 3395TIP3    H231745   5.064   1.479   8.658  0.1201 -0.7632 -0.1127
 3396TIP3   OH231746   2.699   2.456   7.767 -0.6854  0.4934 -0.3676
 3396TIP3    H131747   2.729   2.402   7.694 -3.0015 -1.0422 -0.2937
 3396TIP3    H231748   2.759   2.434   7.838 -0.1787 -0.2362 -0.9917
 3397TIP3   OH231749   5.866   0.768   1.584 -0.2409  0.2945  0.9208
 3397TIP3    H131750   5.799   0.804   1.642  0.0701 -0.1800  1.5975
 3397TIP3    H231751   5.869   0.675   1.607  1.3506  0.4906  1.6389
 3398TIP3   OH231752   3.419   1.880   1.390  0.0064  0.0136  0.3301
 3398TIP3    H131753   3.364   1.835   1.327  1.2755 -1.6951  0.3915
 3398TIP3    H231754   3.500   1.899   1.343  1.0052 -1.3706  1.4333
 3399TIP3   OH231755   4.557   1.077   0.782  0.4357 -0.0442  0.5169
 3399TIP3    H131756   4.589   1.041   0.865  0.2888 -1.2210  0.0800
 3399TIP3    H231757   4.478   1.027   0.763 -0.3802  1.2370  0.4023
 3400TIP3   OH231758   5.418   1.361   1.733 -0.0938  0.3360  0.6551
 3400TIP3    H131759   5.428   1.450   1.769  0.5297  0.7321 -0.4617
 3400TIP3    H231760   5.485   1.355   1.666 -0.4897 -0.8009  0.3468
 3401TIP3   OH231761   5.268   0.143   8.297  0.4964 -0.0479  0.0226
 3401TIP3    H131762   5.291   0.097   8.377 -0.6956  0.2221  0.5425
 3401TIP3    H231763   5.172   0.146   8.297  0.5068  1.3794 -0.5828
 3402TIP3   OH231764   0.215   3.295   1.598 -0.4968  0.0096  0.1442
 3402TIP3    H131765   0.229   3.231   1.668  0.5289  1.6562  1.5322
 3402TIP3    H231766   0.179   3.372   1.642  2.6261  2.0864 -0.5829
 3403TIP3   OH231767   0.461   5.515   1.007  0.0761  0.1898 -0.1650
 3403TIP3    H131768   0.457   5.530   1.102  0.9428 -0.3624 -0.0297
 3403TIP3    H231769   0.371   5.500   0.982 -0.0861 -0.3780  0.7012
 3404TIP3   OH231770   3.068   1.146   8.336 -0.3070  0.1376 -0.2268
 3404TIP3    H131771   3.113   1.102   8.264 -2.4931 -2.3448 -0.2383
 3404TIP3    H231772   3.027   1.222   8.296 -0.5359 -0.5591 -1.3673
 3405TIP3   OH231773   5.739   3.606   0.872  0.1437 -0.2049  0.1580
 3405TIP3    H131774   5.768   3.662   0.800 -1.7271  1.7843  0.8344
 3405TIP3    H231775   5.661   3.563   0.839  1.0584 -1.7904 -0.0302
 3406TIP3   OH231776   5.582   4.056   2.828 -0.4715 -0.1462  0.6284
 3406TIP3    H131777   5.671   4.025   2.847 -0.2690 -1.0642 -1.6047
 3406TIP3    H231778   5.549   4.086   2.913  1.2600 -1.5943  1.8892
 3407TIP3   OH231779   1.599   1.878   6.649 -0.2730 -0.3956  0.0747
 3407TIP3    H131780   1.523   1.929   6.677 -0.3893 -1.2530  1.4396
 3407TIP3    H231781   1.561   1.798   6.611 -0.0662 -0.0934 -0.7941
 3408TIP3   OH231782   4.132   5.575   1.675 -0.1534 -0.4257 -0.1113
 3408TIP3    H131783   4.204   5.515   1.693  1.8587  1.8423 -0.1488
 3408TIP3    H231784   4.136   5.590   1.581  1.7292  2.4359  0.3236
 3409TIP3   OH231785   0.437   3.875   2.205 -0.1286  0.4502  0.3274
 3409TIP3    H131786   0.514   3.826   2.236 -0.6047  0.2608  1.2776
 3409TIP3    H231787   0.364   3.814   2.219 -0.6876  1.2962  1.1906
 3410TIP3   OH231788   4.864   5.298   7.899 -0.1821 -0.6716 -0.0467
 3410TIP3    H131789   4.794   5.247   7.860  0.6119 -1.7878 -0.0599
 3410TIP3    H231790   4.915   5.234   7.949  1.4545 -0.0968 -0.9170
 3411TIP3   OH231791   2.298   3.401   2.608  0.1390 -0.9119 -0.1102
 3411TIP3    H131792   2.392   3.414   2.597  0.2779  0.1986  1.9478
 3411TIP3    H231793   2.289   3.364   2.696 -1.4792  1.7671  0.9758
 3412TIP3   OH231794   5.323   1.059   8.836  0.2835 -0.0102  0.1718
 3412TIP3    H131795   5.315   0.979   8.887  0.1974  0.1110  0.3490
 3412TIP3    H231796   5.300   1.129   8.897  1.6473  0.2708  0.3929
 3413TIP3   OH231797   2.717   0.798   1.727  0.2969  0.1434  0.5494
 3413TIP3    H131798   2.767   0.878   1.711  1.6275 -0.1229  2.9478
 3413TIP3    H231799   2.629   0.830   1.752  0.9893  0.9656  2.1229
 3414TIP3   OH231800   2.017   6.144   8.822  0.2186  0.2100  0.0303
 3414TIP3    H131801   1.973   6.078   8.769  1.6456 -0.4607 -0.3641
 3414TIP3    H231802   2.008   6.226   8.772 -1.3400  0.3066  0.4037
 3415TIP3   OH231803   4.712   3.559   7.073  0.1915 -0.0792  0.7595
 3415TIP3    H131804   4.714   3.463   7.071 -0.9696 -0.1661 -2.5225
 3415TIP3    H231805   4.772   3.586   7.003 -1.5000  1.4438 -0.1831
 3416TIP3   OH231806   6.786   3.566   8.756  0.2401  0.5248  0.2765
 3416TIP3    H131807   6.847   3.557   8.683 -0.3342 -1.8538  0.0103
 3416TIP3    H231808   6.841   3.558   8.834  0.6680  1.7152  0.1222
 3417TIP3   OH231809   3.334   4.355   0.713  0.0366  0.1993  0.3343
 3417TIP3    H131810   3.323   4.407   0.792  0.9998 -1.0037  1.3057
 3417TIP3    H231811   3.421   4.316   0.722 -0.1583 -0.5847 -0.9382
 3418TIP3   OH231812   6.372   1.498   0.452  0.1163 -0.4126  0.5807
 3418TIP3    H131813   6.438   1.551   0.408  0.4726 -2.1570 -1.1292
 3418TIP3    H231814   6.294   1.506   0.397  0.1411 -1.5254  0.3566
 3419TIP3   OH231815   5.777   3.112   1.025  0.1185 -0.3901 -0.8727
 3419TIP3    H131816   5.854   3.133   1.078  2.1735  0.3279 -3.8824
 3419TIP3    H231817   5.798   3.147   0.939 -3.8945  0.3423 -1.7076
 3420TIP3   OH231818   3.355   3.683   6.868 -0.3026  0.1162  0.2011
 3420TIP3    H131819   3.372   3.770   6.831  0.1591 -0.1828 -0.3129
 3420TIP3    H231820   3.364   3.694   6.962 -1.3920  0.8784  0.2348
 3421TIP3   OH231821   3.634   5.536   1.758  0.2297  0.2267  0.2659
 3421TIP3    H131822   3.706   5.556   1.697 -0.5385  0.8868 -0.4507
 3421TIP3    H231823   3.568   5.603   1.739 -0.3447 -0.0286  1.3070
 3422TIP3   OH231824   5.491   6.051   1.333  0.4910 -0.7793  0.7484
 3422TIP3    H131825   5.495   5.956   1.347  3.0702 -0.7627  0.4600
 3422TIP3    H231826   5.422   6.081   1.393 -1.8090 -3.0192 -0.5848
 3423TIP3   OH231827   6.057   6.037   1.240  0.0267 -0.0991 -0.6307
 3423TIP3    H131828   6.134   6.072   1.196 -0.4763  1.4381 -0.3353
 3423TIP3    H231829   6.083   6.027   1.331  0.2993 -0.9086 -0.7936
 3424TIP3   OH231830   3.392   5.238   1.538  0.2370  0.2509  0.4640
 3424TIP3    H131831   3.387   5.142   1.546 -0.9089  0.3026  0.5780
 3424TIP3    H231832   3.480   5.255   1.504 -0.0664 -0.9396 -1.0234
 3425TIP3   OH231833   4.215   5.107   1.119  0.2792  0.2341 -0.2767
 3425TIP3    H131834   4.295   5.093   1.068  0.7694  0.2784  0.4686
 3425TIP3    H231835   4.218   5.039   1.187 -0.3639  0.1808 -0.2953
 3426TIP3   OH231836   2.057   1.432   0.709  0.3142  0.2424 -0.3569
 3426TIP3    H131837   2.045   1.380   0.788  0.9468  0.1123 -0.3408
 3426TIP3    H231838   1.977   1.484   0.702  0.1200  0.0262  0.1924
 3427TIP3   OH231839   6.501   3.649   0.050  0.6690  0.4599  0.1116
 3427TIP3    H131840   6.422   3.626   0.098  0.8234 -1.2393 -0.3867
 3427TIP3    H231841   6.573   3.632   0.111  0.8000 -0.6358 -0.3400
 3428TIP3   OH231842   0.999   4.708   7.524  0.0441  0.2000  0.1259
 3428TIP3    H131843   0.964   4.766   7.455 -0.0737  0.1993  0.1845
 3428TIP3    H231844   0.954   4.736   7.604 -0.3067 -0.2307  0.0847
 3429TIP3   OH231845   0.578   2.412   2.480  0.2302 -0.2284  0.0139
 3429TIP3    H131846   0.564   2.505   2.499 -1.0244 -0.1986 -0.8697
 3429TIP3    H231847   0.510   2.367   2.530  0.6958 -0.6558  0.2680
 3430TIP3   OH231848   2.257   1.999   8.536  0.1921  0.0045 -0.6439
 3430TIP3    H131849   2.217   2.011   8.622  1.5001  0.4836 -0.0847
 3430TIP3    H231850   2.214   2.064   8.480 -1.9828 -1.5241 -0.8594
 3431TIP3   OH231851   3.152   5.680   2.901 -0.4329 -0.0212  0.1328
 3431TIP3    H131852   3.059   5.662   2.914 -0.5136 -0.3275 -0.7759
 3431TIP3    H231853   3.155   5.745   2.831  0.0388 -0.1026  0.0692
 3432TIP3   OH231854   4.260   0.622   7.280 -0.4399 -0.0085  0.2290
 3432TIP3    H131855   4.218   0.644   7.197 -0.6084 -0.5793  0.1537
 3432TIP3    H231856   4.305   0.702   7.308  0.3249 -0.0505 -0.8347
 3433TIP3   OH231857   0.889   2.877   7.809  0.0547 -0.3309 -0.1044
 3433TIP3    H131858   0.896   2.798   7.754 -1.8996 -0.6247  0.0070
 3433TIP3    H231859   0.932   2.945   7.757 -1.1025 -0.7664 -1.7222
 3434TIP3   OH231860   2.095   4.543   0.532 -0.2296  0.2760 -0.3359
 3434TIP3    H131861   2.189   4.546   0.515 -0.3000 -0.6370 -1.0025
 3434TIP3    H231862   2.087   4.542   0.627  0.4613 -0.2152 -0.2802
 3435TIP3   OH231863   4.338   3.801   1.621  0.2197 -0.6170 -0.1621
 3435TIP3    H131864   4.310   3.729   1.565 -1.3023 -0.9289  0.9331
 3435TIP3    H231865   4.302   3.879   1.579  0.3362 -0.6909 -0.3988
 3436TIP3   OH231866   6.410   6.322   7.788  0.3313  0.2755  0.2429
 3436TIP3    H131867   6.336   6.262   7.797 -1.0336  1.6224 -1.2892
 3436TIP3    H231868   6.487   6.265   7.782 -0.6123 -1.1759  1.3502
 3437TIP3   OH231869   3.128   3.201   8.386 -0.0806  0.1109  0.0227
 3437TIP3    H131870   3.182   3.275   8.414  0.9795 -0.7236  0.2651
 3437TIP3    H231871   3.186   3.149   8.330 -1.8959  1.3307 -3.2717
 3438TIP3   OH231872   4.226   0.272   8.335  0.6235  0.4407 -0.0044
 3438TIP3    H131873   4.168   0.347   8.347  0.1500 -0.1788  2.1106
 3438TIP3    H231874   4.250   0.247   8.425  1.3067 -1.5106 -0.6893
 3439TIP3   OH231875   3.470   3.744   7.410  0.1524  0.2987 -0.2554
 3439TIP3    H131876   3.484   3.715   7.500 -0.4973 -2.0344 -0.8301
 3439TIP3    H231877   3.429   3.830   7.418 -2.0052 -0.8150  1.7963
 3440TIP3   OH231878   2.691   4.737   6.515 -0.1983  0.2219 -0.3145
 3440TIP3    H131879   2.744   4.698   6.584  1.8537  1.2322 -1.2013
 3440TIP3    H231880   2.607   4.757   6.556  0.1445 -1.3081  1.2141
 3441TIP3   OH231881   4.423   2.832   0.165 -0.1975  0.2492 -0.1630
 3441TIP3    H131882   4.513   2.806   0.184 -0.0030  0.5802 -0.6288
 3441TIP3    H231883   4.392   2.874   0.246 -0.5185 -1.3860  0.6225
 3442TIP3   OH231884   3.526   3.126   0.860  0.0086 -0.0784 -0.2036
 3442TIP3    H131885   3.456   3.060   0.864  1.9514 -2.3362 -0.7024
 3442TIP3    H231886   3.523   3.158   0.770  0.4108 -1.1819 -0.6355
 3443TIP3   OH231887   5.843   1.254   0.668 -0.6584 -0.3680  0.1726
 3443TIP3    H131888   5.770   1.204   0.630 -0.9720  0.7478 -0.7435
 3443TIP3    H231889   5.859   1.324   0.606  0.5408  0.0086  0.8726
 3444TIP3   OH231890   4.219   3.158   1.489 -0.5402  0.1780  0.2662
 3444TIP3    H131891   4.165   3.173   1.412 -2.1894  1.0762  1.5276
 3444TIP3    H231892   4.197   3.069   1.517  0.5117 -0.3830 -0.5823
 3445TIP3   OH231893   4.377   0.887   0.107 -0.0146 -0.7213 -0.0702
 3445TIP3    H131894   4.406   0.795   0.111  0.5206 -0.4933  2.3361
 3445TIP3    H231895   4.450   0.936   0.144 -0.0309  0.7913 -1.9132
 3446TIP3   OH231896   1.757   2.110   8.266  0.0627 -0.1684  0.0130
 3446TIP3    H131897   1.699   2.076   8.334 -1.0896  1.7931  0.0869
 3446TIP3    H231898   1.698   2.126   8.191  0.5105  1.6624  0.0128
 3447TIP3   OH231899   2.840   4.898   0.099  0.4301  0.2654  0.3447
 3447TIP3    H131900   2.786   4.820   0.115  1.7032 -0.7915 -0.2436
 3447TIP3    H231901   2.777   4.968   0.082 -0.7539 -0.7392  0.4404
 3448TIP3   OH231902   3.008   2.314   1.281 -0.7388  0.0275 -0.5407
 3448TIP3    H131903   2.913   2.321   1.281 -0.7582 -0.2329 -0.9599
 3448TIP3    H231904   3.029   2.266   1.202 -0.3036 -0.6107 -0.0453
 3449TIP3   OH231905   6.169   2.413   0.058 -0.0033  0.0663 -0.8940
 3449TIP3    H131906   6.222   2.492   0.042  0.4486 -0.4627 -2.1243
 3449TIP3    H231907   6.079   2.445   0.061  0.3699  1.0856  1.8871
 3450TIP3   OH231908   3.752   0.164   0.701 -0.2351  0.0389  1.1218
 3450TIP3    H131909   3.828   0.218   0.681  1.2790 -2.4543 -0.3786
 3450TIP3    H231910   3.678   0.226   0.700  1.2811  2.0007 -1.0119
 3451TIP3   OH231911   6.630   2.544   8.035 -0.3718 -0.2051  0.0592
 3451TIP3    H131912   6.579   2.469   8.065  1.3172 -0.9308  1.2730
 3451TIP3    H231913   6.584   2.574   7.957 -1.4985 -2.0629 -0.0607
 3452TIP3   OH231914   2.498   1.293   0.496 -0.7410  0.0463 -0.5404
 3452TIP3    H131915   2.539   1.347   0.564 -0.6367  0.6384 -1.0690
 3452TIP3    H231916   2.416   1.337   0.476 -2.2795 -1.7681  1.3601
 3453TIP3   OH231917   6.484   3.747   7.541  0.0520 -0.4222  0.0534
 3453TIP3    H131918   6.439   3.757   7.457 -1.5699  1.3088  1.0575
 3453TIP3    H231919   6.570   3.787   7.527 -0.4703  0.5123 -0.6076
 3454TIP3   OH231920   1.979   4.815   0.753 -0.1705  0.0840 -0.4619
 3454TIP3    H131921   1.905   4.841   0.807 -1.1322 -0.4923 -1.4701
 3454TIP3    H231922   1.999   4.726   0.781  0.1727  0.2476 -0.1729
 3455TIP3   OH231923   3.075   0.168   0.269  0.2156  0.2666  0.4667
 3455TIP3    H131924   3.086   0.237   0.204  0.5912  0.0463  0.2930
 3455TIP3    H231925   3.163   0.131   0.280 -0.1738 -0.9486 -0.2906
 3456TIP3   OH231926   3.609   1.973   0.650  0.0242 -0.2268 -0.3099
 3456TIP3    H131927   3.595   2.030   0.726 -1.0891 -2.0182  0.9169
 3456TIP3    H231928   3.695   1.933   0.666 -1.5578 -3.1408  1.9161
 3457TIP3   OH231929   5.899   6.265   8.359 -0.5934  0.1270 -0.4829
 3457TIP3    H131930   5.916   6.359   8.349 -0.4372  0.1885  0.2470
 3457TIP3    H231931   5.804   6.257   8.353 -0.8088  0.6402  1.5482
 3458TIP3   OH231932   5.822   4.570   0.465 -0.4360  0.6398 -0.0115
 3458TIP3    H131933   5.733   4.591   0.492 -0.1354  1.2182  0.5606
 3458TIP3    H231934   5.851   4.646   0.416 -0.8459 -0.2548 -1.7231
 3459TIP3   OH231935   3.910   6.297   1.593  0.3245  0.1480  0.2099
 3459TIP3    H131936   3.838   6.344   1.551  0.1861  0.7316  1.0875
 3459TIP3    H231937   3.989   6.341   1.561  0.3009 -0.3993 -0.6392
 3460TIP3   OH231938   2.736   3.834   0.150  0.0831  0.1480 -0.1406
 3460TIP3    H131939   2.679   3.905   0.177  0.9448  1.3748 -1.3904
 3460TIP3    H231940   2.681   3.777   0.096 -0.2242  0.7730 -0.4959
 3461TIP3   OH231941   3.942   6.022   8.591 -0.0221  0.5038 -0.2778
 3461TIP3    H131942   4.019   6.061   8.551 -1.2450  1.1016 -2.1829
 3461TIP3    H231943   3.871   6.039   8.529 -1.6435 -0.2780  1.2574
 3462TIP3   OH231944   5.352   3.081   0.672 -0.1546  0.4770 -0.1869
 3462TIP3    H131945   5.274   3.118   0.631  0.2020  0.9141 -0.4842
 3462TIP3    H231946   5.421   3.145   0.654  0.2945  0.0500 -0.0111
 3463TIP3   OH231947   3.491   1.468   8.568  0.1292  0.0189 -0.0970
 3463TIP3    H131948   3.454   1.557   8.564 -0.0085 -0.0797 -1.1755
 3463TIP3    H231949   3.462   1.434   8.653  0.4338  1.1124  0.4642
 3464TIP3   OH231950   0.267   1.943   1.081 -0.3410 -0.0860  0.0058
 3464TIP3    H131951   0.208   1.955   1.006  0.7891  1.6972 -0.6576
 3464TIP3    H231952   0.234   1.865   1.125 -1.2202 -1.0248 -2.1868
 3465TIP3   OH231953   1.614   1.837   2.148 -0.3002  0.1712 -0.0246
 3465TIP3    H131954   1.535   1.785   2.164  0.6477 -1.7046 -1.1037
 3465TIP3    H231955   1.653   1.797   2.070  1.3440  1.5006  0.0786
 3466TIP3   OH231956   3.253   3.528   0.841 -0.2512 -0.3751  0.2762
 3466TIP3    H131957   3.170   3.567   0.869 -1.3804 -1.9334 -0.7889
 3466TIP3    H231958   3.256   3.443   0.886  1.2900  0.0833  1.1162
 3467TIP3   OH231959   6.228   2.502   1.813 -0.3465 -0.0635 -0.8320
 3467TIP3    H131960   6.264   2.484   1.900 -3.4550 -1.0304  0.3936
 3467TIP3    H231961   6.225   2.597   1.808  1.2782  0.0411 -0.5877
 3468TIP3   OH231962   6.383   1.498   7.019 -0.6498  0.0685  0.1922
 3468TIP3    H131963   6.461   1.553   7.012 -0.3304 -0.4401 -0.2418
 3468TIP3    H231964   6.336   1.513   6.937 -0.3314 -0.6542 -0.1257
 3469TIP3   OH231965   0.835   2.452   2.678  0.8052 -0.0039  1.0064
 3469TIP3    H131966   0.918   2.494   2.702  0.3775  1.3586  0.1775
 3469TIP3    H231967   0.770   2.495   2.733  0.4950 -0.3568  0.9181
 3470TIP3   OH231968   3.923   3.918   0.110 -0.5952 -0.6654  0.3789
 3470TIP3    H131969   3.913   4.008   0.078 -2.3979 -0.3575  1.6370
 3470TIP3    H231970   3.854   3.869   0.065 -0.9776 -0.9479  1.2441
 3471TIP3   OH231971   1.061   2.217   1.735 -0.1197 -0.0375 -0.0300
 3471TIP3    H131972   1.069   2.254   1.647 -1.1877 -0.7099 -0.4290
 3471TIP3    H231973   0.975   2.247   1.766  0.0412 -0.2037  0.5856
 3472TIP3   OH231974   0.895   3.689   0.549 -0.3873 -0.2534  1.0171
 3472TIP3    H131975   0.840   3.706   0.473  0.6626  0.5038  0.3968
 3472TIP3    H231976   0.974   3.649   0.514  0.8828  1.7196  1.4325
 3473TIP3   OH231977   1.580   6.171   8.795  0.4014  0.1728 -0.0229
 3473TIP3    H131978   1.659   6.124   8.822  0.6861  1.7354  2.1083
 3473TIP3    H231979   1.612   6.253   8.758 -0.1880  0.3801 -0.0799
 3474TIP3   OH231980   1.983   1.236   0.011  0.0931  0.1662  0.3511
 3474TIP3    H131981   1.904   1.205  -0.033  1.0557  0.1957 -1.5253
 3474TIP3    H231982   2.000   1.170   0.079 -0.8196 -0.5265 -0.0703
 3475TIP3   OH231983   0.677   4.119   2.444 -0.2409  0.1431 -0.2438
 3475TIP3    H131984   0.585   4.137   2.423 -0.0546  0.3776 -0.8894
 3475TIP3    H231985   0.714   4.204   2.465  0.0547  0.1957 -0.9322
 3476TIP3   OH231986   1.647   1.218   1.309 -0.5516  0.3894  0.0417
 3476TIP3    H131987   1.674   1.176   1.391  2.4156  1.5424 -0.2170
 3476TIP3    H231988   1.554   1.196   1.300 -0.6669 -0.8263  3.0422
 3477TIP3   OH231989   3.696   5.032   1.520 -0.2084  0.0988 -0.4158
 3477TIP3    H131990   3.778   5.045   1.566  0.1701  2.7426 -1.6323
 3477TIP3    H231991   3.641   4.983   1.581  1.6460 -0.1674  1.1220
 3478TIP3   OH231992   1.667   6.389   0.350  0.1325  0.0186 -0.1094
 3478TIP3    H131993   1.617   6.345   0.419  1.2979 -0.5193  0.4263
 3478TIP3    H231994   1.735   6.326   0.326  0.1035  0.4393 -1.3341
 3479TIP3   OH231995   2.175   2.430   2.172  0.2833  0.1386  0.1027
 3479TIP3    H131996   2.106   2.497   2.171  1.7997  1.8352  1.5724
 3479TIP3    H231997   2.245   2.469   2.224  0.6931 -3.1830  2.3511
 3480TIP3   OH231998   1.482   1.821   8.659  0.2518 -0.2330 -0.7201
 3480TIP3    H131999   1.558   1.769   8.632 -1.4850 -3.4927  0.1814
 3480TIP3    H232000   1.510   1.864   8.740  1.6530  0.0321 -1.3165
 3481TIP3   OH232001   2.357   1.895   7.392 -0.0218  0.0842 -0.6181
 3481TIP3    H132002   2.451   1.881   7.383  0.0892 -1.0742  1.7503
 3481TIP3    H232003   2.346   1.990   7.383  0.8613  0.0128 -4.1395
 3482TIP3   OH232004   1.702   6.246   7.470 -0.2393 -0.0763  0.0082
 3482TIP3    H132005   1.748   6.326   7.442  0.2250 -0.7803 -1.3134
 3482TIP3    H232006   1.706   6.188   7.394 -4.2330  0.1855 -0.6222
 3483TIP3   OH232007   4.566   3.413   0.398  0.0303 -0.1814 -0.0428
 3483TIP3    H132008   4.473   3.425   0.379  0.3250 -0.9349 -2.2694
 3483TIP3    H232009   4.595   3.345   0.336  2.3127  0.8579 -0.2334
 3484TIP3   OH232010   5.791   0.035   1.657  0.2512  0.0622  0.2492
 3484TIP3    H132011   5.769   0.100   1.723 -3.0107 -0.8115  0.2103
 3484TIP3    H232012   5.714  -0.023   1.653  1.8900 -2.2090 -1.5941
 3485TIP3   OH232013   6.507   5.932   7.880  0.5797 -0.3614  0.5573
 3485TIP3    H132014   6.556   5.857   7.913 -0.5907 -1.2413  0.3572
 3485TIP3    H232015   6.416   5.913   7.901  0.2273  0.8977  0.2799
 3486TIP3   OH232016   4.163   4.888   7.971 -0.4292 -0.3057  0.2848
 3486TIP3    H132017   4.237   4.846   8.017 -0.5885 -0.0452  0.7883
 3486TIP3    H232018   4.159   4.976   8.008 -0.2667  0.0769 -0.5818
 3487TIP3   OH232019   4.212   2.617   8.280 -0.0129 -0.7237 -0.1408
 3487TIP3    H132020   4.167   2.542   8.319 -0.0333 -0.8614 -0.4276
 3487TIP3    H232021   4.270   2.578   8.214  0.3038 -0.5255  0.0133
 3488TIP3   OH232022   2.822   1.405   7.970  0.2345  0.0875 -0.0326
 3488TIP3    H132023   2.862   1.458   7.901  1.1629 -0.4688  0.0736
 3488TIP3    H232024   2.729   1.405   7.948  0.5753 -0.5692 -1.6240
 3489TIP3   OH232025   3.575   0.934   7.903  0.2635 -0.6475  0.3125
 3489TIP3    H132026   3.585   0.989   7.825  0.8197  2.0742  2.1729
 3489TIP3    H232027   3.630   0.857   7.885  2.5086  1.1273 -0.9487
 3490TIP3   OH232028   5.143   0.541   1.201  0.3376  0.7268  0.0879
 3490TIP3    H132029   5.114   0.562   1.112 -1.1812 -1.0227  0.1126
 3490TIP3    H232030   5.138   0.446   1.206  2.2660  0.6337  1.4718
 3491TIP3   OH232031   0.885   5.475   7.887  0.6260  0.1504 -0.4218
 3491TIP3    H132032   0.924   5.445   7.969 -0.4187  2.5780  1.0721
 3491TIP3    H232033   0.942   5.546   7.858  0.3863  0.0183 -1.2385
 3492TIP3   OH232034   5.094   2.634   0.920  0.6044 -0.0472  0.7179
 3492TIP3    H132035   5.087   2.645   0.825  3.7253  0.6031  0.4688
 3492TIP3    H232036   5.003   2.639   0.951 -0.4420  0.5166 -2.1256
 3493TIP3   OH232037   0.342   2.160   7.212 -0.0876 -0.2571  0.2011
 3493TIP3    H132038   0.284   2.228   7.178 -0.7963 -2.2783 -3.0400
 3493TIP3    H232039   0.418   2.162   7.154  0.9208 -0.7725  1.4540
 3494TIP3   OH232040   3.547   0.454   7.116  0.2981  0.3154  0.1729
 3494TIP3    H132041   3.636   0.479   7.140  0.4758 -0.2976  0.1716
 3494TIP3    H232042   3.496   0.536   7.122  1.1786  1.0211 -1.3961
 3495TIP3   OH232043   5.678   1.021   7.138 -0.2843  0.5199  0.0006
 3495TIP3    H132044   5.708   1.046   7.226 -0.6668  1.7433 -0.1949
 3495TIP3    H232045   5.658   1.104   7.095 -1.4199 -0.1271 -0.7781
 3496TIP3   OH232046   1.139   0.152   2.746 -0.2346  0.2225 -0.0531
 3496TIP3    H132047   1.119   0.061   2.768  0.2343 -0.0162 -0.5906
 3496TIP3    H232048   1.227   0.166   2.781 -0.7869  0.8746  1.1665
 3497TIP3   OH232049   3.525   2.132   8.518  0.2434  0.3035 -0.3165
 3497TIP3    H132050   3.519   2.062   8.453 -1.1832  0.7313 -0.6904
 3497TIP3    H232051   3.605   2.180   8.495 -0.4757  0.7290 -2.0970
 3498TIP3   OH232052   5.685   3.227   8.415  0.5683 -0.4061 -0.6628
 3498TIP3    H132053   5.779   3.235   8.433  0.2196  0.2199  1.1222
 3498TIP3    H232054   5.666   3.298   8.354  1.0598  0.1771 -0.1471
 3499TIP3   OH232055   4.382   4.060   8.297 -0.0445 -0.4388 -0.4142
 3499TIP3    H132056   4.369   4.042   8.204  1.9210  2.1938 -1.3233
 3499TIP3    H232057   4.307   4.115   8.321  0.8977  1.3162 -1.2979
 3500TIP3   OH232058   0.417   4.499   1.896  0.1594  0.6110 -0.0816
 3500TIP3    H132059   0.417   4.556   1.819 -0.2325  1.6353  0.6525
 3500TIP3    H232060   0.374   4.419   1.866  0.3740  0.8329 -1.0283
 3501TIP3   OH232061   3.877   4.442   7.914  0.0106 -0.5685  0.0022
 3501TIP3    H132062   3.800   4.479   7.870 -1.2741 -1.9237  1.0140
 3501TIP3    H232063   3.951   4.479   7.867 -1.2179  1.5412 -0.4394
 3502TIP3   OH232064   4.561   5.201   1.118 -0.5097 -0.1214  0.1998
 3502TIP3    H132065   4.574   5.108   1.099  1.3921 -0.5892  3.1209
 3502TIP3    H232066   4.567   5.244   1.033  0.3845 -2.5103 -1.0382
 3503TIP3   OH232067   0.383   2.389   7.930  0.1018 -0.1396  0.4140
 3503TIP3    H132068   0.452   2.330   7.961  0.4575 -1.0171 -1.8826
 3503TIP3    H232069   0.303   2.337   7.938  0.0307  0.0439  0.9097
 3504TIP3   OH232070   1.743   5.613   7.658 -0.5103 -0.2128 -0.0591
 3504TIP3    H132071   1.789   5.680   7.708  1.0096  0.6622 -2.4697
 3504TIP3    H232072   1.747   5.643   7.567 -2.3575 -2.1430 -0.8722
 3505TIP3   OH232073   3.312   4.080   7.181  0.0014  0.2444 -0.9069
 3505TIP3    H132074   3.236   4.051   7.131  0.0590 -2.4891  0.3857
 3505TIP3    H232075   3.385   4.074   7.119 -0.2629 -1.0021 -1.1334
 3506TIP3   OH232076   4.367   6.588   7.868 -0.3173  0.1950 -0.1791
 3506TIP3    H132077   4.276   6.603   7.842  0.0358 -0.3775 -1.8889
 3506TIP3    H232078   4.410   6.560   7.787  1.6505  1.5470  0.3420
 3507TIP3   OH232079   4.615   4.930   1.087 -0.3440 -0.2112  0.2237
 3507TIP3    H132080   4.662   4.944   1.005 -2.2292  1.9041 -0.6157
 3507TIP3    H232081   4.580   4.841   1.081 -0.7720  0.0538 -1.4626
 3508TIP3   OH232082   6.345   3.394   8.506  0.5930 -0.0360  0.6688
 3508TIP3    H132083   6.422   3.433   8.548 -0.6346  1.0380  1.9935
 3508TIP3    H232084   6.312   3.462   8.448 -0.0731 -0.0375  1.0400
 3509TIP3   OH232085   5.258   5.944   8.338  0.0507  0.4769  0.1045
 3509TIP3    H132086   5.183   5.942   8.398 -0.2712 -0.5982 -0.2921
 3509TIP3    H232087   5.231   6.001   8.267 -0.3086  0.2762  0.0781
 3510TIP3   OH232088   2.107   4.409   0.006 -0.4282  0.0955 -0.7749
 3510TIP3    H132089   2.043   4.432   0.073  1.1642  0.9740  0.5211
 3510TIP3    H232090   2.174   4.360   0.053  0.2750 -0.1035 -1.9355
 3511TIP3   OH232091   1.169   2.365   7.788  0.3667  0.5061 -0.0093
 3511TIP3    H132092   1.109   2.299   7.824  1.1567 -0.7880 -1.0092
 3511TIP3    H232093   1.256   2.328   7.800  1.0905  2.5755  1.8609
 3512TIP3   OH232094   4.265   0.304   0.202  0.1925 -0.0855 -0.7126
 3512TIP3    H132095   4.261   0.301   0.297  1.1271 -1.2908 -0.6953
 3512TIP3    H232096   4.264   0.213   0.174  2.1737  0.1431 -1.7240
 3513TIP3   OH232097   1.183   6.642   1.788  0.2304  0.4596 -0.8386
 3513TIP3    H132098   1.276   6.650   1.766  0.3183 -0.9915 -1.1137
 3513TIP3    H232099   1.181   6.600   1.874 -0.1796  0.9241 -0.6111
 3514TIP3   OH232100   1.762   6.457   7.296 -0.3866  0.6171 -0.1225
 3514TIP3    H132101   1.808   6.516   7.237  1.1316 -1.0997 -0.7413
 3514TIP3    H232102   1.695   6.416   7.242 -0.2027  0.3914 -0.1790
 3515TIP3   OH232103   6.395   5.382   8.372 -0.1910 -0.2682  0.1241
 3515TIP3    H132104   6.477   5.407   8.331  0.1031 -1.8203 -0.3096
 3515TIP3    H232105   6.329   5.396   8.305  0.0430 -1.0823 -0.2954
 3516TIP3   OH232106   1.809   1.454   0.996  0.3977  0.4067  0.0180
 3516TIP3    H132107   1.824   1.364   1.026  0.8739  0.6046  0.3780
 3516TIP3    H232108   1.854   1.509   1.060  1.2655  0.8444 -0.9361
 3517TIP3   OH232109   3.193   2.372   7.333  0.1183  0.0555 -0.2541
 3517TIP3    H132110   3.225   2.453   7.293 -0.2050  0.2204 -0.1794
 3517TIP3    H232111   3.160   2.320   7.260 -0.4689  0.3552 -0.2032
 3518TIP3   OH232112   1.376   6.669   0.901  0.1622 -0.3064  0.0130
 3518TIP3    H132113   1.291   6.673   0.858  0.3853  0.9250 -0.3265
 3518TIP3    H232114   1.421   6.748   0.874  2.4429 -2.1234 -1.8959
 3519TIP3   OH232115   0.354   2.944   1.838  0.3247 -0.0389  0.1754
 3519TIP3    H132116   0.342   3.026   1.886 -0.0499  0.7684 -1.2274
 3519TIP3    H232117   0.266   2.913   1.819  0.4601 -1.0024  1.0419
 3520TIP3   OH232118   0.184   1.653   7.811  0.6976 -0.4283 -0.2719
 3520TIP3    H132119   0.139   1.715   7.755 -1.7736  1.7200  3.6166
 3520TIP3    H232120   0.233   1.707   7.873  2.6821 -2.5863  0.2216
 3521TIP3   OH232121   4.848   0.668   6.956 -0.2858 -0.3636 -0.0161
 3521TIP3    H132122   4.931   0.698   6.918 -1.4593  0.4773 -2.0118
 3521TIP3    H232123   4.826   0.590   6.906 -0.8595 -0.4244  0.3233
 3522TIP3   OH232124   0.655   6.327   7.437  0.4366 -0.5592 -0.4799
 3522TIP3    H132125   0.622   6.282   7.359  0.9317 -0.1129 -0.9570
 3522TIP3    H232126   0.578   6.343   7.491  0.3167 -2.6392  0.0748
 3523TIP3   OH232127   6.143   0.932   1.096 -0.0093 -0.2027  0.1926
 3523TIP3    H132128   6.183   0.997   1.040 -0.7736 -0.3205 -0.5093
 3523TIP3    H232129   6.152   0.967   1.185  1.6138 -0.2315  0.0671
 3524TIP3   OH232130   3.075   4.956   0.239  0.0709 -0.0724  0.8792
 3524TIP3    H132131   3.123   5.036   0.220 -0.6614  0.9554  2.9852
 3524TIP3    H232132   3.003   4.955   0.177  1.2243 -0.2107 -0.5055
 3525TIP3   OH232133   1.634   3.523   7.104  0.5981  0.0281 -0.1365
 3525TIP3    H132134   1.638   3.428   7.098  0.9548  0.0596 -0.4976
 3525TIP3    H232135   1.649   3.553   7.014 -0.5813  0.3993 -0.2290
 3526TIP3   OH232136   4.763   6.126   1.550 -0.8413 -0.3034  0.5940
 3526TIP3    H132137   4.714   6.137   1.631 -1.6541  0.0212  0.0720
 3526TIP3    H232138   4.700   6.088   1.489 -0.0180 -1.3210  0.3370
 3527TIP3   OH232139   6.401   1.958   1.507 -0.4678 -0.0692  0.1952
 3527TIP3    H132140   6.470   1.897   1.531  0.6555  0.9740 -0.2885
 3527TIP3    H232141   6.356   1.978   1.590 -1.6544 -2.4156  0.2046
 3528TIP3   OH232142   3.853   3.550   1.176  0.0505  0.2739  0.1491
 3528TIP3    H132143   3.833   3.615   1.244  0.8449  1.1465 -0.4332
 3528TIP3    H232144   3.775   3.547   1.122  0.1427  1.0555 -0.0487
 3529TIP3   OH232145   4.627   2.715   8.093  0.4648 -0.0505  0.1981
 3529TIP3    H132146   4.622   2.810   8.084  2.7904  0.3794  2.3299
 3529TIP3    H232147   4.678   2.686   8.018 -0.0372  0.4022 -0.3264
 3530TIP3   OH232148   1.416   2.461   8.353  0.4997  0.3122  0.1746
 3530TIP3    H132149   1.368   2.378   8.346  0.8649  0.1483 -0.4835
 3530TIP3    H232150   1.508   2.437   8.341  0.4754  0.9997 -1.8216
 3531TIP3   OH232151   4.254   5.746   7.879  0.3787  0.0710 -0.3256
 3531TIP3    H132152   4.272   5.816   7.816 -0.8161 -0.4470 -1.2772
 3531TIP3    H232153   4.172   5.771   7.920  0.9877  0.2386  0.8192
 3532TIP3   OH232154   0.780   4.335   2.840 -0.0377 -0.4479 -0.0620
 3532TIP3    H132155   0.868   4.362   2.864  0.5030 -2.3418  0.2415
 3532TIP3    H232156   0.742   4.412   2.796  2.1020  0.0896 -1.1069
 3533TIP3   OH232157   4.090   3.305   8.529 -0.1732 -0.6943  0.0457
 3533TIP3    H132158   4.035   3.312   8.607  1.2312 -0.8590  1.1070
 3533TIP3    H232159   4.111   3.212   8.523 -0.8943 -0.8055 -1.0114
 3534TIP3   OH232160   3.122   0.327   0.046 -0.1591 -0.1522 -0.2452
 3534TIP3    H132161   3.212   0.337   0.014  0.1802  1.9286  1.1682
 3534TIP3    H232162   3.067   0.337  -0.032  0.7963 -0.8741 -1.0314
 3535TIP3   OH232163   3.748   2.618   0.611  0.1359 -0.0941 -0.4585
 3535TIP3    H132164   3.820   2.678   0.631  1.0010 -1.4523  0.7076
 3535TIP3    H232165   3.779   2.567   0.536  0.5946 -0.9242  0.2648
 3536TIP3   OH232166   2.132   2.956   0.415  0.2978  0.0422 -0.0800
 3536TIP3    H132167   2.117   3.045   0.447 -2.4055 -0.1516 -0.5939
 3536TIP3    H232168   2.092   2.900   0.481  0.1941 -0.6985 -0.7609
 3537TIP3   OH232169   0.875   4.610   8.480 -0.2270 -0.1917 -0.2796
 3537TIP3    H132170   0.966   4.633   8.501 -0.5546 -0.6216  1.7755
 3537TIP3    H232171   0.882   4.526   8.434  0.5284  0.9366 -2.4113
 3538TIP3   OH232172   3.929   2.095   8.042  0.0833  0.2283  0.0912
 3538TIP3    H132173   3.997   2.123   8.104 -0.5418 -2.2184  2.0580
 3538TIP3    H232174   3.941   2.000   8.035 -1.3557  0.1294 -1.7892
 3539TIP3   OH232175   0.131   4.401   1.370 -0.1644 -0.1418 -0.2263
 3539TIP3    H132176   0.214   4.446   1.356  0.1704 -1.3080 -2.3936
 3539TIP3    H232177   0.153   4.327   1.427  0.8933 -1.8516 -2.6674
 3540TIP3   OH232178   2.783   0.907   8.131  0.5891  0.0558  0.3598
 3540TIP3    H132179   2.812   0.906   8.222 -0.8666 -0.6849  0.8609
 3540TIP3    H232180   2.701   0.957   8.133 -0.0849 -0.9834 -0.3055
 3541TIP3   OH232181   1.345   5.473   2.075  0.0322 -0.0118  0.1653
 3541TIP3    H132182   1.426   5.422   2.077 -0.3482 -0.6219  0.1172
 3541TIP3    H232183   1.359   5.541   2.142 -0.2628 -1.4404  1.7456
 3542TIP3   OH232184   0.911   5.814   2.789  0.0952  0.0058  0.1966
 3542TIP3    H132185   0.892   5.731   2.833 -0.3423 -0.6571 -1.1645
 3542TIP3    H232186   0.827   5.859   2.786 -0.2281 -0.6446 -1.2862
 3543TIP3   OH232187   6.064   5.657   8.073  0.3920 -0.5187 -0.0916
 3543TIP3    H132188   5.984   5.608   8.053  0.8818 -1.0665 -0.7414
 3543TIP3    H232189   6.040   5.714   8.147 -0.3962 -1.1808  0.1689
 3544TIP3   OH232190   6.643   5.003   1.884  0.2461  0.2512  0.2386
 3544TIP3    H132191   6.670   4.923   1.928 -0.4914  0.9782  2.1638
 3544TIP3    H232192   6.602   4.974   1.803  1.3847 -1.1926  0.1382
 3545TIP3   OH232193   3.464   5.373   8.770 -0.4154  0.6325 -0.4090
 3545TIP3    H132194   3.482   5.398   8.860 -0.2361 -1.6363  0.2614
 3545TIP3    H232195   3.485   5.450   8.718  0.7338  1.5734  1.3734
 3546TIP3   OH232196   5.017   2.960   1.919  0.0945 -0.8602  0.1832
 3546TIP3    H132197   5.081   2.900   1.958  1.0511  0.2234  0.3264
 3546TIP3    H232198   4.961   2.985   1.992 -0.2928 -1.5486  0.1280
 3547TIP3   OH232199   5.152   4.386   8.244  0.2470 -0.1155 -0.3066
 3547TIP3    H132200   5.215   4.449   8.208  0.9451 -0.6719 -0.0797
 3547TIP3    H232201   5.077   4.440   8.269  0.9836  0.6938  0.2466
 3548TIP3   OH232202   2.981   1.992   1.394  0.0188 -0.2017 -0.4698
 3548TIP3    H132203   3.022   2.062   1.445 -1.9409 -0.4495  1.5800
 3548TIP3    H232204   2.887   2.003   1.409 -0.4084 -2.7431 -0.8193
 3549TIP3   OH232205   2.570   1.126   7.808 -0.4523  0.5483  0.7488
 3549TIP3    H132206   2.610   1.209   7.783 -2.6569  1.4270 -0.1174
 3549TIP3    H232207   2.560   1.079   7.725 -1.1871  0.3647  0.9335
 3550TIP3   OH232208   2.936   0.607   7.460  0.0685  0.2468  0.0639
 3550TIP3    H132209   2.852   0.648   7.441  0.4348  0.7543 -0.5035
 3550TIP3    H232210   2.972   0.584   7.374  1.6376  2.3250  0.0786
 3551TIP3   OH232211   4.027   4.765   2.069  0.2101 -0.0646  0.0716
 3551TIP3    H132212   4.026   4.696   2.136  1.9736 -0.1463  0.0510
 3551TIP3    H232213   3.992   4.842   2.113  0.7793 -0.2750  0.9117
 3552TIP3   OH232214   2.917   6.415   8.009  0.1397 -0.0379 -0.8518
 3552TIP3    H132215   2.908   6.509   8.022  1.3465  0.2044 -1.5807
 3552TIP3    H232216   2.832   6.388   7.975 -0.5466  0.5976  0.2899
 3553TIP3   OH232217   4.800   3.085   2.489 -0.0072  0.2592 -0.2776
 3553TIP3    H132218   4.893   3.096   2.508 -0.1993  0.6373  0.5005
 3553TIP3    H232219   4.777   3.000   2.528 -0.2960  0.8160  0.7909
 3554TIP3   OH232220   3.826   3.773   2.420 -0.4486  0.1183  0.3532
 3554TIP3    H132221   3.769   3.696   2.416 -0.3393  0.0285  0.4910
 3554TIP3    H232222   3.890   3.752   2.489  1.4045 -0.9333 -1.5525
 3555TIP3   OH232223   5.559   5.739   7.437 -0.3351  0.0938  0.5930
 3555TIP3    H132224   5.606   5.666   7.397 -0.2276  0.5357 -0.1104
 3555TIP3    H232225   5.615   5.767   7.510  0.4504  0.5182 -0.1405
 3556TIP3   OH232226   4.082   5.804   0.613 -0.1502  0.3947 -0.1728
 3556TIP3    H132227   4.039   5.719   0.620  1.8553 -0.7528 -1.1119
 3556TIP3    H232228   4.044   5.856   0.684 -0.8727 -1.5082  0.8975
 3557TIP3   OH232229   0.725   4.967   0.342 -0.3623 -0.1731 -0.8051
 3557TIP3    H132230   0.738   4.882   0.300 -1.8737  0.4839 -2.7506
 3557TIP3    H232231   0.770   5.029   0.285 -0.7193  0.5313 -0.3389
 3558TIP3   OH232232   1.996   6.704   0.230 -0.3085 -0.0683 -0.1412
 3558TIP3    H132233   1.968   6.629   0.177 -1.7912 -0.1659  0.7037
 3558TIP3    H232234   2.006   6.776   0.168 -0.6377 -0.5176 -0.7251
 3559TIP3   OH232235   1.130   4.689   6.928  0.6270  0.6225  0.0482
 3559TIP3    H132236   1.163   4.685   6.838  0.1386 -0.4218 -0.0981
 3559TIP3    H232237   1.195   4.642   6.980  0.3098  0.1744  0.0469
 3560TIP3   OH232238   5.930   1.089   0.363  0.1628  0.0496  0.8546
 3560TIP3    H132239   5.874   1.103   0.439 -1.3165 -0.7795 -0.0319
 3560TIP3    H232240   5.954   0.996   0.367  2.1114  0.5432  1.6014
 3561TIP3   OH232241   4.594   2.612   7.694 -0.8272  0.0169 -0.3875
 3561TIP3    H132242   4.530   2.667   7.740 -0.7153 -1.1286  1.2432
 3561TIP3    H232243   4.545   2.573   7.622 -1.0783  1.6884 -1.1648
 3562TIP3   OH232244   3.696   1.162   2.008  0.1600  0.1247  0.2718
 3562TIP3    H132245   3.659   1.238   1.965  1.6988  0.4066 -0.6364
 3562TIP3    H232246   3.681   1.176   2.101 -2.9113 -0.3182 -0.0725
 3563TIP3   OH232247   2.734   1.441   8.825  0.1719  0.0580  0.0462
 3563TIP3    H132248   2.741   1.475   8.914  2.6899  0.4414 -0.2069
 3563TIP3    H232249   2.645   1.408   8.818 -0.3315  0.7348  2.4384
 3564TIP3   OH232250   3.141   0.207   2.164  0.4506  0.1988  0.0146
 3564TIP3    H132251   3.228   0.167   2.162  0.1375 -0.7835  2.4923
 3564TIP3    H232252   3.157   0.299   2.182  0.9853  0.1248 -0.0561
 3565TIP3   OH232253   2.924   3.779   1.588  0.0314  0.2863 -0.1096
 3565TIP3    H132254   2.911   3.688   1.613  2.3750 -0.0564 -0.0035
 3565TIP3    H232255   2.929   3.778   1.493 -1.4723  0.5769 -0.2319
 3566TIP3   OH232256   2.462   3.965   1.018  0.0508  0.1302  0.3982
 3566TIP3    H132257   2.466   4.022   0.941  0.5353 -0.9515 -0.4167
 3566TIP3    H232258   2.372   3.973   1.049 -0.8746 -1.1136 -1.6715
 3567TIP3   OH232259   3.909   2.693   1.477 -0.3309 -0.2677 -0.0436
 3567TIP3    H132260   3.924   2.653   1.563  1.1788  0.3617  0.0171
 3567TIP3    H232261   3.827   2.741   1.487 -0.7046 -1.0342  0.7282
 3568TIP3   OH232262   5.305   2.386   8.083 -0.5229 -0.1438 -0.3350
 3568TIP3    H132263   5.343   2.325   8.147  0.1840 -1.0046 -1.5448
 3568TIP3    H232264   5.251   2.444   8.136 -1.0980 -1.7082  0.9023
 3569TIP3   OH232265   0.759   3.256   0.669 -0.0222 -0.2389 -0.3439
 3569TIP3    H132266   0.820   3.206   0.614  1.5958 -1.1964  2.1374
 3569TIP3    H232267   0.793   3.346   0.667  0.8468 -0.5475  0.1435
 3570TIP3   OH232268   6.046   2.664   0.667  0.1257 -0.1373  0.7028
 3570TIP3    H132269   6.072   2.588   0.719  2.9046 -0.3329 -0.7969
 3570TIP3    H232270   6.066   2.740   0.723  1.8669 -0.3924  0.4849
 3571TIP3   OH232271   3.919   0.951   7.841  0.5662 -0.0182 -0.2238
 3571TIP3    H132272   4.003   0.962   7.796  0.4699 -0.6123 -0.5618
 3571TIP3    H232273   3.875   0.880   7.793 -0.1398  0.3029 -0.0684
 3572TIP3   OH232274   4.240   6.426   2.379 -0.5214  0.1900  0.4622
 3572TIP3    H132275   4.214   6.359   2.442 -0.3154  0.1441  0.4994
 3572TIP3    H232276   4.230   6.509   2.427 -2.2241  0.3190 -0.0568
 3573TIP3   OH232277   5.495   3.367   1.927  0.1055 -0.7009  0.0599
 3573TIP3    H132278   5.540   3.439   1.883  3.0216 -1.8211  0.9793
 3573TIP3    H232279   5.437   3.410   1.991  2.6075  0.9189  1.3971
 3574TIP3   OH232280   1.164   4.545   0.162  0.5843  0.9355  0.6244
 3574TIP3    H132281   1.169   4.534   0.257 -0.4045 -2.5383  0.3930
 3574TIP3    H232282   1.097   4.483   0.133  3.4489 -0.9928 -2.7020
 3575TIP3   OH232283   1.128   3.826   6.854 -0.3823  0.3061 -0.2912
 3575TIP3    H132284   1.120   3.786   6.941 -0.9888 -0.3835 -0.6559
 3575TIP3    H232285   1.080   3.909   6.861 -0.8383  0.0270 -0.1088
 3576TIP3   OH232286   1.007   1.254   2.627 -0.0519 -0.2975 -0.3777
 3576TIP3    H132287   0.955   1.312   2.571  1.2012  1.1742 -0.1048
 3576TIP3    H232288   0.952   1.237   2.703 -0.7137 -0.0351 -0.7945
 3577TIP3   OH232289   6.576   4.159   8.651  1.2170  0.4413 -0.1115
 3577TIP3    H132290   6.529   4.076   8.639  1.1400  0.6549 -1.4595
 3577TIP3    H232291   6.560   4.182   8.742 -0.7543  0.1620 -0.3295
 3578TIP3   OH232292   6.679   0.830   8.241  0.1147 -0.2875  0.1148
 3578TIP3    H132293   6.624   0.908   8.252 -0.0564 -0.5718  1.3512
 3578TIP3    H232294   6.617   0.759   8.224  0.1228 -0.5226  1.0421
 3579TIP3   OH232295   0.514   6.130   6.828  0.1265 -0.0039  0.4575
 3579TIP3    H132296   0.519   6.075   6.906  0.1045 -1.0255 -0.2441
 3579TIP3    H232297   0.489   6.216   6.861  1.1123 -0.1660  1.6762
 3580TIP3   OH232298   0.436   6.063   8.052  0.2547 -0.1238 -0.8703
 3580TIP3    H132299   0.460   6.155   8.055 -2.1181  0.5340  0.9641
 3580TIP3    H232300   0.502   6.019   8.106  0.9176  0.6090 -1.0695
 3581TIP3   OH232301   6.115   1.381   7.299 -0.2529 -0.4106  0.1360
 3581TIP3    H132302   6.205   1.399   7.328  0.0221 -1.6215  0.0785
 3581TIP3    H232303   6.088   1.461   7.255  0.3562  0.4268  1.2188
 3582TIP3   OH232304   3.280   5.488   1.518  0.4071  0.7606  0.3094
 3582TIP3    H132305   3.308   5.397   1.510 -0.7203  0.3103  1.0937
 3582TIP3    H232306   3.357   5.534   1.551  0.7257 -0.1057  0.8281
 3583TIP3   OH232307   3.678   5.744   7.140 -0.0577  0.8790 -0.7232
 3583TIP3    H132308   3.606   5.692   7.175  0.0885  1.3033  0.2329
 3583TIP3    H232309   3.751   5.683   7.133 -0.1244  0.7637 -0.4125
 3584TIP3   OH232310   1.791   2.773   1.146  0.3048 -0.4070  0.4919
 3584TIP3    H132311   1.765   2.805   1.232  2.1040  0.8032  0.6274
 3584TIP3    H232312   1.872   2.820   1.126 -0.6152  0.1582 -2.3343
 3585TIP3   OH232313   3.387   1.826   2.655  0.0806  0.4515 -0.1117
 3585TIP3    H132314   3.410   1.901   2.710 -1.7631  0.7862  0.2624
 3585TIP3    H232315   3.458   1.821   2.590  1.2544  1.2663  1.0692
 3586TIP3   OH232316   2.797   5.796   8.501 -0.3229 -0.5254  0.6407
 3586TIP3    H132317   2.857   5.864   8.470  0.8232 -0.8639  2.0293
 3586TIP3    H232318   2.734   5.844   8.556  0.1623 -0.4993  1.1823
 3587TIP3   OH232319   1.376   3.713   1.011 -0.1459  0.0292  0.0570
 3587TIP3    H132320   1.427   3.787   0.979 -0.5089  0.1150 -0.3234
 3587TIP3    H232321   1.291   3.721   0.968 -0.4009 -0.2531  0.4951
 3588TIP3   OH232322   5.712   0.804   0.564  0.2970 -0.1220  0.0441
 3588TIP3    H132323   5.782   0.787   0.627  0.0949  0.4671  0.4320
 3588TIP3    H232324   5.679   0.717   0.540  0.4502 -0.3545  0.6577
 3589TIP3   OH232325   1.015   0.501   0.844  0.3783 -0.3506  0.2409
 3589TIP3    H132326   0.964   0.542   0.913  1.2148 -0.3204  0.8557
 3589TIP3    H232327   0.949   0.469   0.782 -0.4678 -1.4234  1.6139
 3590TIP3   OH232328   2.579   5.529   7.562 -0.0570  0.5030  0.3258
 3590TIP3    H132329   2.656   5.488   7.524  1.3236  2.3367  1.0000
 3590TIP3    H232330   2.559   5.602   7.503 -0.6955  0.6156  0.6694
 3591TIP3   OH232331   2.280   4.547   1.650  0.2981  0.3623  0.1219
 3591TIP3    H132332   2.214   4.516   1.588 -0.0112 -0.6357  0.9276
 3591TIP3    H232333   2.232   4.604   1.710  0.1241 -0.4537  0.7764
 3592TIP3   OH232334   1.183   3.740   0.236 -0.1313 -0.0136  0.3940
 3592TIP3    H132335   1.216   3.735   0.147 -0.8365  0.3805  0.1063
 3592TIP3    H232336   1.127   3.818   0.237 -1.1747 -0.7525  0.8342
 3593TIP3   OH232337   4.857   3.563   7.679  0.3688  0.2278  0.1202
 3593TIP3    H132338   4.889   3.475   7.700  0.4324 -0.5233 -2.7106
 3593TIP3    H232339   4.934   3.608   7.645 -0.3887  0.1373 -1.8295
 3594TIP3   OH232340   4.399   5.852   8.248 -0.4071 -0.1283 -0.0140
 3594TIP3    H132341   4.411   5.770   8.297  2.8371  1.1579  1.6583
 3594TIP3    H232342   4.446   5.838   8.166 -0.0520 -0.0239  0.1715
 3595TIP3   OH232343   0.761   0.162   0.057 -0.0712  0.0482  0.0847
 3595TIP3    H132344   0.693   0.098   0.033  1.4991 -1.3396 -0.8711
 3595TIP3    H232345   0.776   0.212  -0.023  2.1465 -1.7089 -0.6699
 3596TIP3   OH232346   1.378   3.869   0.343  0.3272  0.0665 -0.4233
 3596TIP3    H132347   1.446   3.896   0.282 -0.2043  0.0401 -1.0424
 3596TIP3    H232348   1.320   3.813   0.291 -0.1153  0.0181  0.1155
 3597TIP3   OH232349   4.191   2.898   1.583  0.6421  0.1662  0.1250
 3597TIP3    H132350   4.117   2.919   1.639  1.3316  0.3382  0.9905
 3597TIP3    H232351   4.156   2.837   1.518 -0.2504  0.2522  0.5193
 3598TIP3   OH232352   6.363   2.553   1.345  0.4098  0.0497 -0.6748
 3598TIP3    H132353   6.302   2.489   1.382  0.5967 -0.6181 -1.4838
 3598TIP3    H232354   6.308   2.608   1.289  0.5223 -0.5378 -1.3859
 3599TIP3   OH232355   5.152   4.567   2.565 -0.1926 -0.4353  0.2840
 3599TIP3    H132356   5.102   4.503   2.615 -0.3047 -0.3615  0.2677
 3599TIP3    H232357   5.236   4.573   2.610  0.3436 -1.6042 -0.5001
 3600TIP3   OH232358   3.047   4.115   7.848  0.5536  0.8178  0.6051
 3600TIP3    H132359   3.083   4.170   7.917 -2.1403  1.3618  1.7009
 3600TIP3    H232360   2.958   4.094   7.878  0.0166 -0.6434 -1.7494
 3601TIP3   OH232361   5.707   6.467   0.855  0.3594 -0.0319 -0.5261
 3601TIP3    H132362   5.614   6.449   0.859  0.1665  1.0146  0.1015
 3601TIP3    H232363   5.748   6.396   0.905 -0.3623  1.0939  1.7963
 3602TIP3   OH232364   1.563   4.280   7.152  0.5298 -0.1010  0.0748
 3602TIP3    H132365   1.590   4.304   7.063  0.7851  0.4596  0.3032
 3602TIP3    H232366   1.543   4.363   7.195  0.7926 -0.3370  0.6647
 3603TIP3   OH232367   6.568   1.452   1.690 -0.0037 -0.0631  0.4159
 3603TIP3    H132368   6.561   1.380   1.752 -2.0824  0.0746  0.4033
 3603TIP3    H232369   6.511   1.427   1.618  1.4690  0.3140 -0.9517
 3604TIP3   OH232370   3.142   2.248   7.775  0.5252 -0.8520  0.4606
 3604TIP3    H132371   3.077   2.316   7.755  0.5704 -0.7497  0.6605
 3604TIP3    H232372   3.226   2.293   7.775  0.5673 -0.9290  0.4868
 3605TIP3   OH232373   1.260   2.355   7.406  0.2673  0.0292  0.3829
 3605TIP3    H132374   1.350   2.328   7.426  0.0502 -0.2039  1.0652
 3605TIP3    H232375   1.258   2.362   7.311  0.1663 -2.9707  0.0810
 3606TIP3   OH232376   2.352   3.032   2.616  0.2459 -0.0740 -0.2573
 3606TIP3    H132377   2.300   3.101   2.656 -0.0053 -0.8965  0.8818
 3606TIP3    H232378   2.440   3.045   2.652  0.2723 -0.1399 -0.2982
 3607TIP3   OH232379   0.373   6.238   0.808  0.2933  0.0071 -0.1596
 3607TIP3    H132380   0.378   6.327   0.773  0.3795  0.0019 -0.1611
 3607TIP3    H232381   0.463   6.217   0.831  0.2909 -0.1214 -0.2641
 3608TIP3   OH232382   1.796   2.489   7.094 -0.2545  0.7336  0.6215
 3608TIP3    H132383   1.853   2.412   7.093 -0.1704  0.7796  1.3258
 3608TIP3    H232384   1.727   2.468   7.032  0.5272  0.6783 -0.2622
 3609TIP3   OH232385   4.609   4.028   1.284  0.4039 -0.5253  0.2661
 3609TIP3    H132386   4.514   4.038   1.280 -0.1345 -0.1486  5.6409
 3609TIP3    H232387   4.643   4.103   1.235 -1.8937 -1.3231 -2.8030
 3610TIP3   OH232388   4.622   5.540   7.738 -0.0000  0.1824 -0.5072
 3610TIP3    H132389   4.718   5.536   7.733 -0.0492 -0.3840 -1.2241
 3610TIP3    H232390   4.600   5.494   7.819  0.2554 -1.3320 -1.2538
 3611TIP3   OH232391   1.160   4.942   1.837 -0.2928  0.8401 -0.3075
 3611TIP3    H132392   1.231   4.967   1.777 -1.0552 -2.0065 -2.6569
 3611TIP3    H232393   1.082   4.938   1.782 -1.4828  0.0764  1.3466
 3612TIP3   OH232394   5.977   2.390   8.392 -0.3941 -0.2448 -0.4855
 3612TIP3    H132395   6.062   2.420   8.357 -0.0798  0.8120  1.0729
 3612TIP3    H232396   5.921   2.383   8.315  0.8678 -0.1266 -1.4523
 3613TIP3   OH232397   6.458   2.004   8.238 -0.0389  0.2143  0.1907
 3613TIP3    H132398   6.389   2.071   8.238  0.9998  1.3421 -0.7878
 3613TIP3    H232399   6.450   1.961   8.323  0.8268  3.2746  1.9504
 3614TIP3   OH232400   4.679   0.769   7.152  0.1950  0.2583  0.2433
 3614TIP3    H132401   4.665   0.721   7.234 -0.7727 -0.2314 -0.1926
 3614TIP3    H232402   4.750   0.721   7.109  0.3682  0.2156  0.5685
 3615TIP3   OH232403   0.623   2.856   7.891  0.0412 -0.2513 -0.1759
 3615TIP3    H132404   0.713   2.887   7.886  0.6079 -1.7470  0.3030
 3615TIP3    H232405   0.570   2.936   7.896  1.3086  0.6509 -0.7639
 3616TIP3   OH232406   6.675   0.041   2.014  0.4422 -0.4702  0.3044
 3616TIP3    H132407   6.661  -0.031   2.075 -0.0629 -1.7444 -1.2290
 3616TIP3    H232408   6.588   0.062   1.980  0.8259 -0.6658 -0.8794
 3617TIP3   OH232409   1.352   5.947   2.610  0.3227  0.1129 -0.2121
 3617TIP3    H132410   1.387   5.858   2.608  0.2074  0.0739 -0.6939
 3617TIP3    H232411   1.273   5.941   2.663 -0.2946 -0.3057 -1.1464
 3618TIP3   OH232412   4.791   0.628   1.706 -0.1886 -0.4141  0.3347
 3618TIP3    H132413   4.778   0.548   1.755  2.2594 -0.7006  0.6428
 3618TIP3    H232414   4.704   0.667   1.700 -1.2233 -2.4348  1.2691
 3619TIP3   OH232415   2.909   3.022   2.133  0.2350  0.1106 -0.7518
 3619TIP3    H132416   3.001   3.046   2.144  1.3848 -3.9992  0.0446
 3619TIP3    H232417   2.880   2.995   2.221 -1.2837 -0.0945 -1.2825
 3620TIP3   OH232418   4.995   6.375   0.819  0.1185 -0.1860 -0.1531
 3620TIP3    H132419   5.001   6.408   0.909  0.1430 -0.7300  0.0504
 3620TIP3    H232420   5.083   6.341   0.801  0.4048  0.8453 -0.7523
 3621TIP3   OH232421   6.370   1.850   1.257  0.5870  0.6236 -0.6170
 3621TIP3    H132422   6.339   1.882   1.342 -0.1353 -1.6072  0.0276
 3621TIP3    H232423   6.464   1.867   1.258  0.5430  0.8889  0.5121
 3622TIP3   OH232424   6.003   4.863   2.427 -0.1912  0.8098 -0.6341
 3622TIP3    H132425   6.089   4.905   2.428 -0.6515  1.8297  1.6543
 3622TIP3    H232426   5.972   4.874   2.337  1.6836  1.1807 -1.2769
 3623TIP3   OH232427   2.479   3.143   1.234  0.8028 -0.3718 -0.1022
 3623TIP3    H132428   2.424   3.066   1.251 -0.5232  0.5404 -0.1388
 3623TIP3    H232429   2.428   3.195   1.171  0.6012  1.6380  1.6319
 3624TIP3   OH232430   1.681   4.505   0.687  0.1239  0.5138  0.0260
 3624TIP3    H132431   1.629   4.485   0.765  0.5494  1.5860  0.6135
 3624TIP3    H232432   1.682   4.424   0.637  0.2277 -0.3404  1.3682
 3625TIP3   OH232433   4.770   1.049   0.424 -0.3672 -0.1842  0.2844
 3625TIP3    H132434   4.808   1.083   0.505 -0.1536 -0.5274  0.3296
 3625TIP3    H232435   4.846   1.025   0.370 -0.3454  2.9525 -1.3298
 3626TIP3   OH232436   4.330   3.732   7.495 -0.1221  0.3804  0.5622
 3626TIP3    H132437   4.357   3.820   7.470  1.0216  0.1598  0.9612
 3626TIP3    H232438   4.345   3.678   7.418 -1.0525  0.5679  0.2393
 3627TIP3   OH232439   5.749   5.043   1.585 -0.3099  0.3795 -0.3205
 3627TIP3    H132440   5.775   5.125   1.627  1.0899  0.1504 -0.6916
 3627TIP3    H232441   5.756   4.977   1.654 -2.4769  0.6859  0.2759
 3628TIP3   OH232442   4.323   4.246   2.716  0.5688 -0.4232  0.0334
 3628TIP3    H132443   4.240   4.222   2.756 -0.2781 -1.7090 -2.3262
 3628TIP3    H232444   4.307   4.330   2.674  0.8469 -0.0999  0.5506
 3629TIP3   OH232445   6.496   0.470   0.608  0.6101  0.2812  0.5083
 3629TIP3    H132446   6.495   0.531   0.534 -0.8698  1.0303  1.1080
 3629TIP3    H232447   6.528   0.388   0.570  0.2222  0.7446 -0.8849
 3630TIP3   OH232448   2.304   6.188   8.830  0.4723 -0.1578  0.3220
 3630TIP3    H132449   2.301   6.233   8.746  0.6360 -0.9555 -0.1203
 3630TIP3    H232450   2.212   6.168   8.850  0.4480 -0.1266  0.2421
 3631TIP3   OH232451   4.961   2.203   0.002  0.0266  0.1801  0.4514
 3631TIP3    H132452   5.044   2.158  -0.017 -0.9625 -1.2916 -0.6563
 3631TIP3    H232453   4.923   2.221  -0.084 -1.3449 -0.2668  0.9297
 3632TIP3   OH232454   5.285   5.006   0.182  0.7099 -0.2804  0.1740
 3632TIP3    H132455   5.249   4.949   0.115  2.2193 -0.1905 -0.7854
 3632TIP3    H232456   5.303   4.949   0.257  0.1924 -0.6333  0.0278
 3633TIP3   OH232457   5.321   4.000   8.827 -0.0838  0.2976  0.0866
 3633TIP3    H132458   5.245   3.943   8.821  1.3982 -1.7990  0.0482
 3633TIP3    H232459   5.345   4.019   8.736 -0.7807  1.3146  0.1026
 3634TIP3   OH232460   1.144   2.694   2.153 -0.5757  0.1346 -0.1852
 3634TIP3    H132461   1.154   2.768   2.093 -0.9475 -1.8331 -2.8699
 3634TIP3    H232462   1.225   2.644   2.143 -1.3590 -1.1380 -0.4196
 3635TIP3   OH232463   1.401   3.381   2.318  0.1624  0.1009 -0.0295
 3635TIP3    H132464   1.473   3.412   2.373  0.5044  0.2616 -0.5559
 3635TIP3    H232465   1.323   3.424   2.353  0.2168 -0.5954  0.9647
 3636TIP3   OH232466   4.987   5.203   2.796  0.5284 -0.2062 -0.5284
 3636TIP3    H132467   4.965   5.178   2.707  0.1064 -0.1015 -0.4558
 3636TIP3    H232468   5.053   5.139   2.824 -1.1085 -1.7625 -0.0699
 3637TIP3   OH232469   5.204   3.687   7.101 -0.1842 -0.6670  0.2699
 3637TIP3    H132470   5.227   3.741   7.026 -0.2744 -0.4089  0.4278
 3637TIP3    H232471   5.206   3.597   7.068 -1.8702 -0.4605 -0.4752
 3638TIP3   OH232472   3.125   3.658   6.710 -0.4534 -0.4114 -0.0167
 3638TIP3    H132473   3.070   3.737   6.713  0.1233 -0.0188  0.5271
 3638TIP3    H232474   3.210   3.688   6.741  0.0152 -1.0617 -0.6683
 3639TIP3   OH232475   1.224   0.203   7.738 -0.0159 -0.3047 -1.0120
 3639TIP3    H132476   1.172   0.280   7.715  1.2084  0.9160  0.0988
 3639TIP3    H232477   1.305   0.213   7.690 -0.1327 -1.3184 -1.4403
 3640TIP3   OH232478   3.892   5.831   8.307 -0.1278 -0.2095 -0.4005
 3640TIP3    H132479   3.985   5.818   8.290 -0.0598  0.1235 -0.2904
 3640TIP3    H232480   3.874   5.780   8.386 -0.0411 -0.2757 -0.4235
 3641TIP3   OH232481   3.311   5.362   0.588  0.0916  0.1270 -0.6202
 3641TIP3    H132482   3.219   5.347   0.568 -0.2277  2.0359 -0.8273
 3641TIP3    H232483   3.324   5.322   0.674 -1.1329  0.4173 -0.2769
 3642TIP3   OH232484   3.970   0.376   7.939 -0.7098  0.0178 -0.9362
 3642TIP3    H132485   3.922   0.326   8.006  1.5177 -0.5066  0.3715
 3642TIP3    H232486   3.986   0.461   7.980  2.0931 -0.8433 -0.0017
 3643TIP3   OH232487   1.670   6.180   8.030  0.2229 -0.2516  0.0932
 3643TIP3    H132488   1.733   6.250   8.014 -1.8678  1.8782  0.5920
 3643TIP3    H232489   1.641   6.153   7.942  0.2896  0.2606 -0.0896
 3644TIP3   OH232490   6.606   3.912   1.039  0.3983 -0.0736 -0.0381
 3644TIP3    H132491   6.664   3.988   1.033 -0.8015  0.7387 -2.8572
 3644TIP3    H232492   6.647   3.847   0.983 -1.1590  0.4072 -1.8279
 3645TIP3   OH232493   2.955   2.329   8.372 -0.2322 -0.3542 -0.0634
 3645TIP3    H132494   2.865   2.334   8.404 -0.2508 -0.0376 -0.1593
 3645TIP3    H232495   2.998   2.266   8.429 -0.7955 -1.3117 -0.6721
 3646TIP3   OH232496   1.264   0.358   8.147 -0.1133 -0.0585 -0.7943
 3646TIP3    H132497   1.357   0.337   8.145 -0.1375 -0.4248  0.6848
 3646TIP3    H232498   1.248   0.390   8.236 -1.5374 -0.6946 -0.7862
 3647TIP3   OH232499   5.526   4.275   7.426  0.4263  0.1331 -0.1749
 3647TIP3    H132500   5.467   4.336   7.470  0.6536 -0.2129  0.6202
 3647TIP3    H232501   5.604   4.327   7.405 -1.0166  1.2749 -3.4343
 3648TIP3   OH232502   3.075   4.423   2.374 -0.3055  0.4967  0.2714
 3648TIP3    H132503   3.028   4.345   2.344 -2.0508  1.2295  0.9746
 3648TIP3    H232504   3.044   4.437   2.463  2.3303  0.2446  1.2990
 3649TIP3   OH232505   1.372   6.160   1.235  0.0877 -0.1884 -0.4538
 3649TIP3    H132506   1.418   6.243   1.247 -0.2996 -0.1160  0.7179
 3649TIP3    H232507   1.349   6.158   1.142  1.8198  0.0899 -0.9127
 3650TIP3   OH232508   2.949   1.565   7.783 -0.0497  0.5141  0.0947
 3650TIP3    H132509   3.015   1.586   7.717  1.3360 -1.6944  0.6629
 3650TIP3    H232510   2.886   1.637   7.778  0.6056  0.9987 -2.7917
 3651TIP3   OH232511   2.718   4.486   8.497  0.0998 -0.5221 -0.2730
 3651TIP3    H132512   2.800   4.447   8.525 -0.1046 -0.9738 -0.2928
 3651TIP3    H232513   2.651   4.425   8.528 -0.2387 -0.0768 -0.1120
 3652TIP3   OH232514   0.332   4.230   8.568 -0.2544  0.4526 -0.0919
 3652TIP3    H132515   0.248   4.249   8.527  0.3139  0.1912 -1.4390
 3652TIP3    H232516   0.397   4.254   8.501  0.7348  0.5763  0.8914
 3653TIP3   OH232517   4.543   0.621   1.516 -0.4346  0.0178 -0.2521
 3653TIP3    H132518   4.452   0.641   1.496 -0.7201 -2.1398 -1.3201
 3653TIP3    H232519   4.591   0.644   1.437  0.2061  2.3554  0.7384
 3654TIP3   OH232520   1.324   1.124   2.039 -0.2340  0.2721  0.3177
 3654TIP3    H132521   1.242   1.076   2.044  0.2154 -0.4722  0.8100
 3654TIP3    H232522   1.344   1.147   2.129  1.4203 -1.9004  0.5953
 3655TIP3   OH232523   6.732   2.165   0.253  0.5793 -0.1687  0.4337
 3655TIP3    H132524   6.750   2.123   0.337  2.9271  2.0701  1.1992
 3655TIP3    H232525   6.661   2.227   0.272 -0.8441 -1.5837 -0.0009
 3656TIP3   OH232526   5.649   3.473   8.281 -0.1004 -0.2254  0.1912
 3656TIP3    H132527   5.559   3.508   8.279  0.0613  0.3768  1.6852
 3656TIP3    H232528   5.700   3.535   8.229 -0.2725  0.3890  0.7283
 3657TIP3   OH232529   2.251   0.654   2.665 -0.2980 -0.0564 -0.1042
 3657TIP3    H132530   2.188   0.657   2.593 -0.1214 -2.1307 -0.4079
 3657TIP3    H232531   2.331   0.620   2.625  0.1930  0.0137  0.8061
 3658TIP3   OH232532   6.215   0.625   7.033 -0.1531  0.2182 -0.4808
 3658TIP3    H132533   6.136   0.633   6.979 -0.3970 -1.6863 -0.4546
 3658TIP3    H232534   6.241   0.534   7.024 -0.1072 -0.1369  2.4826
 3659TIP3   OH232535   1.406   4.107   8.225  0.2052 -0.1646  0.1992
 3659TIP3    H132536   1.370   4.033   8.273  0.3795  0.0251  0.6268
 3659TIP3    H232537   1.379   4.184   8.275 -0.3708  0.1012 -0.4884
 3660TIP3   OH232538   6.366   2.998   2.942 -0.0274 -0.9195 -0.0457
 3660TIP3    H132539   6.283   2.965   2.977 -0.7127  0.1733 -0.5837
 3660TIP3    H232540   6.393   3.067   3.003  0.0010 -0.6279 -0.3873
 3661TIP3   OH232541   5.105   4.771   2.383  0.1250 -0.5180 -0.2451
 3661TIP3    H132542   5.020   4.802   2.414  0.1220 -1.3536  0.6386
 3661TIP3    H232543   5.130   4.702   2.446  1.9733  0.4742  0.1762
 3662TIP3   OH232544   2.897   0.036   8.833 -0.1655  0.4072  0.2497
 3662TIP3    H132545   2.857   0.059   8.749  1.0951 -0.0223 -0.4924
 3662TIP3    H232546   2.867   0.104   8.893  0.7290  2.0550 -1.0884
 3663TIP3   OH232547   4.190   0.553   7.617 -0.1426  0.3846 -0.0722
 3663TIP3    H132548   4.216   0.573   7.707 -2.1704 -0.0938  0.6600
 3663TIP3    H232549   4.164   0.638   7.581  0.3960  0.5276 -0.1480
 3664TIP3   OH232550   1.873   1.837   6.511 -0.2243 -0.2741 -0.0968
 3664TIP3    H132551   1.785   1.873   6.524 -1.4293 -3.7748  3.4762
 3664TIP3    H232552   1.924   1.872   6.584  0.5277 -0.4753 -0.5194
 3665TIP3   OH232553   2.524   2.891   7.667 -0.0347  0.4536  0.3529
 3665TIP3    H132554   2.554   2.957   7.729  1.1169 -0.5122  0.8543
 3665TIP3    H232555   2.602   2.842   7.643 -1.0842 -1.9167  1.4040
 3666TIP3   OH232556   4.377   4.744   8.073  0.0182  0.2609  0.1778
 3666TIP3    H132557   4.378   4.648   8.074 -1.1873  0.2146 -0.4538
 3666TIP3    H232558   4.434   4.770   8.145  1.3547 -0.9176 -0.4030
 3667TIP3   OH232559   5.696   2.673   0.380 -0.4886 -0.1861  0.0134
 3667TIP3    H132560   5.754   2.680   0.455  1.5976  0.3192 -1.5762
 3667TIP3    H232561   5.615   2.717   0.408  0.1115 -0.2792  2.0257
 3668TIP3   OH232562   5.030   4.906   1.389 -0.0294 -0.4879  0.1244
 3668TIP3    H132563   5.003   4.818   1.417  0.5629 -1.0190 -0.9040
 3668TIP3    H232564   4.955   4.938   1.338 -0.4583 -0.1695  0.9361
 3669TIP3   OH232565   1.219   0.678   1.442  0.3140  0.3938  0.0380
 3669TIP3    H132566   1.292   0.723   1.485 -0.8343  1.5761  0.8326
 3669TIP3    H232567   1.190   0.740   1.374 -0.1515  0.0918 -0.0430
 3670TIP3   OH232568   4.672   5.919   0.102 -0.4112  0.1600 -0.4514
 3670TIP3    H132569   4.619   5.845   0.129  0.3821 -0.1115  0.4129
 3670TIP3    H232570   4.751   5.881   0.065  0.2303  0.5582  0.4682
 3671TIP3   OH232571   4.494   5.221   8.238 -0.4987  0.0512 -0.0359
 3671TIP3    H132572   4.447   5.185   8.313  0.8547  0.1719  0.9163
 3671TIP3    H232573   4.474   5.161   8.166  1.1287 -2.3204  1.3245
 3672TIP3   OH232574   3.671   0.404   0.465  0.0846 -0.5859 -0.5627
 3672TIP3    H132575   3.654   0.345   0.538 -0.4284 -1.3170 -1.2529
 3672TIP3    H232576   3.701   0.346   0.394 -0.0923  0.0244 -1.1460
 3673TIP3   OH232577   0.135   1.775   7.170 -0.4849 -0.5411 -0.8341
 3673TIP3    H132578   0.189   1.738   7.100  0.3683  2.2231 -1.7696
 3673TIP3    H232579   0.103   1.699   7.218  3.3243 -2.4370 -0.8878
 3674TIP3   OH232580   6.103   4.175   7.767 -0.1377 -0.2029 -0.0261
 3674TIP3    H132581   6.173   4.161   7.831 -1.2531  2.0585  1.8776
 3674TIP3    H232582   6.138   4.141   7.685  1.5813 -2.7892  1.6209
 3675TIP3   OH232583   2.093   5.389   0.942 -0.5633 -0.6175  0.0277
 3675TIP3    H132584   2.143   5.318   0.903 -1.3449 -0.8199 -0.6239
 3675TIP3    H232585   2.095   5.459   0.877  0.1278 -0.0575  0.6271
 3676TIP3   OH232586   2.221   5.508   8.076 -0.4321  0.4976  0.1111
 3676TIP3    H132587   2.150   5.527   8.014 -2.0630  0.8464  2.0028
 3676TIP3    H232588   2.299   5.549   8.036 -0.8423 -1.2653 -2.8111
 3677TIP3   OH232589   0.797   2.923   2.154 -0.2970  0.2426  0.0651
 3677TIP3    H132590   0.737   2.850   2.141 -1.2172  0.6916  1.5780
 3677TIP3    H232591   0.855   2.895   2.225 -0.5428  0.8906  0.5354
 3678TIP3   OH232592   0.854   6.511   7.639  0.2908  0.2294  0.0194
 3678TIP3    H132593   0.855   6.419   7.611 -2.7476 -0.0936  0.6605
 3678TIP3    H232594   0.778   6.549   7.595  1.5133  2.5336 -0.2835
 3679TIP3   OH232595   3.312   1.004   1.196  0.1300  0.2421  0.0653
 3679TIP3    H132596   3.301   0.954   1.277  1.4233  0.3483  0.3153
 3679TIP3    H232597   3.365   0.947   1.140  1.7057  1.3307  0.3916
 3680TIP3   OH232598   1.877   4.038   7.853  0.0960 -0.0878 -0.1589
 3680TIP3    H132599   1.853   3.972   7.788  0.8568 -0.1600 -0.3753
 3680TIP3    H232600   1.793   4.067   7.889 -0.2724 -0.8640 -0.3623
 3681TIP3   OH232601   6.161   4.061   7.505  0.3815 -0.2791 -0.6445
 3681TIP3    H132602   6.073   4.070   7.470 -0.1983  1.0206  1.0312
 3681TIP3    H232603   6.212   4.026   7.432 -1.3705 -0.5057 -1.8284
 3682TIP3   OH232604   1.628   2.602   7.287 -0.2532  0.7592 -0.2567
 3682TIP3    H132605   1.695   2.561   7.233  0.0462 -0.5993  1.0780
 3682TIP3    H232606   1.555   2.619   7.226  0.2705 -0.2151 -1.1950
 3683TIP3   OH232607   2.874   5.756   7.570  0.7825 -0.4113  0.4646
 3683TIP3    H132608   2.865   5.787   7.480  3.0475 -0.9238  0.0074
 3683TIP3    H232609   2.846   5.830   7.624 -0.3671 -0.0122 -0.6245
 3684TIP3   OH232610   1.990   2.470   1.510 -0.0467  0.2649 -0.5118
 3684TIP3    H132611   1.950   2.405   1.452 -1.4921 -2.0987  2.7817
 3684TIP3    H232612   1.925   2.484   1.578  1.3920  3.1302  0.4127
 3685TIP3   OH232613   0.954   0.863   3.127  0.0470  0.2016  0.4019
 3685TIP3    H132614   0.962   0.787   3.184 -0.7799 -0.4954 -0.3823
 3685TIP3    H232615   0.967   0.829   3.038  1.6648  1.3280  0.1679
 3686TIP3   OH232616   2.699   5.953   8.718 -0.6506  0.1630 -0.0902
 3686TIP3    H132617   2.711   6.048   8.717  1.1789 -0.0341  0.2189
 3686TIP3    H232618   2.645   5.937   8.796 -1.1028  0.9495 -0.2269
 3687TIP3   OH232619   3.916   0.492   7.717 -0.4297  0.2316 -0.3838
 3687TIP3    H132620   3.998   0.530   7.686 -0.2162  1.3240  1.3533
 3687TIP3    H232621   3.940   0.444   7.796 -1.1184 -1.4891 -1.1659
 3688TIP3   OH232622   3.365   4.115   0.109  0.1593 -0.3372 -0.3641
 3688TIP3    H132623   3.439   4.080   0.159 -0.1800 -1.1771 -0.4259
 3688TIP3    H232624   3.295   4.123   0.174  0.3784  0.7238 -0.2466
 3689TIP3   OH232625   5.145   0.207   2.858  0.2559  0.2528 -0.1104
 3689TIP3    H132626   5.237   0.193   2.881  0.4243 -0.6123 -1.2206
 3689TIP3    H232627   5.148   0.243   2.769 -0.4799  0.1640 -0.1762
 3690TIP3   OH232628   3.874   4.698   8.822 -0.2067  0.3793  0.7172
 3690TIP3    H132629   3.960   4.657   8.818  0.3366  1.5064  0.5416
 3690TIP3    H232630   3.813   4.627   8.801  0.7736 -0.0451 -0.8463
 3691TIP3   OH232631   4.318   1.257   0.065  0.1341  0.7981 -0.5364
 3691TIP3    H132632   4.349   1.283   0.152 -1.6154 -1.0491  0.7372
 3691TIP3    H232633   4.302   1.339   0.019  2.5286  1.8036  0.3072
 3692TIP3   OH232634   5.188   3.256   0.550  0.2775 -0.2557 -0.0898
 3692TIP3    H132635   5.270   3.273   0.504  0.0224  2.1255  0.2293
 3692TIP3    H232636   5.130   3.327   0.523 -2.1855 -2.5707 -1.3435
 3693TIP3   OH232637   2.762   4.440   2.036  0.2035 -0.1306 -0.0590
 3693TIP3    H132638   2.749   4.454   2.130 -1.2462 -0.3406 -0.1962
 3693TIP3    H232639   2.855   4.420   2.027  0.4760  0.4355  1.2603
 3694TIP3   OH232640   4.914   2.640   7.911  0.1559  0.0267  0.9846
 3694TIP3    H132641   4.865   2.683   7.840  0.6730 -0.1160  0.5350
 3694TIP3    H232642   4.926   2.550   7.880  0.8101  0.0949  1.0404
 3695TIP3   OH232643   6.571   1.936   0.711 -0.4008 -0.3246 -0.0935
 3695TIP3    H132644   6.627   1.859   0.716  0.0722  0.0152 -0.1573
 3695TIP3    H232645   6.590   1.985   0.791  0.0974  0.2667 -0.5620
 3696TIP3   OH232646   5.557   4.857   1.802  0.4895 -0.1230 -0.1057
 3696TIP3    H132647   5.592   4.935   1.846  0.1129 -0.6641  1.2278
 3696TIP3    H232648   5.462   4.871   1.801  0.4265 -0.5307  0.0843
 3697TIP3   OH232649   6.123   2.827   7.731  0.0716  0.4050 -0.3456
 3697TIP3    H132650   6.050   2.787   7.684 -0.3019 -0.5200  0.9771
 3697TIP3    H232651   6.199   2.810   7.676 -0.3514 -0.6523 -0.6266
 3698TIP3   OH232652   6.027   1.864   1.706 -0.8890  0.0805  0.2671
 3698TIP3    H132653   6.028   1.783   1.656 -1.5303  0.5846 -0.5862
 3698TIP3    H232654   5.938   1.868   1.743 -0.7159  0.1788  0.6844
 3699TIP3   OH232655   2.042   6.072   8.402 -0.8644 -0.0588 -0.1220
 3699TIP3    H132656   2.048   6.140   8.334 -0.0882 -0.0890 -0.0967
 3699TIP3    H232657   1.949   6.049   8.405 -0.7555 -0.9201 -2.0118
 3700TIP3   OH232658   0.900   4.652   2.200  0.2162 -0.4375  0.6113
 3700TIP3    H132659   0.840   4.584   2.169  0.5932 -1.2519  1.6353
 3700TIP3    H232660   0.973   4.649   2.138 -1.5224  1.7767 -1.7378
 3701TIP3   OH232661   2.176   1.297   8.664 -0.3741  0.1157  0.4888
 3701TIP3    H132662   2.153   1.209   8.636 -2.0538  1.5337 -3.2028
 3701TIP3    H232663   2.117   1.315   8.737 -1.0660 -1.2786  0.3117
 3702TIP3   OH232664   1.652   3.531   1.773  0.1783  0.2518 -0.2105
 3702TIP3    H132665   1.660   3.458   1.712  2.7729 -0.0756  0.4039
 3702TIP3    H232666   1.677   3.494   1.858  0.6935  1.6392  0.2734
 3703TIP3   OH232667   1.154   6.776   0.747  0.2262 -0.2125  0.4110
 3703TIP3    H132668   1.073   6.821   0.769  0.8563  0.8515  0.6291
 3703TIP3    H232669   1.129   6.714   0.679 -0.6028  0.7380 -0.1807
 3704TIP3   OH232670   3.976   5.518   7.394 -0.2224  0.3151  0.2261
 3704TIP3    H132671   3.935   5.545   7.476  2.0806 -0.4605  1.7014
 3704TIP3    H232672   4.054   5.572   7.388 -0.1323  0.0518 -1.2657
 3705TIP3   OH232673   0.913   6.230   0.078  0.0703 -0.3439 -0.2336
 3705TIP3    H132674   0.929   6.213  -0.014 -1.7997 -0.8492 -0.4980
 3705TIP3    H232675   0.880   6.320   0.081  1.9316  0.3730  0.2033
 3706TIP3   OH232676   6.783   4.844   1.656 -0.5795  0.2122  0.1278
 3706TIP3    H132677   6.837   4.775   1.695 -0.1360  0.7872  0.5482
 3706TIP3    H232678   6.752   4.807   1.574  0.9537  0.0800 -0.4197
 3707TIP3   OH232679   0.248   4.291   1.826  0.1808 -0.0636 -0.2707
 3707TIP3    H132680   0.318   4.291   1.760 -0.9529 -0.0138 -1.5207
 3707TIP3    H232681   0.189   4.222   1.797 -0.5450  0.2406  0.4751
 3708TIP3   OH232682   6.694   4.041   0.810  0.5309  0.0030 -0.1480
 3708TIP3    H132683   6.633   3.975   0.775 -0.0997  0.0112  0.8853
 3708TIP3    H232684   6.774   3.992   0.827 -0.4580 -0.9237  2.1828
 3709TIP3   OH232685   3.733   0.830   0.838  0.0624  0.0396 -0.1311
 3709TIP3    H132686   3.675   0.892   0.795  0.5520 -0.1292 -1.0676
 3709TIP3    H232687   3.820   0.869   0.832  1.1093 -2.2634 -4.1793
 3710TIP3   OH232688   0.784   1.638   8.028  0.4322  1.1510  0.2506
 3710TIP3    H132689   0.869   1.674   8.002  1.6628 -0.8116  1.2727
 3710TIP3    H232690   0.761   1.578   7.957  0.3683  0.9740  0.4213
 3711TIP3   OH232691   4.032   2.411   1.114  0.2102  0.5242 -0.3377
 3711TIP3    H132692   3.958   2.469   1.133 -1.7549 -1.7246 -0.5421
 3711TIP3    H232693   4.047   2.363   1.195  0.2238 -0.2794 -0.7980
 3712TIP3   OH232694   6.689   2.597   0.440  0.0855 -0.1943  0.4802
 3712TIP3    H132695   6.692   2.650   0.361 -1.4743  1.3928  1.3972
 3712TIP3    H232696   6.775   2.606   0.480  0.4149  0.1675 -0.3063
 3713TIP3   OH232697   1.161   0.996   2.572  0.0991  0.2369  0.1907
 3713TIP3    H132698   1.246   1.014   2.531  0.0146 -0.7801 -0.4854
 3713TIP3    H232699   1.125   1.082   2.592  1.0811  0.7006  0.0492
 3714TIP3   OH232700   5.972   3.919   0.166 -0.1062 -0.5474  0.2993
 3714TIP3    H132701   5.977   4.011   0.193 -0.1189 -1.0840  2.2453
 3714TIP3    H232702   5.982   3.922   0.071  1.1258  1.3671  0.4301
 3715TIP3   OH232703   3.834   2.731   2.020 -0.5643 -0.0159 -0.0159
 3715TIP3    H132704   3.859   2.721   2.112 -0.8611  0.0720  0.0786
 3715TIP3    H232705   3.738   2.731   2.022 -0.5742  0.8292 -0.2279
 3716TIP3   OH232706   5.827   2.895   2.362 -0.1955  0.1675  0.6195
 3716TIP3    H132707   5.814   2.988   2.381 -0.0217  0.3627 -0.2006
 3716TIP3    H232708   5.741   2.856   2.373 -0.1001  0.2499  1.8630
 3717TIP3   OH232709   6.308   1.501   7.984 -0.1952  0.1525 -0.0431
 3717TIP3    H132710   6.369   1.555   8.033  0.3375  0.5122 -1.0759
 3717TIP3    H232711   6.224   1.547   7.992 -0.4937 -0.6441  1.8562
 3718TIP3   OH232712   3.783   0.678   0.580 -0.5434  0.1499  0.3396
 3718TIP3    H132713   3.738   0.608   0.532 -0.4309  0.4158 -0.1484
 3718TIP3    H232714   3.803   0.638   0.665 -0.3836 -0.4448  0.0286
 3719TIP3   OH232715   4.068   5.845   7.546 -0.0659  0.1604  0.4316
 3719TIP3    H132716   4.061   5.882   7.458 -0.0111  2.8842  1.4716
 3719TIP3    H232717   4.130   5.773   7.536  0.9336  1.1987 -1.5363
 3720TIP3   OH232718   3.039   2.553   3.170 -0.4329 -0.0895 -0.2953
 3720TIP3    H132719   3.000   2.618   3.112 -1.8717 -0.3821  0.3013
 3720TIP3    H232720   3.087   2.494   3.112  2.9393  2.7160 -0.7262
 3721TIP3   OH232721   1.922   1.164   7.196 -0.0259  0.0798 -1.0545
 3721TIP3    H132722   2.014   1.139   7.198  0.2371  1.0182  0.8144
 3721TIP3    H232723   1.923   1.260   7.206 -1.1898  0.1292 -1.2532
 3722TIP3   OH232724   2.942   5.193   7.357 -0.2192  0.0718  0.3824
 3722TIP3    H132725   2.895   5.120   7.316 -0.5090  0.3847  0.1569
 3722TIP3    H232726   2.985   5.238   7.284 -0.7399  0.6335  0.4147
 3723TIP3   OH232727   2.122   4.106   0.917 -0.0872  0.0237 -0.1540
 3723TIP3    H132728   2.179   4.183   0.924 -0.5595  0.2560  1.5704
 3723TIP3    H232729   2.035   4.142   0.899  0.0845 -0.2685 -1.6848
 3724TIP3   OH232730   6.238   4.763   7.605  0.0736  0.3158  0.3439
 3724TIP3    H132731   6.178   4.749   7.532 -0.9418 -1.2675  1.4173
 3724TIP3    H232732   6.198   4.833   7.656  0.2645  0.7284 -0.0634
 3725TIP3   OH232733   5.698   2.942   0.603 -0.1645  0.0719  0.0747
 3725TIP3    H132734   5.648   2.895   0.669  0.2157  0.0398  0.3370
 3725TIP3    H232735   5.631   2.989   0.552 -0.5686 -0.9508 -0.3598
 3726TIP3   OH232736   5.772   1.002   7.406  0.2027 -0.0957  0.4721
 3726TIP3    H132737   5.831   1.043   7.469 -0.9061  2.7159 -0.1440
 3726TIP3    H232738   5.686   1.036   7.429 -0.4919 -0.4884 -1.3702
 3727TIP3   OH232739   1.605   6.457   1.289 -0.6209  0.3920 -0.1714
 3727TIP3    H132740   1.544   6.480   1.219 -0.2898 -0.2275 -0.6744
 3727TIP3    H232741   1.648   6.378   1.259  0.5719  0.9132  0.0901
 3728TIP3   OH232742   4.932   4.145   1.688 -0.0371 -0.5644  0.0503
 3728TIP3    H132743   4.871   4.093   1.637 -1.2179  0.5170  0.2834
 3728TIP3    H232744   4.911   4.123   1.779  0.5760 -0.8907  0.1123
 3729TIP3   OH232745   1.140   6.415   8.206 -0.5436 -0.4551 -0.4972
 3729TIP3    H132746   1.100   6.499   8.186  0.0760  0.0130  0.2004
 3729TIP3    H232747   1.201   6.433   8.277 -0.0200 -1.3954 -0.6856
 3730TIP3   OH232748   5.603   5.546   8.024  0.0591  0.1858  0.7057
 3730TIP3    H132749   5.562   5.524   7.940  1.7216  2.0970 -0.6793
 3730TIP3    H232750   5.649   5.465   8.049  0.6370 -0.0402 -0.9185
 3731TIP3   OH232751   0.815   4.391   7.875  0.3341  0.3172  0.3143
 3731TIP3    H132752   0.779   4.462   7.821 -0.8356 -0.1585  0.4424
 3731TIP3    H232753   0.910   4.400   7.866  0.1899  0.1642 -1.9427
 3732TIP3   OH232754   4.675   2.488   0.010  0.1721 -0.2317  0.0999
 3732TIP3    H132755   4.738   2.536  -0.044  0.0777  0.2359  0.4036
 3732TIP3    H232756   4.590   2.512  -0.025  0.1731 -1.3085 -0.6780
 3733TIP3   OH232757   3.725   4.928   1.244  0.1287 -0.0746  0.0188
 3733TIP3    H132758   3.816   4.899   1.243  0.4487  0.8197  1.1155
 3733TIP3    H232759   3.700   4.925   1.336 -1.2879 -1.2649 -0.3721
 3734TIP3   OH232760   2.303   0.675   2.250 -0.7755  0.4207 -0.1188
 3734TIP3    H132761   2.336   0.632   2.328 -0.7315  1.2900  0.3544
 3734TIP3    H232762   2.362   0.646   2.180  0.5828  1.3617  0.5786
 3735TIP3   OH232763   2.130   0.903   2.427  0.6484  0.0513  0.2157
 3735TIP3    H132764   2.139   0.959   2.504 -2.1038  0.1259  0.6038
 3735TIP3    H232765   2.105   0.817   2.462 -3.3018  0.7113 -0.4810
 3736TIP3   OH232766   4.381   4.367   0.135 -0.3547 -0.6520  0.0984
 3736TIP3    H132767   4.399   4.370   0.041 -0.0121 -3.0402  0.0323
 3736TIP3    H232768   4.368   4.458   0.159  0.7034  0.1451 -2.0417
 3737TIP3   OH232769   4.556   0.774   1.231 -0.3222 -0.0267  0.4130
 3737TIP3    H132770   4.519   0.847   1.280 -0.6397 -1.0539  1.7898
 3737TIP3    H232771   4.494   0.759   1.160 -0.1663  1.1297  0.0172
 3738TIP3   OH232772   1.455   3.059   1.502 -0.2585 -0.1439  0.0611
 3738TIP3    H132773   1.462   2.977   1.453 -1.0240 -1.4069  1.9430
 3738TIP3    H232774   1.363   3.066   1.525 -0.2491  1.4010 -0.2672
 3739TIP3   OH232775   4.277   5.591   1.412  0.2407 -0.5585  0.4332
 3739TIP3    H132776   4.205   5.627   1.360  1.3341 -0.0081 -0.7718
 3739TIP3    H232777   4.271   5.496   1.397  0.6475 -0.3976 -0.8920
 3740TIP3   OH232778   3.663   5.351   1.479 -0.1930  0.3000  0.5611
 3740TIP3    H132779   3.644   5.316   1.392 -0.0175  1.6683 -0.0675
 3740TIP3    H232780   3.758   5.360   1.481 -0.2038  0.3510  0.8623
 3741TIP3   OH232781   4.463   5.862   8.703  0.2564  0.4844 -0.0938
 3741TIP3    H132782   4.483   5.769   8.709 -0.2412  0.3850  0.0159
 3741TIP3    H232783   4.527   5.904   8.761  0.7653  0.2534 -0.4844
 3742TIP3   OH232784   2.205   5.535   2.562 -0.4925 -0.0062  0.0612
 3742TIP3    H132785   2.214   5.616   2.513 -0.8515  0.2562  0.4207
 3742TIP3    H232786   2.161   5.561   2.643  1.2066 -0.2022  1.0979
 3743TIP3   OH232787   2.048   6.539   8.143  0.2242  0.1936  0.6711
 3743TIP3    H132788   1.999   6.619   8.122 -1.3083 -0.5338  1.3078
 3743TIP3    H232789   2.130   6.570   8.181 -0.5764  1.4872  1.4265
 3744TIP3   OH232790   5.687   1.661   7.784  0.4048  0.3713 -0.1865
 3744TIP3    H132791   5.730   1.737   7.824 -0.8001  1.1646 -0.3457
 3744TIP3    H232792   5.651   1.612   7.857  1.0110  0.0523 -0.0969
 3745TIP3   OH232793   4.521   5.589   7.452  0.1094  0.3407  0.5848
 3745TIP3    H132794   4.553   5.575   7.541  2.1016  1.2951  0.0778
 3745TIP3    H232795   4.522   5.684   7.441  1.2047  0.1892 -0.8775
 3746TIP3   OH232796   2.870   4.753   0.474  0.1962 -0.2867  0.1832
 3746TIP3    H132797   2.792   4.699   0.470  1.3453 -1.9550 -1.1137
 3746TIP3    H232798   2.938   4.702   0.429  2.4734  0.3883  2.5731
 3747TIP3   OH232799   4.740   1.726   7.246 -0.0012  0.0468 -0.3190
 3747TIP3    H132800   4.823   1.678   7.236  0.3029  0.6240 -0.6600
 3747TIP3    H232801   4.763   1.816   7.224 -0.3381  0.5505  1.3239
 3748TIP3   OH232802   5.607   1.950   8.556  0.0686 -0.0746  0.2273
 3748TIP3    H132803   5.546   1.905   8.614  0.0335 -1.4649 -0.8337
 3748TIP3    H232804   5.643   1.881   8.500  2.3473  0.7455  0.5462
 3749TIP3   OH232805   5.063   4.664   1.068  0.6652 -0.0032  0.4045
 3749TIP3    H132806   5.089   4.748   1.030 -0.2911 -0.0612 -0.4296
 3749TIP3    H232807   5.010   4.622   1.000 -2.0783  0.3459  2.1426
 3750TIP3   OH232808   3.111   0.603   0.523 -0.1023  0.1679 -0.0118
 3750TIP3    H132809   3.127   0.561   0.608  1.5411  0.0091 -0.3643
 3750TIP3    H232810   3.183   0.573   0.468 -1.1543  0.2448 -1.4987
 3751TIP3   OH232811   1.382   1.674   2.142 -0.1117 -0.1437  0.5027
 3751TIP3    H132812   1.301   1.700   2.186  0.0265 -0.7013  1.1066
 3751TIP3    H232813   1.359   1.672   2.049 -0.7009  0.0203  0.6409
 3752TIP3   OH232814   5.573   4.671   1.322 -0.1407 -0.4857 -0.5307
 3752TIP3    H132815   5.662   4.665   1.287  0.1713  1.6765 -0.2363
 3752TIP3    H232816   5.518   4.636   1.253  0.7472  0.4452 -1.7581
 3753TIP3   OH232817   1.020   1.660   2.838 -0.3493  0.1255  0.2616
 3753TIP3    H132818   0.934   1.686   2.871 -0.6275  1.9046 -1.6684
 3753TIP3    H232819   1.073   1.739   2.845  0.4299 -0.2887 -0.7554
 3754TIP3   OH232820   1.015   5.906   7.981 -0.4690 -0.5482 -0.7218
 3754TIP3    H132821   0.988   5.868   8.064 -3.2818  1.3486 -0.6336
 3754TIP3    H232822   1.054   5.990   8.005 -2.1584  0.4389 -1.3017
 3755TIP3   OH232823   6.074   4.452   7.940  0.2497  0.2900 -0.1587
 3755TIP3    H132824   6.045   4.492   7.858  2.6107 -0.7355 -1.5908
 3755TIP3    H232825   6.111   4.368   7.914 -0.0579 -0.6470  2.1587
 3756TIP3   OH232826   5.789   1.903   0.548  0.2998 -0.4984  0.1275
 3756TIP3    H132827   5.840   1.956   0.611  0.9767  0.6984 -1.3583
 3756TIP3    H232828   5.840   1.822   0.539  2.1722  0.7632 -1.4924
 3757TIP3   OH232829   6.355   4.779   0.132  0.5187  0.6874  0.4421
 3757TIP3    H132830   6.293   4.824   0.189 -0.1001  0.4522 -0.0372
 3757TIP3    H232831   6.329   4.805   0.043 -0.1039 -0.9176  0.1270
 3758TIP3   OH232832   5.357   4.958   0.891  0.3411 -0.4372  0.4703
 3758TIP3    H132833   5.439   4.935   0.934 -0.2002  0.3332  1.9812
 3758TIP3    H232834   5.357   5.053   0.888 -0.3447 -0.4383  0.1491
 3759TIP3   OH232835   3.927   5.002   2.207 -0.0241 -0.1676  0.0739
 3759TIP3    H132836   3.865   5.063   2.247  0.3920  0.0823  0.3471
 3759TIP3    H232837   4.004   5.056   2.189 -0.4665 -0.0840 -1.7894
 3760TIP3   OH232838   0.323   2.265   0.371  0.2453 -0.6869  0.1169
 3760TIP3    H132839   0.341   2.357   0.386  0.0551 -0.6916  0.3899
 3760TIP3    H232840   0.380   2.240   0.298  0.0940 -0.2890 -0.1330
 3761TIP3   OH232841   2.335   4.422   0.670  0.0667 -0.2496 -0.0347
 3761TIP3    H132842   2.381   4.409   0.587 -0.6020 -0.7166 -0.3419
 3761TIP3    H232843   2.371   4.504   0.705  0.0641  0.1640 -0.9824
 3762TIP3   OH232844   1.097   5.897   1.519  0.1904 -0.6528 -0.3487
 3762TIP3    H132845   1.155   5.926   1.448  0.5066 -0.3691  0.0206
 3762TIP3    H232846   1.019   5.952   1.509 -0.1288 -1.2086 -1.0011
 3763TIP3   OH232847   3.489   6.317   0.658 -0.1780  0.0425 -0.7359
 3763TIP3    H132848   3.431   6.307   0.733 -1.2036  0.6073 -1.4288
 3763TIP3    H232849   3.577   6.311   0.694 -0.6615  0.0623  0.4673
 3764TIP3   OH232850   3.772   0.563   0.894  0.3230  0.3072  0.0994
 3764TIP3    H132851   3.724   0.646   0.890 -0.3077 -0.0529  0.1850
 3764TIP3    H232852   3.708   0.496   0.871  0.7938 -0.1802  0.1682
 3765TIP3   OH232853   6.297   0.306   2.111 -0.0783 -0.3200  0.2039
 3765TIP3    H132854   6.208   0.332   2.088  0.5720  1.0828 -0.9238
 3765TIP3    H232855   6.338   0.387   2.142  1.3349 -0.5039 -1.0755
 3766TIP3   OH232856   1.533   4.780   1.086  0.0438  0.4418  0.1359
 3766TIP3    H132857   1.541   4.839   1.161 -2.1740 -1.2511  1.8410
 3766TIP3    H232858   1.470   4.824   1.028  1.4492  1.5558 -0.6204
 3767TIP3   OH232859   2.405   2.718   1.444 -0.5815 -0.5715 -0.6806
 3767TIP3    H132860   2.373   2.717   1.535 -1.3156 -2.4691 -0.9093
 3767TIP3    H232861   2.402   2.811   1.419 -0.3365 -0.0017  1.2245
 3768TIP3   OH232862   0.684   4.886   8.802  0.0192  0.0609 -0.0034
 3768TIP3    H132863   0.623   4.960   8.792  0.2983  0.4684  1.1969
 3768TIP3    H232864   0.763   4.915   8.756 -0.3814 -0.1330 -0.8476
 3769TIP3   OH232865   5.868   2.653   2.138  0.1563 -0.1009 -0.4125
 3769TIP3    H132866   5.832   2.710   2.069  0.6922  0.3619 -0.3194
 3769TIP3    H232867   5.851   2.700   2.219  0.9054  0.1020 -0.3628
 3770TIP3   OH232868   3.950   1.453   7.791  0.0926  0.7964 -0.5589
 3770TIP3    H132869   3.938   1.368   7.834  0.6298  0.8263 -0.3350
 3770TIP3    H232870   3.861   1.487   7.780 -0.0698  0.7543  0.4678
 3771TIP3   OH232871   6.381   1.587   0.945  0.2164  0.3798  0.1131
 3771TIP3    H132872   6.315   1.518   0.942  0.9895 -0.4066  0.6884
 3771TIP3    H232873   6.356   1.648   0.875 -0.5082 -0.4477 -0.3620
 3772TIP3   OH232874   2.102   1.082   0.220 -0.2167  0.0123 -0.0032
 3772TIP3    H132875   2.197   1.070   0.221 -0.3754 -1.4134  1.0524
 3772TIP3    H232876   2.078   1.089   0.313 -1.0454  1.4362 -0.2874
 3773TIP3   OH232877   1.020   3.630   2.705 -0.1743 -0.1332 -0.2746
 3773TIP3    H132878   1.014   3.548   2.754 -1.5679  0.1081  0.0038
 3773TIP3    H232879   0.931   3.666   2.707  0.0197  0.5369 -1.8724
 3774TIP3   OH232880   2.355   1.196   0.728 -0.3892 -0.1107 -0.0924
 3774TIP3    H132881   2.427   1.251   0.694  0.4660 -0.3933  1.1962
 3774TIP3    H232882   2.291   1.259   0.760  0.1311  0.1629  0.4434
 3775TIP3   OH232883   0.960   2.015   2.045 -0.7820  0.6375 -0.5819
 3775TIP3    H132884   0.941   1.923   2.027 -1.0576  0.3834  0.8703
 3775TIP3    H232885   0.898   2.039   2.113  0.8120  1.2134  0.7392
 3776TIP3   OH232886   3.325   5.253   0.205 -0.0204  0.3784  0.0552
 3776TIP3    H132887   3.406   5.252   0.255 -0.3947  0.3602  0.6726
 3776TIP3    H232888   3.347   5.209   0.123  0.8779  1.3672 -0.2519
 3777TIP3   OH232889   0.034   1.917   0.130  0.1401  0.7826 -0.4705
 3777TIP3    H132890   0.059   1.923   0.038  2.0835 -0.0397 -0.0464
 3777TIP3    H232891  -0.049   1.965   0.136 -1.1079 -0.8459 -3.0261
 3778TIP3   OH232892   4.376   1.945   0.569  0.1936  0.1533  0.5651
 3778TIP3    H132893   4.337   1.893   0.639 -2.3959 -0.1656 -1.0036
 3778TIP3    H232894   4.440   1.887   0.528 -0.5058 -0.7639  0.7481
 3779TIP3   OH232895   3.921   3.113   0.439  0.3706 -0.4489  0.0560
 3779TIP3    H132896   3.837   3.152   0.467  0.0199 -1.2634  0.1500
 3779TIP3    H232897   3.937   3.151   0.353  0.2313  0.2070  0.3101
 3780TIP3   OH232898   5.620   6.671   8.639  0.1794  0.3975 -0.0903
 3780TIP3    H132899   5.573   6.690   8.558  0.7510  0.3520 -0.4392
 3780TIP3    H232900   5.554   6.636   8.698  0.2420 -2.4314 -1.5300
 3781TIP3   OH232901   1.207   0.145   0.023  0.3925 -0.5792 -0.1364
 3781TIP3    H132902   1.146   0.186   0.084  0.4970  0.7541 -0.8845
 3781TIP3    H232903   1.276   0.109   0.078  0.8648  1.2274  0.5254
 3782TIP3   OH232904   1.203   5.623   2.851  0.7135 -0.0982  0.5083
 3782TIP3    H132905   1.122   5.590   2.890 -0.4309  1.3333 -0.5699
 3782TIP3    H232906   1.215   5.570   2.772  0.2443  0.3794  0.1112
 3783TIP3   OH232907   3.537   6.248   0.158  0.5360  0.2286  0.0445
 3783TIP3    H132908   3.579   6.225   0.075  1.9758 -0.5633  0.9649
 3783TIP3    H232909   3.563   6.339   0.173  2.6819 -0.4734  0.9821
 3784TIP3   OH232910   5.823   2.211   0.928 -0.0606  0.5159 -0.8100
 3784TIP3    H132911   5.885   2.182   0.995  1.2895 -0.1172 -2.2843
 3784TIP3    H232912   5.834   2.306   0.925 -1.1082  0.7317  0.7510
 3785TIP3   OH232913   2.897   0.951   8.401 -0.0614  0.2511  0.4387
 3785TIP3    H132914   2.954   1.025   8.382 -1.1000  0.9071 -0.1792
 3785TIP3    H232915   2.850   0.976   8.481 -0.3144  0.2098  0.3047
 3786TIP3   OH232916   2.397   0.350   0.700  0.3041  0.1479 -0.3707
 3786TIP3    H132917   2.339   0.419   0.667 -0.9767 -0.7316 -0.0463
 3786TIP3    H232918   2.463   0.397   0.751 -0.9835  1.0977  0.5017
 3787TIP3   OH232919   0.918   5.250   0.254 -0.2153  0.0314  0.4032
 3787TIP3    H132920   0.916   5.336   0.213  2.4713  1.5403  3.0176
 3787TIP3    H232921   0.977   5.199   0.199  0.4247  0.8225  0.3315
 3788TIP3   OH232922   4.173   4.567   1.120 -0.5675 -0.0824 -0.1270
 3788TIP3    H132923   4.179   4.487   1.068 -0.6121 -0.6380  0.7043
 3788TIP3    H232924   4.086   4.562   1.160 -0.1272 -0.1951  0.8398
 3789TIP3   OH232925   2.988   4.336   1.716  0.0081  0.0778 -0.8085
 3789TIP3    H132926   3.038   4.268   1.671  0.3970  0.8510 -1.5682
 3789TIP3    H232927   3.033   4.348   1.799 -0.2088 -0.7640 -0.5619
 3790TIP3   OH232928   2.238   4.931   2.367  0.2296  0.3519  0.0541
 3790TIP3    H132929   2.309   4.872   2.346 -0.0971 -0.5412  1.2919
 3790TIP3    H232930   2.272   4.986   2.438  0.1145  0.7957 -0.2306
 3791TIP3   OH232931   5.684   2.803   7.356  0.0515 -0.2140 -0.0068
 3791TIP3    H132932   5.597   2.807   7.396 -0.4260  0.0531 -1.0318
 3791TIP3    H232933   5.685   2.877   7.294  0.0794 -1.6557 -1.7999
 3792TIP3   OH232934   2.071   4.177   2.022  0.3253 -0.2902 -0.0955
 3792TIP3    H132935   2.107   4.110   2.081  0.2695 -0.1535  0.0940
 3792TIP3    H232936   1.981   4.149   2.006  0.1858 -0.0686  0.2766
 3793TIP3   OH232937   5.514   0.514   0.726 -0.4365 -0.0327  0.2038
 3793TIP3    H132938   5.467   0.571   0.665 -0.9946 -0.9898 -0.2893
 3793TIP3    H232939   5.601   0.505   0.687 -0.5759 -0.0934 -0.0978
 3794TIP3   OH232940   5.510   4.642   7.074  0.6903  0.0670  0.3655
 3794TIP3    H132941   5.604   4.624   7.072  0.4775 -1.4292  1.7636
 3794TIP3    H232942   5.483   4.641   6.982  1.6326 -1.9575  0.0752
 3795TIP3   OH232943   0.351   4.470   8.168  0.1713  0.0420 -0.2650
 3795TIP3    H132944   0.401   4.473   8.250  0.1490  0.9943 -0.2741
 3795TIP3    H232945   0.304   4.387   8.172  0.7929 -0.2937  0.3187
 3796TIP3   OH232946   0.104   4.583   8.396  0.8792  0.0741 -0.0994
 3796TIP3    H132947   0.097   4.634   8.315 -1.3670  0.5646  0.3261
 3796TIP3    H232948   0.084   4.493   8.369  0.0511  0.2501 -0.0931
 3797TIP3   OH232949   2.189   1.508   7.403 -0.4740 -0.0959  0.0058
 3797TIP3    H132950   2.260   1.456   7.366  0.7251 -0.2068  2.2873
 3797TIP3    H232951   2.119   1.503   7.338  0.4600 -2.5811 -0.9203
 3798TIP3   OH232952   5.453   5.435   6.708 -0.4894 -0.3416 -0.0692
 3798TIP3    H132953   5.485   5.505   6.766  0.8799  0.1712 -1.3762
 3798TIP3    H232954   5.362   5.457   6.692 -0.4130  0.4572  0.5260
 3799TIP3   OH232955   3.540   6.431   1.636  0.0363  0.2720 -1.0604
 3799TIP3    H132956   3.601   6.431   1.562 -0.6189 -0.7068 -1.6307
 3799TIP3    H232957   3.576   6.495   1.697  1.4286 -0.0220 -1.5361
 3800TIP3   OH232958   2.670   3.643   8.291 -0.2562 -0.3081  0.4198
 3800TIP3    H132959   2.657   3.658   8.385 -2.2375 -4.0794  0.9741
 3800TIP3    H232960   2.596   3.687   8.250 -0.7177 -0.5837  0.9306
 3801TIP3   OH232961   5.119   3.508   0.951 -0.0469 -0.6075 -0.1388
 3801TIP3    H132962   5.096   3.422   0.916  0.1709 -2.0959  3.0338
 3801TIP3    H232963   5.115   3.497   1.046  1.8333  2.3976  0.4181
 3802TIP3   OH232964   1.117   1.491   0.692  0.3412 -0.8137 -0.1752
 3802TIP3    H132965   1.189   1.455   0.742  1.1987  0.3517 -0.5207
 3802TIP3    H232966   1.050   1.513   0.757  0.4792 -1.4745  0.1932
 3803TIP3   OH232967   6.385   2.747   8.129  0.5183 -0.2560 -0.1396
 3803TIP3    H132968   6.469   2.764   8.171  1.3662 -1.3965 -1.2729
 3803TIP3    H232969   6.386   2.801   8.050  1.2392 -1.9208 -1.3506
 3804TIP3   OH232970   4.568   1.539   2.914  0.3478 -0.1033  0.5364
 3804TIP3    H132971   4.581   1.565   3.006  2.0038 -0.1372  0.3409
 3804TIP3    H232972   4.641   1.579   2.868 -0.9979  0.7362 -0.9651
 3805TIP3   OH232973   6.455   5.519   1.188  0.2612 -0.2100 -0.8261
 3805TIP3    H132974   6.538   5.562   1.210 -1.5111  3.2657 -0.1133
 3805TIP3    H232975   6.466   5.428   1.215  3.5364  0.3043 -0.0495
 3806TIP3   OH232976   5.764   3.382   0.587 -0.0819  0.0864  0.6121
 3806TIP3    H132977   5.820   3.390   0.510 -1.5377  0.6835 -0.4367
 3806TIP3    H232978   5.765   3.469   0.628  0.6091 -0.2023  1.2381
 3807TIP3   OH232979   2.435   2.125   2.610 -0.4275 -0.4426 -0.5082
 3807TIP3    H132980   2.393   2.171   2.538  1.1501  0.6470 -0.7678
 3807TIP3    H232981   2.457   2.039   2.574 -1.9889 -0.8843 -0.4899
 3808TIP3   OH232982   3.320   2.856   7.463  0.7986  0.5594 -0.2278
 3808TIP3    H132983   3.326   2.773   7.510  1.5959  1.0846  0.6318
 3808TIP3    H232984   3.335   2.833   7.372 -0.4948 -0.4411 -0.2209
 3809TIP3   OH232985   5.286   3.574   7.378 -0.5293 -0.4209 -0.0014
 3809TIP3    H132986   5.240   3.581   7.294 -1.8573 -0.9854  0.6439
 3809TIP3    H232987   5.362   3.631   7.369 -0.8377 -0.2025 -1.4613
 3810TIP3   OH232988   5.004   3.425   0.452 -0.4692 -1.0448  0.2610
 3810TIP3    H132989   4.934   3.383   0.502  0.1379 -0.7405  1.4075
 3810TIP3    H232990   4.977   3.516   0.444  0.1530 -0.7510  1.3943
 3811TIP3   OH232991   5.424   0.525   8.527 -0.0654  0.4759  0.0255
 3811TIP3    H132992   5.440   0.444   8.575 -1.3527  0.1090 -0.1280
 3811TIP3    H232993   5.395   0.587   8.594  0.1068  0.5639  0.0185
 3812TIP3   OH232994   6.356   0.581   0.985 -0.6664 -0.3715 -0.0261
 3812TIP3    H132995   6.428   0.633   0.949 -0.4006  0.4804  1.6150
 3812TIP3    H232996   6.380   0.566   1.076 -1.6851 -1.7229  0.0544
 3813TIP3   OH232997   5.130   3.846   0.360 -0.5906  0.3718  0.0157
 3813TIP3    H132998   5.094   3.784   0.423  0.1387  1.8744  2.0348
 3813TIP3    H232999   5.225   3.839   0.371 -0.3779 -0.1168 -1.7751
 3814TIP3   OH233000   6.681   6.672   8.130 -0.4994 -0.5298 -0.2257
 3814TIP3    H133001   6.620   6.713   8.190  1.3433  2.1452 -0.0238
 3814TIP3    H233002   6.761   6.661   8.181  0.4452 -0.1603 -1.5615
 3815TIP3   OH233003   1.156   5.452   1.870  0.0200  0.0174 -0.5435
 3815TIP3    H133004   1.071   5.488   1.892 -1.4969 -2.9618 -0.9820
 3815TIP3    H233005   1.202   5.445   1.954 -1.7577 -1.8773  0.3733
 3816TIP3   OH233006   3.159   2.529   8.765  0.2505  0.2152 -0.2466
 3816TIP3    H133007   3.127   2.570   8.845  0.9928  0.1292  0.0981
 3816TIP3    H233008   3.154   2.598   8.698  3.3722  1.5659  0.7447
 3817TIP3   OH233009   5.658   1.771   8.371  0.4415 -0.1921  0.2068
 3817TIP3    H133010   5.726   1.727   8.321 -0.2905  1.1949 -2.1845
 3817TIP3    H233011   5.577   1.724   8.349  0.0593  0.6295 -0.1921
 3818TIP3   OH233012   0.865   2.014   8.667 -0.0838 -0.5012  0.2147
 3818TIP3    H133013   0.905   2.062   8.594 -1.4892 -1.5731 -1.3585
 3818TIP3    H233014   0.892   2.061   8.745  1.5323  0.6879 -0.9863
 3819TIP3   OH233015   1.212   2.919   2.032  0.1162  0.0563 -0.4023
 3819TIP3    H133016   1.242   2.919   1.942 -0.5014 -1.7700 -0.6498
 3819TIP3    H233017   1.162   3.000   2.041  1.1511  0.8324 -1.3245
 3820TIP3   OH233018   5.569   4.516   1.054  0.2983 -0.3887  0.5664
 3820TIP3    H133019   5.511   4.456   1.101 -2.3100  1.3959 -0.1519
 3820TIP3    H233020   5.584   4.474   0.969 -1.2565 -0.2334  0.1821
 3821TIP3   OH233021   3.461   1.276   0.463 -0.2371  0.0626  0.7608
 3821TIP3    H133022   3.414   1.229   0.533 -0.2194 -1.2367 -0.0735
 3821TIP3    H233023   3.524   1.212   0.430 -0.7260  0.4203 -0.9172
 3822TIP3   OH233024   3.647   4.650   1.838  0.3163 -0.3872  0.4144
 3822TIP3    H133025   3.566   4.599   1.849 -0.4068  0.5826 -0.1556
 3822TIP3    H233026   3.624   4.738   1.869  1.7112 -0.5212  1.9493
 3823TIP3   OH233027   6.175   1.393   0.930  0.3791 -0.1139  0.2202
 3823TIP3    H133028   6.237   1.350   0.871 -0.1741 -0.1420 -0.3576
 3823TIP3    H233029   6.095   1.340   0.923 -0.3515  1.0478 -0.5892
 3824TIP3   OH233030   4.086   4.840   7.708  0.1441  0.8193  0.2899
 3824TIP3    H133031   4.080   4.935   7.698  1.4056  1.0643  1.6625
 3824TIP3    H233032   4.107   4.826   7.800  0.3289 -0.7896  0.0367
 3825TIP3   OH233033   0.523   4.014   0.423  0.1466 -0.3548  0.1393
 3825TIP3    H133034   0.449   4.021   0.484  0.5990 -0.4363  0.7083
 3825TIP3    H233035   0.501   3.941   0.366  0.7957 -1.8606  1.7350
 3826TIP3   OH233036   0.443   5.686   8.706  0.4309 -0.4402 -0.2409
 3826TIP3    H133037   0.521   5.736   8.729  0.2466 -1.0076  1.7675
 3826TIP3    H233038   0.424   5.712   8.616  1.6942  1.3019 -0.0547
 3827TIP3   OH233039   5.072   3.939   8.664 -0.5751  0.0023  0.1651
 3827TIP3    H133040   5.055   3.859   8.614 -2.8763  0.4400  0.1105
 3827TIP3    H233041   5.017   3.930   8.742  0.9780  0.4892  1.3670
 3828TIP3   OH233042   2.881   2.260   7.612 -0.1833  0.4654  0.0710
 3828TIP3    H133043   2.801   2.269   7.560 -1.8010  0.3304  2.3564
 3828TIP3    H233044   2.924   2.182   7.577 -1.2523  0.3038 -0.9388
 3829TIP3   OH233045   5.154   3.243   1.611  0.1470  0.0123 -0.2419
 3829TIP3    H133046   5.089   3.249   1.541  0.5630 -0.8728 -0.7219
 3829TIP3    H233047   5.157   3.331   1.649 -1.2969  0.0728 -0.2260
 3830TIP3   OH233048   1.913   3.794   8.457 -0.2421 -0.5807  0.4081
 3830TIP3    H133049   1.868   3.856   8.513  0.6352  1.2948 -0.8665
 3830TIP3    H233050   2.006   3.811   8.472  0.0149 -1.1859 -0.4034
 3831TIP3   OH233051   4.104   5.838   1.110 -0.5938 -0.2765 -0.4954
 3831TIP3    H133052   4.117   5.743   1.117  1.1339  0.0469  1.5920
 3831TIP3    H233053   4.191   5.872   1.090 -0.8199  1.0071  0.6296
 3832TIP3   OH233054   4.022   0.294   0.719  0.4213  0.5470 -0.4708
 3832TIP3    H133055   4.094   0.240   0.687  1.0045  0.1885  1.3430
 3832TIP3    H233056   4.055   0.384   0.711  0.6995  0.4420 -0.5396
 3833TIP3   OH233057   3.163   4.311   8.017 -0.6404 -0.4123 -0.2040
 3833TIP3    H133058   3.223   4.303   8.090  0.2414  2.8625 -0.3769
 3833TIP3    H233059   3.206   4.373   7.958 -3.4842  0.9170 -1.0641
 3834TIP3   OH233060   1.172   0.668   1.153 -0.6165 -0.2417 -0.5836
 3834TIP3    H133061   1.188   0.762   1.151  0.9825 -0.4862 -1.0477
 3834TIP3    H233062   1.225   0.633   1.081  0.1856 -1.6604  0.6243
 3835TIP3   OH233063   4.079   2.942   0.138  0.0328 -0.7736  0.9020
 3835TIP3    H133064   4.102   2.901   0.055  2.3243  0.1241  1.0116
 3835TIP3    H233065   4.146   2.912   0.199 -1.3627 -1.0723  2.3554
 3836TIP3   OH233066   6.255   4.799   1.733  0.1066 -0.3624 -0.6928
 3836TIP3    H133067   6.313   4.866   1.697 -2.5209  2.2379 -0.5198
 3836TIP3    H233068   6.194   4.780   1.662 -0.5715 -0.8457 -0.0017
 3837TIP3   OH233069   4.041   3.370   0.796 -0.4854  0.1292  0.3586
 3837TIP3    H133070   4.020   3.458   0.827  0.3284  0.4541  0.0085
 3837TIP3    H233071   3.970   3.315   0.830 -0.6219  0.7988  1.1783
 3838TIP3   OH233072   3.494   3.864   0.003 -0.3221 -0.4897 -0.5661
 3838TIP3    H133073   3.583   3.833  -0.013 -0.2274  0.1657 -1.3881
 3838TIP3    H233074   3.462   3.892  -0.083 -0.6394  1.0364  0.0172
 3839TIP3   OH233075   1.165   2.640   0.991 -0.1000 -0.2940  0.3575
 3839TIP3    H133076   1.129   2.720   0.953  1.1914  0.4930  0.7500
 3839TIP3    H233077   1.190   2.587   0.916 -1.4081 -0.5709  0.0872
 3840TIP3   OH233078   3.714   3.956   1.082 -0.3681 -0.2729 -0.1366
 3840TIP3    H133079   3.695   4.041   1.044  0.3091 -0.1579 -0.2288
 3840TIP3    H233080   3.738   3.901   1.007  0.1684 -0.2708  0.0316
 3841TIP3   OH233081   4.003   1.360   1.653  0.7660 -0.1682 -0.0149
 3841TIP3    H133082   3.975   1.269   1.642  0.1269  0.0261 -0.0157
 3841TIP3    H233083   3.978   1.382   1.743  2.3963 -0.4998  0.5645
 3842TIP3   OH233084   2.808   1.226   8.604  0.2447 -0.0843 -0.1798
 3842TIP3    H133085   2.830   1.309   8.561 -0.2625  0.2409  0.1765
 3842TIP3    H233086   2.860   1.226   8.684  0.1320 -0.0335 -0.1052
 3843TIP3   OH233087   0.431   3.540   1.691  0.3807  0.1334  0.0385
 3843TIP3    H133088   0.418   3.609   1.756 -0.3867  1.4670 -1.4336
 3843TIP3    H233089   0.392   3.462   1.730 -1.3655  1.2332  0.6288
 3844TIP3   OH233090   1.619   1.641   1.042  0.1097  0.4668  0.3788
 3844TIP3    H133091   1.560   1.596   1.102  0.0357  1.9704  1.4796
 3844TIP3    H233092   1.669   1.570   1.000 -1.5931 -0.7719  0.3050
 3845TIP3   OH233093   3.007   4.209   6.739  0.2489  0.3836 -0.0156
 3845TIP3    H133094   2.929   4.263   6.731  0.2232  0.4646  0.7061
 3845TIP3    H233095   3.076   4.260   6.697 -0.1660  0.1016 -1.0867
 3846TIP3   OH233096   3.890   4.357   1.513 -0.7975  0.0517 -0.0478
 3846TIP3    H133097   3.979   4.371   1.547  0.1509 -1.4919 -1.6719
 3846TIP3    H233098   3.846   4.306   1.581  0.0940 -0.4874  0.1455
 3847TIP3   OH233099   4.917   6.526   8.021  0.1728 -0.2070  0.3430
 3847TIP3    H133100   4.939   6.454   8.079 -0.1897 -0.0198  0.7288
 3847TIP3    H233101   4.964   6.508   7.940  0.1112 -0.8536  0.4467
 3848TIP3   OH233102   5.863   4.859   1.768  0.4196  0.1918  0.2064
 3848TIP3    H133103   5.856   4.824   1.857 -0.6102 -1.8886 -0.6090
 3848TIP3    H233104   5.925   4.801   1.724 -2.8434 -2.1930 -1.7572
 3849TIP3   OH233105   3.006   2.970   0.969  0.2614  0.0586 -0.2074
 3849TIP3    H133106   2.987   2.894   1.024 -1.1322  1.5937  1.5263
 3849TIP3    H233107   2.933   2.975   0.908  0.8193 -0.4969 -0.9399
 3850TIP3   OH233108   4.569   0.406   6.994 -0.2180  0.3320  0.1193
 3850TIP3    H133109   4.537   0.385   7.082 -0.7017  0.3246 -0.0563
 3850TIP3    H233110   4.490   0.420   6.943  0.0518  2.6830  0.2485
 3851TIP3   OH233111   6.672   2.450   6.795  0.3012  0.5860 -0.2556
 3851TIP3    H133112   6.626   2.534   6.785  0.8075  1.0667  1.1664
 3851TIP3    H233113   6.728   2.462   6.872  2.9141  0.0394 -1.9454
 3852TIP3   OH233114   3.094   0.153   0.895 -0.0518 -0.8646  0.3210
 3852TIP3    H133115   2.998   0.161   0.899 -0.0267  0.8002 -1.1273
 3852TIP3    H233116   3.124   0.184   0.981 -0.8190 -2.6716  1.2967
 3853TIP3   OH233117   2.733   6.225   0.337 -0.2431  0.1183 -0.0670
 3853TIP3    H133118   2.683   6.145   0.318 -2.0666  0.5824  2.3040
 3853TIP3    H233119   2.806   6.195   0.390  0.1725 -0.1686 -0.7799
 3854TIP3   OH233120   3.595   4.641   7.105 -0.6544  0.0706 -0.4967
 3854TIP3    H133121   3.562   4.720   7.062  0.2290  1.7161  1.6824
 3854TIP3    H233122   3.690   4.652   7.104 -0.4557 -1.5345 -1.1302
 3855TIP3   OH233123   0.565   6.371   1.661 -0.4411  0.1924  0.2735
 3855TIP3    H133124   0.535   6.280   1.658  2.2343 -0.7681 -2.1869
 3855TIP3    H233125   0.487   6.422   1.681 -2.5507 -2.4522 -0.6579
 3856TIP3   OH233126   1.355   6.713   8.160  0.3640  0.1081  0.5439
 3856TIP3    H133127   1.302   6.775   8.111 -2.2878  0.3325  3.4047
 3856TIP3    H233128   1.333   6.627   8.123 -0.7346  0.3628  0.5792
 3857TIP3   OH233129   0.863   4.615   6.952 -0.1365  0.1319 -0.1067
 3857TIP3    H133130   0.860   4.616   7.048  0.0875 -0.4944 -0.0877
 3857TIP3    H233131   0.950   4.648   6.930 -0.2045  0.3189 -0.0963
 3858TIP3   OH233132   0.010   5.960   0.181  0.6278 -0.3998 -0.4899
 3858TIP3    H133133   0.088   5.911   0.157  1.0025  0.9655 -2.2929
 3858TIP3    H233134   0.043   6.040   0.222  0.1097 -0.4374  0.0212
 3859TIP3   OH233135   3.441   5.921   7.884  0.5033 -0.0445  1.1545
 3859TIP3    H133136   3.443   5.852   7.950  1.9777 -0.5889  0.5922
 3859TIP3    H233137   3.368   5.977   7.909 -0.1122 -1.2666  2.1784
 3860TIP3   OH233138   1.799   1.994   1.886 -0.2646  0.1986  0.3796
 3860TIP3    H133139   1.874   1.955   1.841  0.2234 -0.6446  1.8650
 3860TIP3    H233140   1.837   2.050   1.954 -0.9803  0.6183  0.4536
 3861TIP3   OH233141   5.656   2.007   7.973  0.2024 -0.4910 -0.2580
 3861TIP3    H133142   5.706   2.061   7.913 -0.2618 -1.5480 -1.6456
 3861TIP3    H233143   5.716   1.990   8.045  1.5971 -1.0638 -1.5065
 3862TIP3   OH233144   4.245   3.687   2.457 -0.0973  0.2326  0.3923
 3862TIP3    H133145   4.333   3.725   2.461  0.4119 -0.5078 -2.0284
 3862TIP3    H233146   4.245   3.620   2.525  2.2551 -1.6200 -1.2404
 3863TIP3   OH233147   6.267   0.234   0.654 -0.4970  1.2256 -0.2106
 3863TIP3    H133148   6.202   0.303   0.669 -0.2376  1.5156 -0.4036
 3863TIP3    H233149   6.333   0.249   0.723 -1.6788 -0.3698  1.3385
 3864TIP3   OH233150   4.957   4.020   0.208 -0.4174  0.4896  0.2185
 3864TIP3    H133151   4.995   3.961   0.274 -2.2000 -0.4666  0.4566
 3864TIP3    H233152   4.918   3.962   0.143 -1.8432  1.3927  0.2256
 3865TIP3   OH233153   2.449   3.746   1.769 -0.6523 -0.7905  0.1312
 3865TIP3    H133154   2.439   3.659   1.806 -3.1748 -0.5745  0.0849
 3865TIP3    H233155   2.385   3.800   1.814  0.1115  0.8191 -0.5916
 3866TIP3   OH233156   4.117   3.506   7.491  0.4402  0.5351 -0.0310
 3866TIP3    H133157   4.112   3.602   7.483  0.8199  0.6569  1.0783
 3866TIP3    H233158   4.153   3.478   7.406 -0.7484  1.2590 -0.8093
 3867TIP3   OH233159   2.025   3.200   7.246  0.2221  0.6388  0.8939
 3867TIP3    H133160   2.074   3.228   7.322  0.3948  2.9119  0.0258
 3867TIP3    H233161   2.091   3.173   7.182  0.2112  1.1389  0.6692
 3868TIP3   OH233162   5.144   1.748   2.146  0.4785  0.4518  0.1462
 3868TIP3    H133163   5.190   1.757   2.063 -0.1503 -3.7589 -0.8855
 3868TIP3    H233164   5.052   1.765   2.124  0.0385 -2.3653 -0.6147
 3869TIP3   OH233165   4.451   0.849   1.696  0.2322 -0.1184 -0.6213
 3869TIP3    H133166   4.425   0.823   1.608  1.9173  0.6461 -1.3767
 3869TIP3    H233167   4.437   0.944   1.698  1.5051  0.0781 -0.5495
 3870TIP3   OH233168   0.214   1.625   2.516 -0.7085 -0.8577 -0.1204
 3870TIP3    H133169   0.200   1.611   2.610  0.1826 -0.0075  0.1568
 3870TIP3    H233170   0.309   1.621   2.505 -0.5953  1.5246 -0.5318
 3871TIP3   OH233171   4.579   1.819   0.464 -0.0321  0.1086 -0.0930
 3871TIP3    H133172   4.600   1.788   0.376  1.4656  0.0299  0.2705
 3871TIP3    H233173   4.569   1.740   0.517 -3.5673  0.0176 -0.6767
 3872TIP3   OH233174   0.879   5.592   8.131 -0.1457  0.0725  0.2461
 3872TIP3    H133175   0.795   5.555   8.155  0.1143 -0.4736  0.3285
 3872TIP3    H233176   0.942   5.550   8.189  0.2014  0.3862  0.1070
 3873TIP3   OH233177   3.726   5.377   7.915  0.2284  0.4440 -0.2804
 3873TIP3    H133178   3.733   5.286   7.944 -1.7557  0.5509  0.6504
 3873TIP3    H233179   3.687   5.371   7.828  1.1880  0.3846 -0.7254
 3874TIP3   OH233180   0.086   4.428   7.090 -0.1495  0.2920 -0.0343
 3874TIP3    H133181   0.012   4.367   7.100 -0.0468  0.5357  3.1578
 3874TIP3    H233182   0.160   4.373   7.067 -0.4110 -0.5700  1.1527
 3875TIP3   OH233183   3.942   3.806   1.960 -0.1939  0.1104 -0.1956
 3875TIP3    H133184   3.889   3.786   2.037  0.1226 -0.0599 -0.0217
 3875TIP3    H233185   3.915   3.741   1.895  0.8518 -0.9296  0.3765
 3876TIP3   OH233186   4.471   1.240   8.291  0.2639 -0.8561 -0.3143
 3876TIP3    H133187   4.414   1.165   8.310 -1.3952  0.2514 -0.6199
 3876TIP3    H233188   4.427   1.284   8.218  0.7971  0.8135  0.3366
 3877TIP3   OH233189   5.968   0.343   1.305  0.2753  0.0306 -0.6685
 3877TIP3    H133190   6.012   0.352   1.220  0.3209  0.2641 -0.6208
 3877TIP3    H233191   6.038   0.349   1.369  0.1788  0.3672 -0.5936
 3878TIP3   OH233192   2.164   2.618   0.159 -0.0363  0.1484  0.7254
 3878TIP3    H133193   2.216   2.685   0.204  0.6949  0.6006 -0.7242
 3878TIP3    H233194   2.225   2.576   0.098 -0.8230 -0.9009  0.6161
 3879TIP3   OH233195   6.794   3.141   8.399  0.8515 -0.0543 -0.0025
 3879TIP3    H133196   6.859   3.139   8.329  2.2429 -2.0835  1.2410
 3879TIP3    H233197   6.842   3.172   8.476 -0.5214  1.6252  0.2472
 3880TIP3   OH233198   2.075   1.645   2.339 -0.5136 -0.6822  0.1161
 3880TIP3    H133199   1.980   1.640   2.330 -1.2163  2.2814  3.5344
 3880TIP3    H233200   2.101   1.557   2.368 -2.2318 -1.4262 -0.4859
 3881TIP3   OH233201   6.266   5.074   0.196 -0.2983 -0.0158 -0.1367
 3881TIP3    H133202   6.188   5.032   0.159  0.2193  0.0618 -1.3717
 3881TIP3    H233203   6.283   5.148   0.138  0.6178  0.0336  0.1837
 3882TIP3   OH233204   1.553   3.888   8.701 -0.2589  0.3719 -0.2097
 3882TIP3    H133205   1.520   3.919   8.785  2.5126  1.7882  0.4615
 3882TIP3    H233206   1.567   3.794   8.714 -1.2051  0.3048  0.4083
 3883TIP3   OH233207   4.906   3.743   1.431 -0.0432  0.6312  0.1873
 3883TIP3    H133208   4.906   3.716   1.523  0.3236  0.8596  0.2594
 3883TIP3    H233209   4.841   3.687   1.389  0.1020  0.2201  0.4985
 3884TIP3   OH233210   0.620   3.318   1.555  0.1195  0.5349  0.2124
 3884TIP3    H133211   0.584   3.405   1.573 -0.2717 -0.0700  2.6646
 3884TIP3    H233212   0.620   3.274   1.639  2.4074 -1.0936 -0.5445
 3885TIP3   OH233213   4.925   0.857   0.751 -0.4149  0.4064  0.0789
 3885TIP3    H133214   4.883   0.941   0.730  1.1030  0.9604 -0.9238
 3885TIP3    H233215   4.879   0.826   0.828 -1.0479  2.1431  0.4520
 3886TIP3   OH233216   6.032   5.071   1.854  0.4402  0.1616 -0.4312
 3886TIP3    H133217   5.973   5.004   1.820  1.3043 -0.6131 -0.4286
 3886TIP3    H233218   6.033   5.139   1.786 -1.6025  0.9291  0.2039
 3887TIP3   OH233219   5.863   2.771   1.547 -0.0089  0.7261  0.0404
 3887TIP3    H133220   5.790   2.806   1.495 -1.0732 -0.7332  0.4654
 3887TIP3    H233221   5.832   2.775   1.638 -0.5080 -1.8401  0.0668
 3888TIP3   OH233222   0.454   4.562   7.066  0.4217 -0.8307  0.0999
 3888TIP3    H133223   0.454   4.488   7.004 -1.3191 -0.0001 -0.9580
 3888TIP3    H233224   0.373   4.609   7.048  0.9249  0.7024  1.5565
 3889TIP3   OH233225   6.229   5.813   0.443 -0.2865 -0.5429  0.4984
 3889TIP3    H133226   6.290   5.742   0.420  0.3757  0.1125  0.2029
 3889TIP3    H233227   6.156   5.802   0.383  0.7627  0.2714 -0.9959
 3890TIP3   OH233228   5.237   4.263   8.813  0.4350 -0.1739  0.0056
 3890TIP3    H133229   5.257   4.304   8.729  1.5152 -0.6985 -0.0046
 3890TIP3    H233230   5.248   4.169   8.798 -0.0894 -0.3236  0.5388
 3891TIP3   OH233231   4.395   2.279   7.972  0.0543  0.1617  0.4366
 3891TIP3    H133232   4.339   2.205   7.994  0.9972 -0.1791  1.7759
 3891TIP3    H233233   4.443   2.250   7.895 -0.2768 -0.2389  0.3764
 3892TIP3   OH233234   0.250   6.003   0.904  0.4479  0.4916  0.2011
 3892TIP3    H133235   0.244   5.934   0.837  0.6932 -0.0057  0.6878
 3892TIP3    H233236   0.274   6.081   0.854  2.3275 -0.2196 -0.1203
 3893TIP3   OH233237   0.123   3.260   0.016  0.7933  0.4562  0.1769
 3893TIP3    H133238   0.120   3.334   0.076 -1.1015 -0.2103  0.9744
 3893TIP3    H233239   0.156   3.187   0.069 -1.5441 -0.3033  0.6763
 3894TIP3   OH233240   0.434   5.113   8.299  0.0103  0.1086  0.0446
 3894TIP3    H133241   0.508   5.174   8.295 -0.5789  0.9222  0.8749
 3894TIP3    H233242   0.473   5.028   8.320  0.6776  0.6192  0.9462
 3895TIP3   OH233243   3.065   2.383   0.637  0.6143 -0.8230  0.3088
 3895TIP3    H133244   3.057   2.369   0.731  0.4434 -1.7855  0.1570
 3895TIP3    H233245   3.160   2.385   0.620  0.7193  1.5689  0.7953
 3896TIP3   OH233246   1.718   3.299   7.771  0.1455 -0.0916  0.2140
 3896TIP3    H133247   1.768   3.251   7.838  0.9691 -0.3387 -0.5654
 3896TIP3    H233248   1.631   3.310   7.810  0.5435 -0.4291  1.2356
 3897TIP3   OH233249   3.135   5.329   7.762 -0.3172 -0.2202  0.1408
 3897TIP3    H133250   3.188   5.261   7.721  0.1869 -0.7013  1.5239
 3897TIP3    H233251   3.125   5.396   7.695  0.8496 -0.7707 -0.6049
 3898TIP3   OH233252   3.067   0.928   2.400 -0.2035 -0.4006  0.3273
 3898TIP3    H133253   3.010   0.853   2.389 -0.0505 -0.3664 -0.7708
 3898TIP3    H233254   3.030   0.975   2.475 -1.6490 -0.3454 -0.3901
 3899TIP3   OH233255   3.401   1.935   1.850  0.2094  0.0423 -0.5524
 3899TIP3    H133256   3.376   1.899   1.765  2.0908  1.1859 -1.6666
 3899TIP3    H233257   3.432   1.860   1.900  0.4503 -0.4471 -1.4251
 3900TIP3   OH233258   2.739   1.645   0.531  0.3469 -0.8475  0.3473
 3900TIP3    H133259   2.825   1.684   0.541 -0.1716  0.0280  1.5497
 3900TIP3    H233260   2.733   1.581   0.602  0.2786 -1.4415 -0.1817
 3901TIP3   OH233261   2.406   5.928   8.666  0.1524  0.0546  0.5272
 3901TIP3    H133262   2.384   5.943   8.758 -0.8745  0.7055  0.1898
 3901TIP3    H233263   2.501   5.943   8.661  0.0057  1.3068  1.2252
 3902TIP3   OH233264   5.753   0.095   0.859 -0.1324  0.1943 -0.0516
 3902TIP3    H133265   5.697   0.080   0.935 -0.1322 -1.4237 -0.3293
 3902TIP3    H233266   5.714   0.043   0.789  1.4198 -0.5935 -0.3908
 3903TIP3   OH233267   4.418   3.682   8.834  0.4577 -0.0786  0.5046
 3903TIP3    H133268   4.439   3.593   8.807 -1.4554 -0.3397 -0.2681
 3903TIP3    H233269   4.337   3.703   8.788 -0.2472  1.3140  2.2704
 3904TIP3   OH233270   5.292   2.587   7.246 -0.0233  0.3480 -0.1669
 3904TIP3    H133271   5.210   2.636   7.254 -0.4049 -0.4969  1.9550
 3904TIP3    H233272   5.271   2.515   7.187 -0.3327  1.0146 -0.8869
 3905TIP3   OH233273   2.944   1.054   2.629  0.3253  0.4027  0.2066
 3905TIP3    H133274   2.906   1.134   2.666 -1.6593  0.5297 -1.8842
 3905TIP3    H233275   2.888   0.983   2.662  0.0529  0.2550 -0.5549
 3906TIP3   OH233276   6.412   2.613   0.397  0.4532  0.1588 -0.5287
 3906TIP3    H133277   6.366   2.674   0.454 -0.6247 -0.8921 -0.2304
 3906TIP3    H233278   6.504   2.624   0.419  0.0254 -1.0522  2.3476
 3907TIP3   OH233279   2.066   0.210   8.303  0.2790 -0.1667  0.1131
 3907TIP3    H133280   1.998   0.277   8.289  0.0528 -0.5912 -0.9972
 3907TIP3    H233281   2.114   0.240   8.380 -0.5531  0.6616  0.3376
 3908TIP3   OH233282   1.898   4.786   1.652 -0.5237 -0.2463  0.4461
 3908TIP3    H133283   1.879   4.692   1.646 -2.0611  0.1423 -2.2746
 3908TIP3    H233284   1.829   4.820   1.708 -1.2761 -0.4416 -0.3491
 3909TIP3   OH233285   2.858   6.689   8.015  0.2898  0.0823 -0.2632
 3909TIP3    H133286   2.858   6.735   7.931  0.9325  0.8100  0.1152
 3909TIP3    H233287   2.784   6.727   8.062 -0.4873 -0.8073 -0.7366
 3910TIP3   OH233288   2.493   1.403   2.384 -0.0453 -0.0797 -0.1530
 3910TIP3    H133289   2.585   1.381   2.368  0.5600  2.4628 -0.7441
 3910TIP3    H233290   2.444   1.346   2.325  1.2337 -0.7412 -0.6127
 3911TIP3   OH233291   3.665   4.609   0.727 -0.2644  0.4328  0.2673
 3911TIP3    H133292   3.705   4.688   0.691  3.9791 -0.3750  2.5019
 3911TIP3    H233293   3.575   4.635   0.748  0.7868  4.5954  0.5362
 3912TIP3   OH233294   3.938   3.938   7.811  0.5961  0.2483 -0.1005
 3912TIP3    H133295   3.866   3.997   7.832  0.4952  0.6531 -1.4788
 3912TIP3    H233296   3.955   3.890   7.892 -1.6180 -0.2722  0.1133
 3913TIP3   OH233297   4.661   5.034   8.414  0.2287 -0.3180  0.7225
 3913TIP3    H133298   4.646   5.095   8.341 -0.2894  0.0541  1.1332
 3913TIP3    H233299   4.685   5.090   8.487  0.3477 -0.6612  0.9461
 3914TIP3   OH233300   2.159   6.003   2.073  0.1834 -0.1157 -0.1505
 3914TIP3    H133301   2.207   6.059   2.134  1.2942 -2.7039  1.5164
 3914TIP3    H233302   2.140   5.924   2.123 -1.8315 -1.0247 -2.2063
 3915TIP3   OH233303   2.250   6.218   8.517  0.4685 -0.7528  0.5614
 3915TIP3    H133304   2.325   6.176   8.475  1.3467 -0.4686  1.7934
 3915TIP3    H233305   2.175   6.164   8.493  1.0402 -0.9848 -0.7734
 3916TIP3   OH233306   2.909   3.341   0.305 -0.6687  0.3595  0.1529
 3916TIP3    H133307   2.840   3.288   0.344  0.1292 -0.7392  0.1127
 3916TIP3    H233308   2.877   3.431   0.311 -1.1953  0.0831  2.0389
 3917TIP3   OH233309   2.015   1.957   0.408  0.3692  0.0025 -0.6008
 3917TIP3    H133310   1.966   2.001   0.477  0.1467  1.2649 -1.5284
 3917TIP3    H233311   2.066   2.027   0.367  3.4912 -1.3228  0.6968
 3918TIP3   OH233312   5.238   5.822   0.733  0.0080  0.0096  0.0565
 3918TIP3    H133313   5.189   5.773   0.799 -1.9382  2.8434  0.8707
 3918TIP3    H233314   5.238   5.765   0.656 -1.5402 -1.5200  1.1176
 3919TIP3   OH233315   5.773   2.925   8.639 -0.1222  0.0746  0.1040
 3919TIP3    H133316   5.685   2.942   8.671  0.1264 -1.1917  1.5780
 3919TIP3    H233317   5.829   2.934   8.717  0.7877 -0.9919 -0.3931
 3920TIP3   OH233318   6.137   4.390   1.086  0.0007 -0.8753  0.2150
 3920TIP3    H133319   6.180   4.441   1.017 -2.6165  1.4370  0.0991
 3920TIP3    H233320   6.190   4.406   1.164  1.8562 -1.8910 -0.7682
 3921TIP3   OH233321   4.291   5.579   8.142 -0.5611 -0.4398  0.1815
 3921TIP3    H133322   4.221   5.610   8.084  1.4939  1.6354 -1.3616
 3921TIP3    H233323   4.348   5.527   8.086  0.9479  0.7893  0.5099
 3922TIP3   OH233324   2.082   6.686   8.484  0.5737  0.1233  0.4364
 3922TIP3    H133325   2.114   6.776   8.476  0.5661  0.2459  1.6064
 3922TIP3    H233326   2.154   6.638   8.525 -0.0951  0.0246  1.5369
 3923TIP3   OH233327   3.071   0.886   0.263 -0.3749  0.4243 -0.1212
 3923TIP3    H133328   3.049   0.916   0.352 -0.9090 -0.1012 -0.0640
 3923TIP3    H233329   3.166   0.883   0.262 -0.3397 -2.0396  1.3312
 3924TIP3   OH233330   0.841   4.211   0.539 -0.0260  0.1646  0.3357
 3924TIP3    H133331   0.851   4.266   0.617 -1.2665 -0.3292  0.8643
 3924TIP3    H233332   0.828   4.123   0.573 -0.1894 -0.1213 -0.4427
 3925TIP3   OH233333   0.182   0.443   1.168  0.1870  0.2922  0.1091
 3925TIP3    H133334   0.251   0.463   1.232 -0.5492 -1.2204  1.4383
 3925TIP3    H233335   0.113   0.402   1.220 -1.0677  0.3517 -1.4535
 3926TIP3   OH233336   6.333   1.793   0.778 -0.5051  0.2387 -0.5288
 3926TIP3    H133337   6.296   1.863   0.832 -0.9601 -1.6198  1.7517
 3926TIP3    H233338   6.420   1.825   0.754 -0.6481  1.5443  0.5625
 3927TIP3   OH233339   3.492   1.011   8.376  0.4032  0.1630 -0.3078
 3927TIP3    H133340   3.501   0.918   8.400 -0.8346  0.0679 -0.1044
 3927TIP3    H233341   3.465   1.009   8.284 -1.6865  0.1782  0.2394
 3928TIP3   OH233342   2.007   0.003   8.838  0.1100 -0.2046  0.2789
 3928TIP3    H133343   1.923   0.008   8.792  1.3371  2.3449 -1.9839
 3928TIP3    H233344   2.057  -0.063   8.789  0.1991 -0.0549  0.1661
 3929TIP3   OH233345   3.057   6.532   2.677  0.7753  0.2647  0.2705
 3929TIP3    H133346   3.116   6.570   2.742 -0.5789  2.3399  0.3626
 3929TIP3    H233347   2.977   6.584   2.684 -1.1514 -2.4868  0.2063
 3930TIP3   OH233348   5.158   3.008   0.145 -0.2754 -0.2401 -0.4971
 3930TIP3    H133349   5.188   2.919   0.162  0.8377  0.4590  1.6788
 3930TIP3    H233350   5.238   3.060   0.146 -1.1280  1.1698  1.4448
 3931TIP3   OH233351   0.705   4.536   1.247 -0.3861 -0.0955  0.7167
 3931TIP3    H133352   0.745   4.449   1.233  1.3215  0.9085 -1.4187
 3931TIP3    H233353   0.723   4.556   1.338 -0.6474 -1.9064  1.2076
 3932TIP3   OH233354   4.261   6.454   0.006  0.8525 -0.2863  0.2940
 3932TIP3    H133355   4.239   6.512   0.079 -2.1342  0.4915 -1.0695
 3932TIP3    H233356   4.218   6.371   0.029  0.6526 -0.3065 -0.1453
 3933TIP3   OH233357   5.060   2.092   8.371 -0.2794  0.4887  0.6507
 3933TIP3    H133358   5.148   2.060   8.391 -0.0132  0.6298 -0.2694
 3933TIP3    H233359   5.049   2.169   8.427  0.6643  1.1937 -0.0982
 3934TIP3   OH233360   4.991   1.803   8.456 -0.3750 -0.0125  0.6803
 3934TIP3    H133361   5.006   1.886   8.412 -0.0879 -0.3021  0.2228
 3934TIP3    H233362   5.078   1.772   8.480 -0.2481 -1.3066 -1.2573
 3935TIP3   OH233363   1.634   2.160   0.802  0.2487 -0.6625 -0.4946
 3935TIP3    H133364   1.661   2.220   0.733 -0.7893  1.2882  0.6757
 3935TIP3    H233365   1.715   2.129   0.841  0.8206 -0.9378 -1.8573
 3936TIP3   OH233366   6.231   3.836   0.281  0.1982 -0.4362 -0.4715
 3936TIP3    H133367   6.142   3.863   0.260 -0.0534 -0.5852  0.3619
 3936TIP3    H233368   6.282   3.859   0.204 -0.6794 -0.9562 -1.2261
 3937TIP3   OH233369   3.449   6.039   0.624  0.2852  0.0716  0.4116
 3937TIP3    H133370   3.490   6.026   0.538  0.5256  0.3408  0.4837
 3937TIP3    H233371   3.459   6.132   0.641  0.9582 -0.1184  1.0924
 3938TIP3   OH233372   3.583   5.010   7.221  0.5901 -0.0699 -0.1670
 3938TIP3    H133373   3.580   4.980   7.130  1.1578  1.8922 -0.9071
 3938TIP3    H233374   3.494   4.997   7.254 -0.5168  1.9430 -2.0402
 3939TIP3   OH233375   6.201   5.719   6.958  0.1084  0.3576 -0.4212
 3939TIP3    H133376   6.204   5.728   6.862  2.7778 -0.9694 -0.5485
 3939TIP3    H233377   6.242   5.799   6.990 -0.9155  0.8673 -0.3481
 3940TIP3   OH233378   2.205   5.050   7.053  0.0410 -0.1292 -0.6000
 3940TIP3    H133379   2.185   5.029   7.144 -2.4016 -1.0717 -1.2766
 3940TIP3    H233380   2.243   5.138   7.057  1.5511 -0.7968  1.4373
 3941TIP3   OH233381   4.969   3.101   1.226 -0.7982 -0.2180 -0.1350
 3941TIP3    H133382   5.043   3.161   1.226 -0.2190 -0.9030 -0.8771
 3941TIP3    H233383   4.914   3.131   1.155 -0.6346 -0.4131 -0.3450
 3942TIP3   OH233384   1.689   4.208   2.159 -0.4258 -0.1093  0.2136
 3942TIP3    H133385   1.659   4.197   2.068  1.6963 -3.4934 -0.2673
 3942TIP3    H233386   1.623   4.163   2.211  0.5594 -2.1621 -0.2117
 3943TIP3   OH233387   4.420   5.336   2.382  0.0890  0.0896  0.4359
 3943TIP3    H133388   4.329   5.326   2.410 -0.2175  0.8292 -0.2405
 3943TIP3    H233389   4.471   5.338   2.463 -0.5983  0.6330  0.8581
 3944TIP3   OH233390   0.422   2.528   8.257  0.1589  0.0811  0.1644
 3944TIP3    H133391   0.375   2.567   8.183  1.8556 -2.5199 -2.4847
 3944TIP3    H233392   0.476   2.599   8.291 -0.9834  1.4637 -0.7864
 3945TIP3   OH233393   2.317   5.068   1.942 -0.0361 -0.1705  0.2997
 3945TIP3    H133394   2.396   5.123   1.940  0.7852 -1.2624 -2.7478
 3945TIP3    H233395   2.257   5.110   1.880 -0.4952 -1.1990  0.0259
 3946TIP3   OH233396   4.673   1.403   1.022  0.6993  0.2912  0.6018
 3946TIP3    H133397   4.739   1.372   1.083  0.8662 -0.0413  0.2578
 3946TIP3    H233398   4.707   1.379   0.936  0.1960  0.2403  0.4123
 3947TIP3   OH233399   6.352   6.249   0.772 -0.8774  0.3111  0.1286
 3947TIP3    H133400   6.337   6.244   0.677 -3.8811  0.3544  0.4938
 3947TIP3    H233401   6.270   6.284   0.806  0.2746  0.6480  2.7524
 3948TIP3   OH233402   2.363   2.254   2.376  0.1088 -0.1957  0.3787
 3948TIP3    H133403   2.311   2.265   2.296 -0.6383 -0.4919  0.8130
 3948TIP3    H233404   2.385   2.343   2.403 -0.3035 -0.0607  0.2713
 3949TIP3   OH233405   1.806   0.423   0.508  0.4092 -0.2536  0.1752
 3949TIP3    H133406   1.852   0.477   0.572 -0.0588  1.1074 -0.5954
 3949TIP3    H233407   1.731   0.388   0.556 -1.1637  2.4779 -0.0734
 3950TIP3   OH233408   1.299   5.489   1.507 -0.0594  0.4434 -0.4065
 3950TIP3    H133409   1.247   5.552   1.557  1.8910  1.5939  0.2737
 3950TIP3    H233410   1.388   5.522   1.513  1.2791 -3.0034  1.0158
 3951TIP3   OH233411   4.341   4.947   1.293 -0.3962 -0.2837  0.1039
 3951TIP3    H133412   4.336   4.895   1.373 -0.7962 -0.0832  0.2110
 3951TIP3    H233413   4.428   4.929   1.258  0.3198  0.6937  1.3141
 3952TIP3   OH233414   5.418   4.720   1.548  0.7244 -0.2671  0.2794
 3952TIP3    H133415   5.478   4.711   1.474  0.3520 -1.2264  0.0848
 3952TIP3    H233416   5.371   4.801   1.531  1.2421 -0.0427 -0.0995
 3953TIP3   OH233417   6.095   6.411   7.923  0.5672  0.7915 -0.2629
 3953TIP3    H133418   6.174   6.462   7.906  0.3872  0.4094 -2.5841
 3953TIP3    H233419   6.119   6.321   7.900 -0.2897  0.5227 -0.1627
 3954TIP3   OH233420   0.059   4.566   2.093  0.1154  0.1746 -0.3930
 3954TIP3    H133421   0.111   4.534   2.167 -0.0003 -0.2412 -0.4894
 3954TIP3    H233422   0.022   4.487   2.053 -0.2204  0.4328 -0.6016
 3955TIP3   OH233423   3.141   4.167   0.281 -0.1897  0.0797  0.1108
 3955TIP3    H133424   3.220   4.186   0.332  0.4928 -0.6164 -0.6633
 3955TIP3    H233425   3.076   4.140   0.346  0.5015 -0.2533  0.6749
 3956TIP3   OH233426   4.936   1.593   1.763  0.2917  0.7406 -0.7100
 3956TIP3    H133427   5.018   1.586   1.715  1.5996  0.2669  1.4340
 3956TIP3    H233428   4.923   1.507   1.802  0.2714  1.5470  1.1807
 3957TIP3   OH233429   5.556   5.518   8.405 -0.0498  0.4010 -0.5336
 3957TIP3    H133430   5.489   5.460   8.370 -0.3804  0.4375  0.0257
 3957TIP3    H233431   5.535   5.525   8.499  0.1515  1.1971 -0.5420
 3958TIP3   OH233432   3.215   2.976   1.961  1.0553  0.0671  0.3573
 3958TIP3    H133433   3.211   3.018   2.047 -2.1939 -1.2269  0.9827
 3958TIP3    H233434   3.124   2.960   1.937  1.9153 -1.2472 -2.5484
 3959TIP3   OH233435   2.435   0.842   1.788 -0.5664 -0.6983  0.3983
 3959TIP3    H133436   2.379   0.771   1.820 -0.0096 -0.6478  1.5455
 3959TIP3    H233437   2.379   0.893   1.730 -1.1401 -1.7481  0.0082
 3960TIP3   OH233438   6.799   0.110   0.332 -0.1209 -0.1210  0.0373
 3960TIP3    H133439   6.881   0.159   0.331  0.2725 -0.7643  0.5526
 3960TIP3    H233440   6.791   0.073   0.244 -0.0996  0.3264 -0.1557
 3961TIP3   OH233441   4.351   3.520   1.817  0.1296 -0.2004  0.3004
 3961TIP3    H133442   4.261   3.516   1.849 -0.6649  0.5060 -1.6647
 3961TIP3    H233443   4.346   3.579   1.741  1.6702 -2.3287 -1.5855
 3962TIP3   OH233444   3.379   2.541   0.883  0.4778  0.3315  0.6398
 3962TIP3    H133445   3.350   2.596   0.810  0.5153 -0.6344 -0.1302
 3962TIP3    H233446   3.467   2.512   0.857  0.2417 -0.5319  0.7635
 3963TIP3   OH233447   6.805   5.325   1.781 -0.6452  0.4313 -0.5859
 3963TIP3    H133448   6.802   5.241   1.734 -2.1472 -0.1825  0.5365
 3963TIP3    H233449   6.898   5.344   1.789 -0.2791 -0.9268 -1.2322
 3964TIP3   OH233450   5.615   5.010   1.131  0.0718  0.1440 -0.0966
 3964TIP3    H133451   5.562   4.943   1.088  0.2079 -0.5482  0.7832
 3964TIP3    H233452   5.554   5.053   1.191 -0.0008  0.7875 -0.6133
 3965TIP3   OH233453   4.264   2.358   1.544 -0.6562  0.1168  0.5397
 3965TIP3    H133454   4.330   2.372   1.612 -1.3572 -1.4350  1.5912
 3965TIP3    H233455   4.315   2.344   1.464  0.2375  0.4534  1.0358
 3966TIP3   OH233456   5.099   0.964   1.094 -0.4050 -0.2100  0.0795
 3966TIP3    H133457   5.192   0.955   1.077 -0.5627 -1.1632 -0.3061
 3966TIP3    H233458   5.093   0.977   1.189 -0.0093 -2.5363  0.4833
 3967TIP3   OH233459   4.914   5.479   8.162 -0.0432  0.2037  0.4045
 3967TIP3    H133460   4.879   5.451   8.077  0.3673  0.2407  0.2244
 3967TIP3    H233461   4.836   5.487   8.218 -0.4070  0.9631 -0.1865
 3968TIP3   OH233462   4.614   5.319   0.873  0.3967 -0.0571 -0.1093
 3968TIP3    H133463   4.568   5.397   0.842 -1.7586 -1.1998  0.0065
 3968TIP3    H233464   4.612   5.259   0.798  0.4891 -0.6414  0.3536
 3969TIP3   OH233465   1.268   5.801   8.728  0.1496  0.7196  0.1009
 3969TIP3    H133466   1.254   5.706   8.724 -1.1311  0.9154 -0.5569
 3969TIP3    H233467   1.308   5.815   8.814  0.4760 -0.4251  0.1561
 3970TIP3   OH233468   3.186   3.149   0.389  0.2355 -0.5128 -0.2684
 3970TIP3    H133469   3.106   3.098   0.373 -0.0551 -0.4664  0.9494
 3970TIP3    H233470   3.188   3.161   0.483  0.7432  1.0459 -0.4584
 3971TIP3   OH233471   5.420   1.077   1.965  0.4042 -0.4292  0.4677
 3971TIP3    H133472   5.328   1.099   1.948 -0.1067 -3.1818 -0.8758
 3971TIP3    H233473   5.432   1.098   2.058 -2.0217 -1.2412  1.0445
 3972TIP3   OH233474   4.545   1.516   1.676 -0.1478  0.1766 -0.2125
 3972TIP3    H133475   4.490   1.540   1.751 -0.5594  1.5935 -0.9246
 3972TIP3    H233476   4.593   1.439   1.705 -1.2705 -0.0851  1.0307
 3973TIP3   OH233477   3.783   5.127   8.065 -0.1343  0.1075 -0.0405
 3973TIP3    H133478   3.758   5.166   8.149 -0.1702 -2.8517  1.4562
 3973TIP3    H233479   3.711   5.069   8.042  0.8039 -0.7346 -1.0181
 3974TIP3   OH233480   1.828   1.990   2.247 -0.6423 -0.6192 -0.0179
 3974TIP3    H133481   1.822   2.025   2.336  0.8931 -1.6517  0.5247
 3974TIP3    H233482   1.750   1.935   2.238  0.1368 -2.0581  1.4344
 3975TIP3   OH233483   2.656   2.944   1.327 -0.0632 -0.3226  0.1479
 3975TIP3    H133484   2.613   2.990   1.255 -0.4539 -1.5801 -0.4471
 3975TIP3    H233485   2.597   2.956   1.402 -0.7587 -0.8408 -0.3050
 3976TIP3   OH233486   5.952   0.810   0.680  0.1966 -0.4636 -0.3419
 3976TIP3    H133487   5.981   0.768   0.761  0.1524 -1.4827 -0.8367
 3976TIP3    H233488   5.995   0.895   0.680  0.5465 -0.6272  0.5345
 3977TIP3   OH233489   1.482   2.974   8.080 -0.4130  0.4923 -0.6069
 3977TIP3    H133490   1.398   2.976   8.034 -1.3091  0.7095  0.9596
 3977TIP3    H233491   1.482   3.054   8.132  0.9267  0.6551 -0.8166
 3978TIP3   OH233492   6.362   1.103   7.596  0.1601 -0.0116 -0.2055
 3978TIP3    H133493   6.284   1.140   7.553 -1.5189 -0.1311  2.5197
 3978TIP3    H233494   6.409   1.059   7.525 -2.7386 -0.7394 -1.8636
 3979TIP3   OH233495   1.030   3.713   7.670 -0.1134  0.1731  0.4672
 3979TIP3    H133496   0.941   3.694   7.641  0.0430  1.5706 -1.0585
 3979TIP3    H233497   1.045   3.804   7.644  1.9938 -0.2376  0.0935
 3980TIP3   OH233498   1.167   4.969   8.426  0.5813 -0.2634 -0.4311
 3980TIP3    H133499   1.126   5.047   8.464  1.2832 -0.9514  1.8650
 3980TIP3    H233500   1.254   4.998   8.399  0.2599  0.1078 -1.1028
 3981TIP3   OH233501   4.676   6.675   0.704 -0.3497  0.3289 -0.7081
 3981TIP3    H133502   4.706   6.585   0.711  0.1737  0.6191  1.1286
 3981TIP3    H233503   4.593   6.668   0.657 -0.4499 -1.1373 -0.3677
 3982TIP3   OH233504   3.478   1.251   1.448  0.4028  0.1279 -0.4475
 3982TIP3    H133505   3.487   1.220   1.538  0.7261  0.3405 -0.4047
 3982TIP3    H233506   3.568   1.257   1.415  0.3091  0.4320 -0.6561
 3983TIP3   OH233507   1.361   2.488   2.109 -0.2941  0.4023  0.6148
 3983TIP3    H133508   1.311   2.435   2.047 -1.7983  0.4636  1.7276
 3983TIP3    H233509   1.415   2.545   2.053 -0.8210 -0.2659 -0.6162
 3984TIP3   OH233510   5.947   5.135   0.015 -0.2814  0.6949  0.9432
 3984TIP3    H133511   5.864   5.179   0.034 -0.6467  0.4697 -0.0381
 3984TIP3    H233512   5.982   5.185  -0.059  0.4869  0.8175  1.3879
 3985TIP3   OH233513   6.488   3.708   1.194  0.1068  0.0619  0.8767
 3985TIP3    H133514   6.500   3.788   1.245  0.8097 -0.1157  0.9986
 3985TIP3    H233515   6.539   3.722   1.114 -2.3488  1.0422 -0.6228
 3986TIP3   OH233516   4.035   5.414   8.039 -0.4518  0.3435  0.2783
 3986TIP3    H133517   4.002   5.453   7.958 -0.2325  2.9393  1.3423
 3986TIP3    H233518   4.129   5.406   8.026 -0.4487  0.5294  0.1904
 3987TIP3   OH233519   1.773   3.756   0.873 -0.2026 -0.0860 -0.4005
 3987TIP3    H133520   1.734   3.738   0.787  1.7811  0.6547 -1.5273
 3987TIP3    H233521   1.853   3.805   0.853 -0.3918  1.3279  1.9774
 3988TIP3   OH233522   4.174   1.928   1.923 -0.0538  0.3868  0.0258
 3988TIP3    H133523   4.100   1.984   1.944 -2.4646 -1.7235 -1.9795
 3988TIP3    H233524   4.168   1.856   1.986 -0.1957 -0.1303 -0.5604
 3989TIP3   OH233525   4.580   1.738   7.802  0.6142 -0.1428  0.3265
 3989TIP3    H133526   4.618   1.711   7.886  1.3958 -1.0431 -0.2983
 3989TIP3    H233527   4.519   1.668   7.779 -0.1810  0.4769  0.4958
 3990TIP3   OH233528   0.959   2.202   7.601 -0.4803 -0.6279 -0.0980
 3990TIP3    H133529   1.000   2.273   7.552  1.1904  0.9775  3.2976
 3990TIP3    H233530   0.997   2.122   7.562 -1.2351  0.2940 -2.9954
 3991TIP3   OH233531   0.254   3.707   7.126 -0.0305  0.2932 -0.4710
 3991TIP3    H133532   0.247   3.686   7.219 -0.5614  1.8870 -0.1083
 3991TIP3    H233533   0.179   3.664   7.085 -3.3446  4.1632  0.8257
 3992TIP3   OH233534   1.865   5.654   2.603 -0.3723  0.2945 -0.9114
 3992TIP3    H133535   1.867   5.625   2.694 -1.5770  1.1855 -0.5748
 3992TIP3    H233536   1.935   5.718   2.596  0.3975 -0.5230 -0.9041
 3993TIP3   OH233537   1.487   4.559   1.592 -0.2938  0.0459  0.0615
 3993TIP3    H133538   1.483   4.654   1.585  0.8499  0.0405 -1.3048
 3993TIP3    H233539   1.501   4.529   1.501  0.4363 -1.3390  0.5954
 3994TIP3   OH233540   2.131   5.261   6.758 -0.6011 -0.3062  0.3852
 3994TIP3    H133541   2.135   5.343   6.807  1.5068  0.0565 -0.2958
 3994TIP3    H233542   2.211   5.214   6.783 -0.2188 -0.7627 -1.5379
 3995TIP3   OH233543   0.886   1.278   1.219  0.8999 -0.2764  0.0952
 3995TIP3    H133544   0.855   1.205   1.272 -0.2765 -1.0095 -1.5336
 3995TIP3    H233545   0.948   1.324   1.276 -0.4251 -0.8944  2.1571
 3996TIP3   OH233546   4.633   3.835   0.658  0.0489 -0.2799 -0.1899
 3996TIP3    H133547   4.541   3.818   0.675  0.0512 -1.5275 -1.3196
 3996TIP3    H233548   4.642   3.930   0.669 -1.0081 -0.3199  1.4774
 3997TIP3   OH233549   6.000   0.066   7.799 -0.0903 -0.4480  0.2545
 3997TIP3    H133550   6.086   0.033   7.827 -0.6215 -0.8504  1.4386
 3997TIP3    H233551   5.938   0.025   7.858 -1.0971  0.0262 -0.4485
 3998TIP3   OH233552   0.136   4.397   2.378 -0.1857  0.2253  0.2993
 3998TIP3    H133553   0.067   4.364   2.321 -1.0980  3.3767 -0.6223
 3998TIP3    H233554   0.090   4.418   2.460  0.4243 -0.9259  0.9607
 3999TIP3   OH233555   1.350   5.176   1.744  0.1590 -0.0705 -0.0957
 3999TIP3    H133556   1.397   5.260   1.750 -0.2895  0.2558 -0.9244
 3999TIP3    H233557   1.409   5.113   1.784  1.2608  0.3520 -0.9867
 4000TIP3   OH233558   4.040   2.100   8.451  0.7201  0.1247  0.5794
 4000TIP3    H133559   4.092   2.019   8.448  0.7065  0.1413 -0.1903
 4000TIP3    H233560   4.042   2.126   8.544  0.1322 -1.1356  0.9652
 4001TIP3   OH233561   1.602   3.896   7.408  1.0777 -0.3745 -0.2735
 4001TIP3    H133562   1.529   3.834   7.415  1.7694 -1.0670  1.0778
 4001TIP3    H233563   1.641   3.878   7.323  0.3605 -0.7686 -0.5258
 4002TIP3   OH233564   0.772   1.975   3.346 -0.5575 -0.4384  0.3337
 4002TIP3    H133565   0.687   1.954   3.307 -0.5565  0.9925 -0.4998
 4002TIP3    H233566   0.755   2.050   3.402 -0.0754 -0.9740  1.2279
 4003TIP3   OH233567   1.627   2.033   8.494  0.2139 -0.2083  0.4567
 4003TIP3    H133568   1.707   2.023   8.545 -0.2961 -0.1607  1.2771
 4003TIP3    H233569   1.562   2.064   8.556 -0.2406  0.5752 -0.3779
 4004TIP3   OH233570   4.638   3.041   1.673 -0.4204  0.5615  0.4456
 4004TIP3    H133571   4.639   3.006   1.584  2.6764  1.2207  0.1349
 4004TIP3    H233572   4.578   3.115   1.668 -0.6488  0.3185 -0.9581
 4005TIP3   OH233573   6.592   2.716   8.642  0.2287 -0.5676  0.5811
 4005TIP3    H133574   6.499   2.708   8.622  0.2303 -1.0697  0.7618
 4005TIP3    H233575   6.628   2.766   8.569 -0.1505 -0.5350  0.4162
 4006TIP3   OH233576   5.482   0.586   8.047 -0.3798  0.2955 -0.4784
 4006TIP3    H133577   5.429   0.522   7.998  0.4624  0.0190 -1.0402
 4006TIP3    H233578   5.437   0.593   8.131 -0.9379 -0.4499 -0.6939
 4007TIP3   OH233579   5.130   0.709   1.424  0.2498 -0.3619 -0.0320
 4007TIP3    H133580   5.107   0.703   1.517 -1.1832  1.8404 -0.1829
 4007TIP3    H233581   5.082   0.637   1.383 -3.3789  1.6616  0.2805
 4008TIP3   OH233582   1.796   5.262   1.813  0.6408 -0.9516 -0.0916
 4008TIP3    H133583   1.715   5.240   1.767 -0.8079  0.3319  1.6871
 4008TIP3    H233584   1.835   5.332   1.762  0.5350 -1.4433 -0.8592
 4009TIP3   OH233585   6.489   0.548   0.331  0.0905 -0.0165 -0.4454
 4009TIP3    H133586   6.582   0.567   0.340  0.8250 -2.8028 -1.1633
 4009TIP3    H233587   6.465   0.584   0.246  0.2587  1.3851  0.0627
 4010TIP3   OH233588   6.471   5.493   7.962 -0.0514  0.3630 -0.2001
 4010TIP3    H133589   6.436   5.553   8.027 -0.2284  0.2701 -0.2085
 4010TIP3    H233590   6.566   5.503   7.968  0.2024 -2.0652  2.4839
 4011TIP3   OH233591   2.940   0.455   1.941 -0.2403  0.3632  0.7631
 4011TIP3    H133592   3.034   0.435   1.940  0.0033  1.3811  1.1899
 4011TIP3    H233593   2.937   0.551   1.944 -1.2945  0.3248  1.3103
 4012TIP3   OH233594   2.477   1.600   8.837 -0.1904 -0.0103 -0.1363
 4012TIP3    H133595   2.474   1.510   8.869  0.5718 -0.6362 -1.7151
 4012TIP3    H233596   2.421   1.599   8.759 -0.1172  0.8617 -0.2029
 4013TIP3   OH233597   1.417   6.312   8.496 -0.5429  0.0496  0.1339
 4013TIP3    H133598   1.390   6.221   8.511 -0.2046  0.0873  0.9920
 4013TIP3    H233599   1.392   6.358   8.576  0.0626  0.5408  0.0463
 4014TIP3   OH233600   3.702   6.157   1.437 -0.3076 -0.1147 -0.0137
 4014TIP3    H133601   3.790   6.127   1.460  0.1846  1.7556  0.7607
 4014TIP3    H233602   3.712   6.196   1.350 -0.9418 -2.0846 -1.0200
 4015TIP3   OH233603   1.240   4.160   0.396  0.1478  0.0794 -0.0215
 4015TIP3    H133604   1.223   4.069   0.370  1.4858  0.2654 -1.7643
 4015TIP3    H233605   1.157   4.205   0.382 -0.6112 -0.8932  1.1208
 4016TIP3   OH233606   1.384   1.924   0.246  0.2539  0.7245  0.2262
 4016TIP3    H133607   1.395   2.017   0.228  1.0621  0.6582  0.3427
 4016TIP3    H233608   1.378   1.884   0.159  0.2745  0.8458  0.1684
 4017TIP3   OH233609   0.980   6.395   2.048  0.9704  0.2692 -0.1181
 4017TIP3    H133610   1.069   6.406   2.015  1.4542 -1.0249  0.6673
 4017TIP3    H233611   0.989   6.331   2.119 -0.6372 -0.1590 -0.2701
 4018TIP3   OH233612   1.092   4.025   8.219 -0.4150  0.0082  0.1770
 4018TIP3    H133613   1.019   4.064   8.269 -0.6769 -1.5387  1.0389
 4018TIP3    H233614   1.131   4.100   8.174 -0.8402  1.3088  1.8449
 4019TIP3   OH233615   6.096   2.512   2.586  0.0010 -0.8682  0.2031
 4019TIP3    H133616   6.136   2.450   2.525 -0.2133 -2.5571  1.6735
 4019TIP3    H233617   6.170   2.561   2.622  0.3626 -1.3220  0.0979
 4020TIP3   OH233618   5.529   2.884   1.298 -0.1843 -0.2944  1.1010
 4020TIP3    H133619   5.525   2.927   1.383 -1.3210  2.1755 -0.0878
 4020TIP3    H233620   5.438   2.857   1.281  0.1865 -1.5610  0.9949
 4021TIP3   OH233621   3.119   3.852   8.495  0.4884  0.2220 -0.1747
 4021TIP3    H133622   3.123   3.785   8.427  0.3383 -2.2544  2.1064
 4021TIP3    H233623   3.026   3.864   8.513  0.5586 -0.5027  0.7850
 4022TIP3   OH233624   6.220   0.103   8.529 -0.1241  0.3032 -0.3730
 4022TIP3    H133625   6.197   0.109   8.436 -1.4738 -0.0798 -0.0808
 4022TIP3    H233626   6.194   0.014   8.554  0.3001  0.3774  0.3514
 4023TIP3   OH233627   3.497   2.260   7.938 -0.2354 -0.2383 -0.2431
 4023TIP3    H133628   3.431   2.204   7.898  1.9463 -1.6822 -2.0915
 4023TIP3    H233629   3.576   2.206   7.941  0.8973  1.3527  1.9931
 4024TIP3   OH233630   0.615   1.140   1.862  0.5153  0.0063  0.5722
 4024TIP3    H133631   0.591   1.175   1.947  1.2117 -2.2573  1.7933
 4024TIP3    H233632   0.633   1.217   1.808  0.2362  1.5061  2.5094
 4025TIP3   OH233633   4.782   6.740   7.759  0.4503  0.1065 -0.1438
 4025TIP3    H133634   4.725   6.755   7.835  0.7555 -1.2840  0.3879
 4025TIP3    H233635   4.836   6.818   7.753 -0.8407  1.0438 -0.0756
 4026TIP3   OH233636   0.228   2.339   2.982 -0.7252 -0.7007  0.1223
 4026TIP3    H133637   0.167   2.404   3.017  0.4752  0.3053  0.4340
 4026TIP3    H233638   0.245   2.367   2.893 -1.1892 -1.3456 -0.1800
 4027TIP3   OH233639   1.365   1.702   0.973 -0.0362 -0.5291 -0.6348
 4027TIP3    H133640   1.321   1.771   1.022 -0.1193 -0.7047 -0.4614
 4027TIP3    H233641   1.455   1.702   1.006  0.1253 -0.1107 -1.0515
 4028TIP3   OH233642   3.151   6.388   7.860  0.4751  0.7612  0.7110
 4028TIP3    H133643   3.098   6.452   7.812  1.3220 -0.9131 -2.7698
 4028TIP3    H233644   3.095   6.361   7.933 -2.6998  0.6126 -1.5652
 4029TIP3   OH233645   0.948   5.543   3.309 -0.1114  0.2235 -0.1520
 4029TIP3    H133646   1.011   5.588   3.253  1.1458 -0.3680  0.7366
 4029TIP3    H233647   0.867   5.540   3.258  1.0186 -0.4143 -1.9593
 4030TIP3   OH233648   2.325   2.758   0.346  0.4899 -0.1445 -0.2953
 4030TIP3    H133649   2.262   2.830   0.351 -0.3610 -0.8652 -0.4697
 4030TIP3    H233650   2.285   2.688   0.397  0.3175 -1.2069 -1.8347
 4031TIP3   OH233651   4.619   5.262   7.568 -0.0505  0.1101  0.6470
 4031TIP3    H133652   4.679   5.337   7.569 -0.0597  0.2663 -2.0530
 4031TIP3    H233653   4.660   5.200   7.507 -2.3951  0.0765 -1.0239
 4032TIP3   OH233654   6.309   2.352   0.430 -0.3475  0.1024 -0.3124
 4032TIP3    H133655   6.347   2.435   0.401 -2.1617  1.2650  0.4795
 4032TIP3    H233656   6.333   2.345   0.522 -1.7775  0.7260  0.1282
 4033TIP3   OH233657   0.957   3.829   2.288 -0.0865  0.2984 -0.4338
 4033TIP3    H133658   0.899   3.756   2.266  0.7627 -0.7837  0.8071
 4033TIP3    H233659   0.903   3.887   2.342 -0.1025 -0.6014  0.5407
 4034TIP3   OH233660   3.564   4.918   6.949  0.3497  0.3886 -0.3998
 4034TIP3    H133661   3.628   4.964   6.894  0.6849  1.5360  0.8880
 4034TIP3    H233662   3.480   4.956   6.925  0.6430  1.8967  0.7910
 4035TIP3   OH233663   5.518   2.077   3.117 -0.4914  0.0798  0.1692
 4035TIP3    H133664   5.505   2.085   3.022 -2.5358  0.8118  0.4502
 4035TIP3    H233665   5.540   1.985   3.130 -0.5334 -0.1188 -1.0015
 4036TIP3   OH233666   1.427   6.709   0.528 -0.1709  0.5452 -0.4599
 4036TIP3    H133667   1.458   6.800   0.523 -0.4976  0.6226 -1.2417
 4036TIP3    H233668   1.333   6.718   0.543 -0.1799  0.3332 -0.3937
 4037TIP3   OH233669   3.217   1.999   7.892 -0.1057  0.4767  0.5539
 4037TIP3    H133670   3.164   2.078   7.886 -0.8134  0.0023  0.4753
 4037TIP3    H233671   3.256   1.991   7.805 -1.9078 -0.5344 -0.2162
 4038TIP3   OH233672   5.095   1.780   8.112  0.2038  0.0445 -0.3650
 4038TIP3    H133673   5.035   1.706   8.121  1.6651 -1.0271  1.4010
 4038TIP3    H233674   5.179   1.740   8.089  1.1223  1.0576  1.0228
 4039TIP3   OH233675   2.969   0.947   0.806  0.0631  0.3179  0.3187
 4039TIP3    H133676   2.889   0.912   0.844  0.9019 -2.3219 -0.1316
 4039TIP3    H233677   3.009   0.999   0.876 -0.5774 -0.8244  1.5694
 4040TIP3   OH233678   5.137   4.969   8.205 -0.2391  0.1334  0.0224
 4040TIP3    H133679   5.089   4.898   8.248  1.3758 -0.8394  0.3309
 4040TIP3    H233680   5.158   5.030   8.276 -1.0945  0.6284 -0.1359
 4041TIP3   OH233681   2.778   0.424   1.076 -0.5161  0.1470  0.6656
 4041TIP3    H133682   2.686   0.398   1.090  0.3184 -1.9058  3.0542
 4041TIP3    H233683   2.800   0.475   1.154  1.0736 -1.6597  1.4641
 4042TIP3   OH233684   3.610   6.109   0.396  0.0456 -0.6355  0.5472
 4042TIP3    H133685   3.550   6.120   0.321 -0.2738  0.2859  0.9266
 4042TIP3    H233686   3.641   6.019   0.388  0.6760 -0.3145 -1.1837
 4043TIP3   OH233687   6.268   2.080   2.215 -0.5323  0.1789  0.2204
 4043TIP3    H133688   6.290   2.103   2.305 -2.4517  1.1475  0.4885
 4043TIP3    H233689   6.187   2.031   2.221 -0.8569  0.5319 -0.9994
 4044TIP3   OH233690   4.098   1.162   8.362 -0.6250  0.4632 -0.6422
 4044TIP3    H133691   4.066   1.236   8.414 -0.2548  0.0683  0.1587
 4044TIP3    H233692   4.063   1.084   8.405 -1.1622  0.1651 -1.5842
 4045TIP3   OH233693   0.178   3.100   8.195  0.6628 -0.3391 -0.0630
 4045TIP3    H133694   0.268   3.127   8.176  1.1615 -1.1453  1.0572
 4045TIP3    H233695   0.177   3.005   8.180 -0.4549 -0.1066 -1.6986
 4046TIP3   OH233696   0.555   0.851   0.855  0.3302  0.0092  0.5026
 4046TIP3    H133697   0.469   0.867   0.894 -0.0401  0.2807 -0.3993
 4046TIP3    H233698   0.585   0.770   0.897 -0.4431 -0.1787  0.7173
 4047TIP3   OH233699   0.000   1.436   1.408 -0.1704 -0.0256  0.0689
 4047TIP3    H133700  -0.049   1.499   1.355 -0.7650 -0.1416  0.4750
 4047TIP3    H233701   0.074   1.486   1.443 -1.2570  0.7468  1.3070
 4048TIP3   OH233702   5.176   0.229   1.203 -0.2928 -0.1129 -0.4856
 4048TIP3    H133703   5.206   0.238   1.112 -0.6213 -0.8694 -0.6777
 4048TIP3    H233704   5.124   0.149   1.203 -2.2864  1.1215 -0.1654
 4049TIP3   OH233705   6.202   0.922   8.440 -0.3102 -0.0601 -0.1681
 4049TIP3    H133706   6.205   0.938   8.534  2.0805  2.7470 -0.5938
 4049TIP3    H233707   6.246   0.838   8.429 -0.9833 -0.6341  1.1795
 4050TIP3   OH233708   3.465   4.665   0.109  0.0822 -0.2585 -0.0974
 4050TIP3    H133709   3.468   4.748   0.156 -0.2365 -0.7017  0.7323
 4050TIP3    H233710   3.402   4.612   0.158  2.7043 -2.1782  1.4274
 4051TIP3   OH233711   5.576   6.526   1.952 -0.1022 -0.3509  0.4372
 4051TIP3    H133712   5.501   6.559   2.001 -0.8271  0.9883 -1.4683
 4051TIP3    H233713   5.647   6.523   2.017 -1.4942 -0.6403  2.0232
 4052TIP3   OH233714   1.372   6.070   8.634  0.3000  0.5090  0.3469
 4052TIP3    H133715   1.454   6.107   8.667  0.9453 -0.5631 -0.0045
 4052TIP3    H233716   1.358   5.992   8.688 -1.5839  1.7553  1.7698
 4053TIP3   OH233717   2.209   4.860   0.605 -0.7528 -0.8029  0.0391
 4053TIP3    H133718   2.148   4.848   0.532  1.3614 -2.4704 -1.6206
 4053TIP3    H233719   2.154   4.865   0.683 -3.0262 -1.0164 -1.4644
 4054TIP3   OH233720   1.566   3.964   0.173 -0.4112 -0.6179  0.0779
 4054TIP3    H133721   1.620   4.029   0.219 -1.0698 -1.5334  2.2638
 4054TIP3    H233722   1.507   4.016   0.119  0.2068  0.5345  0.4777
 4055TIP3   OH233723   3.733   6.339   8.132  0.2309 -0.1097  0.3377
 4055TIP3    H133724   3.731   6.424   8.175 -1.8352 -0.5033  1.1451
 4055TIP3    H233725   3.786   6.353   8.053  1.0862  1.5343  1.1573
 4056TIP3   OH233726   4.003   5.558   1.266 -0.3138  0.5001  0.1936
 4056TIP3    H133727   4.020   5.565   1.172  0.5061  0.3155  0.3162
 4056TIP3    H233728   3.937   5.490   1.274 -0.7822  0.8908 -0.2846
 4057TIP3   OH233729   1.992   3.403   8.037 -0.0485 -0.0303 -0.9920
 4057TIP3    H133730   1.977   3.481   7.983 -0.9673 -0.2334 -1.0429
 4057TIP3    H233731   1.908   3.388   8.081  0.8098  0.4058  0.8729
 4058TIP3   OH233732   5.939   5.828   2.192  1.2083  0.1562 -0.2641
 4058TIP3    H133733   5.893   5.772   2.254  0.7984  1.9699  1.1464
 4058TIP3    H233734   6.032   5.807   2.205  1.0278 -0.9327 -0.5599
 4059TIP3   OH233735   0.073   6.323   0.887  0.3570  0.6720 -0.3717
 4059TIP3    H133736   0.148   6.298   0.832  0.9160 -1.0006  1.0716
 4059TIP3    H233737   0.012   6.249   0.879 -0.7544  1.5987 -0.7828
 4060TIP3   OH233738   6.765   5.500   0.565 -0.3709 -0.1974 -0.7760
 4060TIP3    H133739   6.784   5.406   0.569 -0.7248 -0.2366  0.1160
 4060TIP3    H233740   6.850   5.541   0.549  0.0776 -0.5469  0.6395
 4061TIP3   OH233741   5.915   3.417   0.371 -0.7368 -0.3943  0.6433
 4061TIP3    H133742   5.871   3.462   0.299 -0.7849  0.4609  1.2008
 4061TIP3    H233743   6.007   3.442   0.363 -0.2239 -2.4463 -0.7229
 4062TIP3   OH233744   1.135   5.725   8.419 -0.0252  0.0128 -0.3847
 4062TIP3    H133745   1.045   5.696   8.434 -0.6050  0.9744 -1.7727
 4062TIP3    H233746   1.189   5.658   8.459 -1.3215 -1.8808 -1.6580
 4063TIP3   OH233747   5.441   2.083   8.762  0.2879 -0.1600  0.6381
 4063TIP3    H133748   5.466   1.997   8.794 -1.0879 -0.8687 -0.0898
 4063TIP3    H233749   5.503   2.102   8.692  1.1601 -0.1366  1.4036
 4064TIP3   OH233750   5.549   6.780   8.388  0.2036  0.2908  0.1163
 4064TIP3    H133751   5.506   6.694   8.385  0.3160  0.2511 -1.5536
 4064TIP3    H233752   5.481   6.840   8.420 -1.0769  0.1797 -2.1763
 4065TIP3   OH233753   4.830   6.060   1.913  0.4849 -0.1769 -0.2649
 4065TIP3    H133754   4.739   6.042   1.936  1.0381 -2.5588  0.3258
 4065TIP3    H233755   4.851   5.996   1.845  2.0992 -0.6262  0.6013
 4066TIP3   OH233756   0.913   6.761   8.556  0.4979  0.0961 -0.0994
 4066TIP3    H133757   0.900   6.845   8.600  0.3872  0.3555 -0.6165
 4066TIP3    H233758   0.855   6.700   8.603  1.1285  0.1359  0.7442
 4067TIP3   OH233759   0.325   6.787   1.512 -0.4769  0.4991  0.5136
 4067TIP3    H133760   0.332   6.798   1.606  2.2950  0.4960  0.3801
 4067TIP3    H233761   0.387   6.717   1.491 -3.5308 -2.0430 -0.9762
 4068TIP3   OH233762   1.886   0.201   2.594  0.2415 -0.5605 -0.1190
 4068TIP3    H133763   1.821   0.220   2.526  0.7456  2.1482  0.0724
 4068TIP3    H233764   1.885   0.277   2.651  1.5100 -1.7652  1.6088
 4069TIP3   OH233765   5.129   2.531   1.477 -0.2476  0.3869  0.3237
 4069TIP3    H133766   5.105   2.503   1.389  0.1410  1.1490 -0.0318
 4069TIP3    H233767   5.084   2.614   1.489  0.3135  0.6687  0.5434
 4070TIP3   OH233768   4.887   4.422   0.618 -0.1389  1.0269  0.3065
 4070TIP3    H133769   4.918   4.341   0.578  0.1707  1.3690 -0.1472
 4070TIP3    H233770   4.800   4.436   0.581 -0.2663  0.8102  0.5204
 4071TIP3   OH233771   6.358   4.737   8.687  0.3797 -0.8097 -0.3196
 4071TIP3    H133772   6.325   4.792   8.617 -0.4877 -0.9701 -0.0483
 4071TIP3    H233773   6.434   4.693   8.649  1.3981  0.9287 -0.3802
 4072TIP3   OH233774   2.960   1.480   7.092  0.1848  0.0330 -0.5304
 4072TIP3    H133775   2.870   1.502   7.070 -0.1756 -2.8721 -2.5354
 4072TIP3    H233776   3.003   1.466   7.007  1.0898 -3.5505  0.3529
 4073TIP3   OH233777   2.073   0.453   7.703 -0.0356  0.0682 -0.2153
 4073TIP3    H133778   2.081   0.512   7.628 -0.1852 -0.8257 -0.9582
 4073TIP3    H233779   2.162   0.421   7.719 -0.3961 -2.1768 -2.0860
 4074TIP3   OH233780   4.283   1.848   7.012 -0.1853  0.0490  0.4613
 4074TIP3    H133781   4.207   1.904   7.028 -2.2959 -2.2989 -0.5889
 4074TIP3    H233782   4.343   1.903   6.962 -1.5985  1.7341  0.5038
 4075TIP3   OH233783   1.275   0.609   0.492 -0.1921 -0.2831  1.1208
 4075TIP3    H133784   1.259   0.639   0.581 -2.3142 -0.0800  0.7385
 4075TIP3    H233785   1.190   0.576   0.462  0.2217  0.4970 -1.1358
 4076TIP3   OH233786   5.655   5.032   7.645  0.3608  0.5973 -0.6218
 4076TIP3    H133787   5.595   5.076   7.584  0.2147  2.6355  0.8718
 4076TIP3    H233788   5.680   4.952   7.600 -2.7151  0.1187 -1.7360
 4077TIP3   OH233789   6.472   4.818   7.015 -0.1078  0.3589  0.5543
 4077TIP3    H133790   6.397   4.776   6.974  0.8191 -0.0333 -0.8406
 4077TIP3    H233791   6.437   4.899   7.052 -1.0295  0.7467 -1.0599
 4078TIP3   OH233792   1.728   3.419   1.995 -0.3285  0.2383 -0.4575
 4078TIP3    H133793   1.772   3.496   2.030  0.2590 -0.4462  0.3668
 4078TIP3    H233794   1.699   3.371   2.073  0.8094 -1.2249 -0.8773
 4079TIP3   OH233795   4.444   3.981   0.858 -0.0032 -0.4129  0.2331
 4079TIP3    H133796   4.386   3.960   0.785 -1.9613  2.7022  0.6997
 4079TIP3    H233797   4.492   4.058   0.830  1.4293 -0.9282  1.1658
 4080TIP3   OH233798   2.726   6.223   8.745 -0.3117 -0.0823  0.2328
 4080TIP3    H133799   2.762   6.271   8.820  1.5378  0.3360 -0.8648
 4080TIP3    H233800   2.679   6.289   8.694 -0.9308 -0.2136  0.6289
 4081TIP3   OH233801   6.555   5.028   8.019 -0.8219  0.0344 -0.3867
 4081TIP3    H133802   6.497   5.089   7.973  1.3279  2.0293 -0.6355
 4081TIP3    H233803   6.589   4.971   7.951 -0.5086  0.5644 -0.6846
 4082TIP3   OH233804   6.137   5.538   8.613 -0.1546  0.2501  0.1390
 4082TIP3    H133805   6.118   5.627   8.586  0.4273  0.6578  1.0162
 4082TIP3    H233806   6.169   5.547   8.703  0.3822 -0.7901  0.0630
 4083TIP3   OH233807   1.805   3.610   2.186  0.3378 -0.4995 -0.0926
 4083TIP3    H133808   1.853   3.692   2.173  1.7778 -1.3556 -0.3479
 4083TIP3    H233809   1.737   3.633   2.250  0.7339  0.8710 -0.1193
 4084TIP3   OH233810   6.491   1.659   8.103 -0.0857  0.3372 -0.1962
 4084TIP3    H133811   6.574   1.652   8.150  0.1116 -0.3105 -0.6317
 4084TIP3    H233812   6.515   1.651   8.010 -0.7993 -1.7078 -0.2610
 4085TIP3   OH233813   2.550   3.375   7.017 -0.5403 -0.0089 -0.4630
 4085TIP3    H133814   2.627   3.413   6.975  0.6406 -1.9828 -0.2378
 4085TIP3    H233815   2.576   3.363   7.108 -1.6786  0.6894 -0.0335
 4086TIP3   OH233816   2.867   0.052   7.793  0.0631 -0.1441  0.1942
 4086TIP3    H133817   2.817   0.129   7.822  0.3817 -0.2308  1.0050
 4086TIP3    H233818   2.885   0.068   7.701 -1.3334 -0.0353 -0.0794
 4087TIP3   OH233819   3.562   5.233   8.475 -0.7911 -0.0460  1.0070
 4087TIP3    H133820   3.553   5.221   8.381 -0.2037  0.5734  0.8694
 4087TIP3    H233821   3.561   5.143   8.510 -0.5589 -0.3050  0.3731
 4088TIP3   OH233822   0.283   1.491   8.552 -0.1974  0.3583 -0.8708
 4088TIP3    H133823   0.330   1.557   8.603 -0.1961  0.2489 -0.7308
 4088TIP3    H233824   0.239   1.437   8.617  0.1321 -0.0297 -0.9643
 4089TIP3   OH233825   2.980   3.843   0.555  0.6711 -0.1652  0.6339
 4089TIP3    H133826   2.995   3.933   0.528  0.9649 -0.4196 -0.0811
 4089TIP3    H233827   3.019   3.790   0.485 -1.3026 -0.8706 -0.0025
 4090TIP3   OH233828   4.423   6.751   8.527  0.4730 -0.2514  0.4559
 4090TIP3    H133829   4.337   6.755   8.487  0.6822 -0.0433  0.0121
 4090TIP3    H233830   4.408   6.721   8.616  0.1804 -2.6689 -0.3424
 4091TIP3   OH233831   0.627   3.646   2.005  0.4513 -0.1055  0.0120
 4091TIP3    H133832   0.721   3.654   1.985  0.1492  0.2123 -1.3834
 4091TIP3    H233833   0.610   3.718   2.067  1.1767 -0.3425  0.4995
 4092TIP3   OH233834   6.608   6.253   1.445 -0.6709 -0.3719 -0.2408
 4092TIP3    H133835   6.696   6.279   1.416 -1.5894  1.0656 -1.9786
 4092TIP3    H233836   6.602   6.160   1.425  0.0099 -0.1889 -1.3904
 4093TIP3   OH233837   0.637   4.121   7.868  0.6895 -0.0479  0.5141
 4093TIP3    H133838   0.546   4.148   7.872  0.6911  0.1953 -0.7970
 4093TIP3    H233839   0.677   4.179   7.803  1.6157 -0.5940  0.5786
 4094TIP3   OH233840   3.586   5.036   2.190 -0.5771 -0.2647  0.3065
 4094TIP3    H133841   3.662   5.074   2.233 -0.7648 -0.7556  1.0790
 4094TIP3    H233842   3.515   5.046   2.253 -0.7328 -1.4784  0.3604
 4095TIP3   OH233843   2.510   1.581   7.247  0.5346  0.0832  0.1265
 4095TIP3    H133844   2.581   1.616   7.301 -0.4844  1.4139  0.6641
 4095TIP3    H233845   2.480   1.504   7.295 -1.2129  1.9482  2.3023
 4096TIP3   OH233846   6.092   5.397   2.057 -0.5375 -0.1101  0.0361
 4096TIP3    H133847   6.061   5.379   1.968 -0.0085 -2.0828  0.2121
 4096TIP3    H233848   6.165   5.458   2.045 -1.7391  1.2262 -0.7032
 4097TIP3   OH233849   5.422   4.557   7.314  0.1716 -0.0882 -0.5257
 4097TIP3    H133850   5.423   4.604   7.230 -0.3345  0.8581 -0.0134
 4097TIP3    H233851   5.508   4.576   7.352 -0.6540  1.9131  0.4628
 4098TIP3   OH233852   3.711   5.448   8.185 -0.1908  0.7185  0.4269
 4098TIP3    H133853   3.737   5.434   8.095  2.2725 -1.2335  1.3330
 4098TIP3    H233854   3.783   5.498   8.224 -1.9257  2.9291  1.0045
 4099TIP3   OH233855   1.216   1.808   8.752 -0.5227 -0.5781  0.8263
 4099TIP3    H133856   1.194   1.718   8.727  0.3707 -0.7425  0.5998
 4099TIP3    H233857   1.309   1.816   8.734 -0.9503  1.0050 -0.9995
 4100TIP3   OH233858   3.332   6.159   6.989 -0.4396  0.0334  0.1737
 4100TIP3    H133859   3.322   6.068   6.963 -1.5697 -0.4395  2.0842
 4100TIP3    H233860   3.426   6.173   6.992 -0.2423 -1.1939  0.2279
 4101TIP3   OH233861   0.843   1.585   6.961 -0.0161  0.7654 -0.5179
 4101TIP3    H133862   0.902   1.559   7.032 -0.8099 -0.7306 -0.3569
 4101TIP3    H233863   0.899   1.589   6.884  0.1454 -2.1466 -0.6814
 4102TIP3   OH233864   1.462   1.486   1.221 -0.0756 -0.2796 -0.3408
 4102TIP3    H133865   1.448   1.392   1.209 -1.6583  0.1900 -2.8778
 4102TIP3    H233866   1.385   1.516   1.270  0.5799 -0.3034  0.7468
 4103TIP3   OH233867   6.012   3.007   1.589 -0.0615  0.0217  0.1973
 4103TIP3    H133868   6.077   3.023   1.520 -1.2878  0.3529 -0.9339
 4103TIP3    H233869   5.983   2.917   1.574 -0.0944 -0.0151  0.4881
 4104TIP3   OH233870   0.705   2.341   0.231 -0.4976  0.1708 -0.1570
 4104TIP3    H133871   0.639   2.274   0.246  0.6248 -0.3107  3.7645
 4104TIP3    H233872   0.686   2.409   0.296  1.2901  1.2564 -0.6780
 4105TIP3   OH233873   1.834   4.790   8.728  0.0541 -0.3827 -0.0432
 4105TIP3    H133874   1.793   4.727   8.669 -2.4770  2.2441 -1.2631
 4105TIP3    H233875   1.901   4.832   8.675 -2.4223  2.1936 -1.3649
 4106TIP3   OH233876   1.195   5.673   1.167 -0.7646 -0.0575  0.2176
 4106TIP3    H133877   1.150   5.757   1.170 -0.4187  0.1070  0.8557
 4106TIP3    H233878   1.144   5.616   1.226 -0.2208  0.0928  0.8383
 4107TIP3   OH233879   0.738   4.589   1.497  0.1653  0.0954  0.0169
 4107TIP3    H133880   0.715   4.669   1.544  1.2062  0.6178 -0.3508
 4107TIP3    H233881   0.824   4.565   1.531 -0.2642 -1.0538  0.3501
 4108TIP3   OH233882   5.629   4.519   8.463 -0.3330 -0.1381 -0.1027
 4108TIP3    H133883   5.700   4.494   8.522  0.2589  1.1911 -0.2043
 4108TIP3    H233884   5.563   4.558   8.519 -0.6515 -0.6727 -0.0991
 4109TIP3   OH233885   2.800   5.579   7.259 -0.1821  0.0094 -0.4738
 4109TIP3    H133886   2.810   5.518   7.186 -0.5503 -1.4179  0.6355
 4109TIP3    H233887   2.764   5.526   7.330 -2.5624  1.9636 -0.1043
 4110TIP3   OH233888   5.808   1.913   1.859  0.3392 -0.1534 -0.7097
 4110TIP3    H133889   5.790   2.004   1.882  0.6972 -0.3811  0.5191
 4110TIP3    H233890   5.730   1.865   1.886  0.7375 -0.4143  0.0029
 4111TIP3   OH233891   6.389   4.780   7.837  0.0965  0.1333 -0.5767
 4111TIP3    H133892   6.462   4.839   7.819 -0.5930  0.7720 -1.4316
 4111TIP3    H233893   6.357   4.754   7.750 -0.5697 -0.2742 -0.2220
 4112TIP3   OH233894   6.641   6.267   8.068  0.2112  0.0602 -0.2298
 4112TIP3    H133895   6.718   6.244   8.120 -0.3535  0.5587  0.8509
 4112TIP3    H233896   6.568   6.227   8.115 -0.3064  0.4612 -0.6850
 4113TIP3   OH233897   2.245   6.079   0.639 -0.3129  0.3561 -0.1096
 4113TIP3    H133898   2.217   6.015   0.575  2.0793  0.9937 -1.9469
 4113TIP3    H233899   2.166   6.127   0.662 -1.0898  1.1463 -3.8333
 4114TIP3   OH233900   0.065   4.736   8.171 -0.8558 -0.1006  1.1344
 4114TIP3    H133901   0.067   4.831   8.176 -1.5993 -0.0425  0.4806
 4114TIP3    H233902   0.070   4.717   8.077 -2.5267 -0.6477  1.1349
 4115TIP3   OH233903   2.652   2.114   7.341  0.0477  0.3453 -0.1706
 4115TIP3    H133904   2.745   2.132   7.331  0.1117 -0.3562 -0.8785
 4115TIP3    H233905   2.625   2.079   7.257 -0.1862 -2.4205  0.9662
 4116TIP3   OH233906   4.441   1.929   1.039 -0.1108 -0.0900  0.0585
 4116TIP3    H133907   4.476   1.917   1.127 -0.9937  0.5636  0.5152
 4116TIP3    H233908   4.511   1.899   0.981  0.0662 -1.5876  0.9944
 4117TIP3   OH233909   3.493   2.819   8.644 -0.0760 -0.4925 -0.1291
 4117TIP3    H133910   3.557   2.749   8.646  1.8526  1.1789  1.6276
 4117TIP3    H233911   3.447   2.812   8.728  0.5939  0.6597  0.3683
 4118TIP3   OH233912   0.720   4.271   1.571  0.3789 -0.2983 -0.3545
 4118TIP3    H133913   0.721   4.358   1.610  0.7031 -0.4177 -0.0963
 4118TIP3    H233914   0.744   4.212   1.642  0.3906 -0.5781 -0.5869
 4119TIP3   OH233915   1.461   3.535   8.707 -0.6839 -0.4074  0.1850
 4119TIP3    H133916   1.552   3.541   8.737 -0.3545 -0.7465 -0.7201
 4119TIP3    H233917   1.430   3.451   8.739  0.0281 -1.2819 -1.3527
 4120TIP3   OH233918   5.887   6.206   8.803 -0.1150 -0.1120  0.5899
 4120TIP3    H133919   5.962   6.260   8.829 -0.1247 -0.7408  2.0182
 4120TIP3    H233920   5.846   6.255   8.732  2.4754 -0.4432 -1.2864
 4121TIP3   OH233921   4.461   4.803   6.782 -0.4820 -0.1375 -0.0602
 4121TIP3    H133922   4.546   4.813   6.738 -0.3162  0.5557  0.3935
 4121TIP3    H233923   4.483   4.791   6.874 -0.9036  1.2763  0.2464
 4122TIP3   OH233924   0.039   2.015   8.724 -0.5082  0.5291 -0.2403
 4122TIP3    H133925  -0.052   2.021   8.697 -0.2952 -0.8263 -1.3611
 4122TIP3    H233926   0.089   2.050   8.650 -0.0172 -1.2929 -0.8328
 4123TIP3   OH233927   3.919   6.168   0.148 -0.4445 -0.0065  0.1974
 4123TIP3    H133928   3.896   6.260   0.155 -0.0295  0.1801 -0.7427
 4123TIP3    H233929   3.921   6.150   0.054  1.3338 -0.4793  0.2889
 4124TIP3   OH233930   5.359   6.584   7.364  0.1973  0.0264 -0.3764
 4124TIP3    H133931   5.343   6.497   7.327  0.4128  0.2179 -0.9340
 4124TIP3    H233932   5.433   6.572   7.422 -0.7465 -0.4762  0.7540
 4125TIP3   OH233933   6.515   6.053   7.211  0.2633 -0.4664  0.5444
 4125TIP3    H133934   6.557   6.090   7.133 -0.1990 -1.5350 -0.2316
 4125TIP3    H233935   6.586   6.011   7.258  0.4776 -0.1574  0.5057
 4126TIP3   OH233936   0.979   3.083   7.660  0.4101 -0.7026 -0.0199
 4126TIP3    H133937   1.018   3.167   7.686  2.0388 -2.1526  2.7943
 4126TIP3    H233938   1.041   3.047   7.596  0.2561 -0.2371 -0.4388
 4127TIP3   OH233939   5.601   0.010   1.055  0.1412 -0.4662  0.1358
 4127TIP3    H133940   5.509  -0.010   1.036  0.2919 -2.3780  1.1120
 4127TIP3    H233941   5.602   0.032   1.148  0.7274 -1.0553  0.2788
 4128TIP3   OH233942   5.655   1.406   1.556 -0.2651 -0.1686 -0.0843
 4128TIP3    H133943   5.650   1.486   1.608  2.0830 -0.6285  0.9740
 4128TIP3    H233944   5.653   1.436   1.465  2.0763  1.3247  0.2587
 4129TIP3   OH233945   5.486   3.734   8.430  0.7259 -0.4933  0.1445
 4129TIP3    H133946   5.397   3.766   8.437  1.1480  0.6521  0.4773
 4129TIP3    H233947   5.497   3.712   8.338  0.4543  0.4581 -0.1232
 4130TIP3   OH233948   6.535   6.317   8.808  0.1835  0.6253  0.2226
 4130TIP3    H133949   6.586   6.361   8.876 -0.2903  0.0964  0.9356
 4130TIP3    H233950   6.568   6.227   8.807  0.6383  0.7925 -0.7130
 4131TIP3   OH233951   0.003   2.638   7.265  0.0928 -0.0703 -0.0789
 4131TIP3    H133952   0.071   2.704   7.276 -0.5360  0.3594  1.5109
 4131TIP3    H233953   0.037   2.559   7.306  0.3621 -0.4108 -0.9303
 4132TIP3   OH233954   3.645   3.601   7.853 -0.2808  0.2019  0.3024
 4132TIP3    H133955   3.610   3.620   7.940 -1.3809  0.2578 -0.1385
 4132TIP3    H233956   3.569   3.606   7.795  0.8229  2.7084 -1.0730
 4133TIP3   OH233957   0.431   5.316   1.689 -0.0702 -0.6052  0.2914
 4133TIP3    H133958   0.359   5.364   1.731  0.6525 -0.5993  1.5557
 4133TIP3    H233959   0.405   5.311   1.597 -1.2927  0.1276  0.5705
 4134TIP3   OH233960   4.041   6.494   0.704  0.1693 -0.3748 -0.3628
 4134TIP3    H133961   4.074   6.572   0.748  1.8941 -1.1965 -0.0987
 4134TIP3    H233962   3.998   6.528   0.625  2.2921  0.7994 -1.1120
 4135TIP3   OH233963   0.640   6.248   8.166  0.4985  0.0164  0.0111
 4135TIP3    H133964   0.726   6.270   8.201  1.6039  0.6385 -2.8030
 4135TIP3    H233965   0.641   6.282   8.077 -2.3377 -0.8262 -0.4523
 4136TIP3   OH233966   5.318   6.654   0.263 -0.4496  0.4410  0.2939
 4136TIP3    H133967   5.242   6.670   0.207  0.1835 -0.1093 -0.7391
 4136TIP3    H233968   5.285   6.599   0.334 -0.8864 -0.2911 -0.4711
 4137TIP3   OH233969   6.758   1.768   0.807 -0.2784 -0.1928  0.0257
 4137TIP3    H133970   6.807   1.704   0.755 -0.9852 -0.5316 -0.2337
 4137TIP3    H233971   6.717   1.716   0.876  0.9641  0.2994  1.1878
 4138TIP3   OH233972   3.308   4.390   2.122 -0.0677 -0.3025  0.0273
 4138TIP3    H133973   3.242   4.427   2.180 -0.7297  0.2331 -1.0385
 4138TIP3    H233974   3.355   4.327   2.177 -1.2057 -0.4223  0.9117
 4139TIP3   OH233975   1.826   1.362   8.503  0.0052  0.4502 -0.0261
 4139TIP3    H133976   1.876   1.285   8.531  0.4549  0.1162 -1.6214
 4139TIP3    H233977   1.844   1.428   8.570  1.6261 -0.0601  0.0863
 4140TIP3   OH233978   3.254   5.614   0.476  0.1987 -0.1049 -0.0977
 4140TIP3    H133979   3.238   5.528   0.516 -1.1637 -0.2598 -0.9005
 4140TIP3    H233980   3.334   5.645   0.518 -0.7121 -0.5865  2.1974
 4141TIP3   OH233981   1.842   1.497   8.743  0.1001  0.1848 -0.3099
 4141TIP3    H133982   1.773   1.508   8.808  0.9001  0.7195  0.4814
 4141TIP3    H233983   1.919   1.540   8.782  0.3741  1.3518 -1.9963
 4142TIP3   OH233984   5.622   1.123   2.667  0.3712  0.2789 -0.2838
 4142TIP3    H133985   5.557   1.175   2.715 -2.1032 -0.9544 -2.0369
 4142TIP3    H233986   5.621   1.038   2.711  2.1050  0.7112  0.6768
 4143TIP3   OH233987   6.435   2.565   1.642 -0.1720 -0.4201  0.9202
 4143TIP3    H133988   6.423   2.536   1.552 -1.7098  0.1026  0.9130
 4143TIP3    H233989   6.368   2.517   1.691  0.2059 -0.1969  1.6578
 4144TIP3   OH233990   0.436   4.289   1.628 -0.3648  0.4274 -0.7565
 4144TIP3    H133991   0.422   4.343   1.550  0.8661  0.8180 -0.7191
 4144TIP3    H233992   0.515   4.240   1.609 -0.3829  0.0905  0.0231
 4145TIP3   OH233993   2.568   5.682   8.749 -0.3675  0.5004 -0.1212
 4145TIP3    H133994   2.628   5.746   8.710 -0.5249 -0.2705 -1.7179
 4145TIP3    H233995   2.495   5.678   8.687 -0.8646 -0.4352  0.5151
 4146TIP3   OH233996   6.150   0.531   8.243 -0.2913  0.3242  0.0257
 4146TIP3    H133997   6.197   0.613   8.232  0.1946 -0.0332 -0.6200
 4146TIP3    H233998   6.170   0.481   8.164 -2.5766  0.5605 -0.7952
 4147TIP3   OH233999   2.527   4.742   1.305 -0.4638  1.2709 -0.1103
 4147TIP3    H134000   2.439   4.779   1.316 -0.8070  0.4797 -0.0806
 4147TIP3    H234001   2.549   4.708   1.392  0.3074  2.3718  0.1362
 4148TIP3   OH234002   5.911   5.432   8.009 -0.3520 -0.0955 -1.0707
 4148TIP3    H134003   5.889   5.451   7.917  0.9027 -1.1739 -1.6307
 4148TIP3    H234004   5.832   5.392   8.045 -2.1820  3.5039 -0.5761
 4149TIP3   OH234005   0.274   4.707   2.326 -0.1292  0.2569 -0.3346
 4149TIP3    H134006   0.297   4.779   2.385 -0.5056 -0.9629  1.3453
 4149TIP3    H234007   0.351   4.651   2.325 -0.7130 -0.5880  0.3499
 4150TIP3   OH234008   1.440   4.137   2.348 -0.0853  0.3298 -0.1757
 4150TIP3    H134009   1.475   4.136   2.437  0.9199  2.3910 -0.4858
 4150TIP3    H234010   1.392   4.055   2.340  0.3028 -0.1764  2.0567
 4151TIP3   OH234011   3.650   2.791   1.540  0.2601  0.2571 -0.2678
 4151TIP3    H134012   3.654   2.886   1.535  1.2995  0.3721  1.6557
 4151TIP3    H234013   3.630   2.773   1.632 -0.3755 -1.3906 -0.6899
 4152TIP3   OH234014   1.581   0.950   7.489 -0.2954 -0.3748  0.1892
 4152TIP3    H134015   1.506   0.898   7.462 -1.0424  0.7735 -0.0304
 4152TIP3    H234016   1.641   0.887   7.528 -1.4321 -1.3087  0.4959
 4153TIP3   OH234017   3.632   6.455   8.485 -0.0885  0.2570  0.2219
 4153TIP3    H134018   3.713   6.506   8.485  0.2868 -0.1389 -2.6535
 4153TIP3    H234019   3.579   6.495   8.416 -1.9801 -0.0581  1.4365
 4154TIP3   OH234020   5.127   0.996   1.835 -0.6236  0.2181  0.6618
 4154TIP3    H134021   5.176   1.061   1.784  0.0624 -1.8000 -1.4176
 4154TIP3    H234022   5.056   0.968   1.777 -0.4744 -1.3656  1.1914
 4155TIP3   OH234023   0.155   2.354   8.753 -0.3890 -0.4015  0.3102
 4155TIP3    H134024   0.067   2.387   8.738 -0.3013  0.4993  1.6316
 4155TIP3    H234025   0.149   2.304   8.834  0.2813 -0.4832  0.3152
 4156TIP3   OH234026   3.518   0.759   8.466 -0.1486  0.7030  0.8606
 4156TIP3    H134027   3.475   0.753   8.381 -0.1544 -0.8126  0.9498
 4156TIP3    H234028   3.448   0.749   8.530  0.1641 -0.7216  1.0115
 4157TIP3   OH234029   1.080   1.217   0.525 -0.8247 -0.1262 -0.4703
 4157TIP3    H134030   1.010   1.190   0.466 -1.1594 -0.9180  0.2619
 4157TIP3    H234031   1.054   1.303   0.556 -0.8110  0.1506 -1.2076
 4158TIP3   OH234032   2.688   5.131   1.691  0.2777 -0.1963  0.1762
 4158TIP3    H134033   2.645   5.216   1.690  0.1839 -0.1541 -2.8897
 4158TIP3    H234034   2.635   5.078   1.750  0.2253  1.7446  2.0096
 4159TIP3   OH234035   5.668   2.273   2.989 -0.1761  0.3626 -0.4202
 4159TIP3    H134036   5.661   2.215   3.065  1.4576 -0.3036 -0.7523
 4159TIP3    H234037   5.620   2.352   3.015 -1.3158 -0.6090  0.5359
 4160TIP3   OH234038   4.902   5.625   7.354 -0.1935  0.6217  0.4247
 4160TIP3    H134039   4.884   5.718   7.335  0.6945  0.6757 -0.2437
 4160TIP3    H234040   4.990   5.611   7.319 -0.7097 -0.7380 -0.4230
 4161TIP3   OH234041   2.080   5.548   0.692  0.4619 -0.4051 -0.1434
 4161TIP3    H134042   2.064   5.642   0.685  0.6241 -0.3064  0.6737
 4161TIP3    H234043   2.046   5.511   0.610 -1.0977  0.1665  0.1966
 4162TIP3   OH234044   5.739   6.179   0.870 -0.3272  0.0228  0.2665
 4162TIP3    H134045   5.677   6.185   0.943 -1.2911 -0.8395 -0.4607
 4162TIP3    H234046   5.811   6.125   0.904  0.6537  1.9595  1.4949
 4163TIP3   OH234047   4.168   4.557   8.268  0.1180 -0.0950 -0.6972
 4163TIP3    H134048   4.218   4.518   8.196  1.6457  2.2039 -0.9695
 4163TIP3    H234049   4.226   4.552   8.344 -0.6439 -0.5407 -0.1170
 4164TIP3   OH234050   1.043   0.227   8.658  0.1410 -0.4967 -0.1221
 4164TIP3    H134051   1.067   0.319   8.667 -0.4212 -0.0024 -2.8359
 4164TIP3    H234052   1.104   0.181   8.716  0.7583  1.5028  0.9290
 4165TIP3   OH234053   0.012   2.927   0.504  0.6284  0.2833 -0.0114
 4165TIP3    H134054   0.071   2.856   0.528  1.0637  0.2636 -1.0870
 4165TIP3    H234055   0.069   2.993   0.463  0.1880  1.1133  0.6713
 4166TIP3   OH234056   0.346   4.069   1.202 -0.3897 -0.6130 -0.5741
 4166TIP3    H134057   0.289   4.036   1.133 -2.8210 -1.4025  1.6587
 4166TIP3    H234058   0.367   4.159   1.175 -0.7983 -1.0734 -2.5535
 4167TIP3   OH234059   6.691   1.850   7.506  0.9288  0.3787 -0.3433
 4167TIP3    H134060   6.712   1.894   7.424  0.3822  0.6153 -0.3589
 4167TIP3    H234061   6.632   1.910   7.551 -1.2221 -1.0508 -1.1098
 4168TIP3   OH234062   4.370   4.973   2.433 -0.5058 -0.8683 -0.6301
 4168TIP3    H134063   4.367   5.066   2.453  1.8354 -0.9740  0.5490
 4168TIP3    H234064   4.397   4.932   2.515  1.3214 -2.2574 -1.8547
 4169TIP3   OH234065   5.210   4.205   0.239  0.0489  0.7406 -0.2983
 4169TIP3    H134066   5.149   4.133   0.225 -0.9038  1.5162 -0.2501
 4169TIP3    H234067   5.256   4.215   0.156 -0.9927  1.1364 -0.8396
 4170TIP3   OH234068   2.803   0.607   8.637  0.2302  0.2844 -0.2161
 4170TIP3    H134069   2.737   0.588   8.703  0.6778  0.5558  0.3213
 4170TIP3    H234070   2.877   0.642   8.687  0.6599  0.2775 -0.8394
 4171TIP3   OH234071   6.107   0.338   2.600  0.2971  0.3960 -0.1718
 4171TIP3    H134072   6.112   0.393   2.522 -2.0553  1.2979  0.2085
 4171TIP3    H234073   6.013   0.323   2.612  0.5258  0.6907  2.7411
 4172TIP3   OH234074   5.092   4.478   7.140  0.6945 -0.6340 -0.0493
 4172TIP3    H134075   5.093   4.466   7.045 -0.0837  1.0129 -0.2969
 4172TIP3    H234076   5.133   4.563   7.154  0.0064 -0.4609  1.0151
 4173TIP3   OH234077   0.295   1.784   2.245  0.1609 -0.1660  0.1087
 4173TIP3    H134078   0.257   1.737   2.320  2.2441 -1.5462  0.3848
 4173TIP3    H234079   0.308   1.716   2.179  3.3228 -0.1457  0.5389
 4174TIP3   OH234080   1.406   5.879   3.197  0.7163  0.4489 -0.2108
 4174TIP3    H134081   1.499   5.895   3.215  0.8870 -0.0417 -0.6124
 4174TIP3    H234082   1.407   5.817   3.124  0.0623  2.4952 -2.0430
 4175TIP3   OH234083   0.531   0.964   7.072  0.0967  0.2946  0.0545
 4175TIP3    H134084   0.482   0.989   6.994  1.5306  1.0901 -0.6180
 4175TIP3    H234085   0.566   1.046   7.106 -0.7392  0.0081  1.7348
 4176TIP3   OH234086   6.418   6.661   1.869  0.3896  0.2709 -0.0181
 4176TIP3    H134087   6.367   6.636   1.792 -0.1569 -0.3462  0.5283
 4176TIP3    H234088   6.402   6.754   1.880 -0.3045  0.1591 -0.0819
 4177TIP3   OH234089   1.542   2.018   3.481 -0.2719 -0.5166  0.0161
 4177TIP3    H134090   1.590   1.948   3.438  0.9063 -0.9028  1.8150
 4177TIP3    H234091   1.589   2.098   3.455 -0.2962 -0.6201 -0.3481
 4178TIP3   OH234092   3.577   1.019   7.632  0.0306  0.0969 -0.0042
 4178TIP3    H134093   3.654   1.065   7.598 -0.8766  1.3154 -0.4583
 4178TIP3    H234094   3.510   1.086   7.640 -0.9224 -0.8934  0.6557
 4179TIP3   OH234095   1.957   0.361   2.176 -0.0056  0.3182  0.7625
 4179TIP3    H134096   1.913   0.283   2.209 -0.8407  0.2683 -0.3952
 4179TIP3    H234097   2.034   0.326   2.130 -0.3053  0.1730  0.3616
 4180TIP3   OH234098   5.936   3.263   8.426 -0.0317  0.4285 -0.2081
 4180TIP3    H134099   5.967   3.190   8.373  0.6536 -0.2185  1.0409
 4180TIP3    H234100   5.986   3.338   8.393 -0.8348  0.3941 -1.5830
 4181TIP3   OH234101   0.708   3.503   2.939  0.2744 -0.0478  0.4152
 4181TIP3    H134102   0.803   3.490   2.936  0.0570 -1.6093 -0.3243
 4181TIP3    H234103   0.672   3.416   2.952 -1.1170  0.3066 -0.7753
 4182TIP3   OH234104   4.213   0.953   8.724 -0.4314  0.6862 -0.2159
 4182TIP3    H134105   4.271   1.002   8.782  0.5120  0.1365 -0.6654
 4182TIP3    H234106   4.228   0.861   8.747 -0.1946  0.4730 -1.1778
 4183TIP3   OH234107   2.202   2.440   8.279 -0.5481 -0.2732 -0.1461
 4183TIP3    H134108   2.124   2.385   8.285 -1.3008  0.5987 -1.4976
 4183TIP3    H234109   2.169   2.529   8.287  0.3908  0.0855 -0.1616
 4184TIP3   OH234110   4.271   0.600   1.869 -0.4426  0.4815 -0.1932
 4184TIP3    H134111   4.212   0.675   1.856 -1.3468 -0.2664 -0.5036
 4184TIP3    H234112   4.244   0.537   1.803  0.2210 -0.1756  0.1573
 4185TIP3   OH234113   3.117   1.552   7.556  0.2560 -0.6736 -0.4753
 4185TIP3    H134114   3.067   1.483   7.512 -1.2657 -0.7290  1.2187
 4185TIP3    H234115   3.112   1.627   7.497 -1.0631 -0.9637 -0.7576
 4186TIP3   OH234116   0.315   0.988   8.667  0.7883 -0.1573  0.3888
 4186TIP3    H134117   0.383   0.949   8.613  0.1116 -1.6706  0.5942
 4186TIP3    H234118   0.359   1.059   8.713  1.3976  1.2264 -2.1279
 4187TIP3   OH234119   2.195   4.464   8.151  0.5692  0.5468 -0.6019
 4187TIP3    H134120   2.176   4.390   8.094 -1.5438  1.2245 -0.8686
 4187TIP3    H234121   2.145   4.446   8.231 -0.2553  1.7927 -0.8018
 4188TIP3   OH234122   2.379   3.494   7.706  0.5391  0.0862  0.3409
 4188TIP3    H134123   2.314   3.426   7.724 -0.2533  0.6892 -0.1946
 4188TIP3    H234124   2.336   3.575   7.732  1.6472  0.3601  1.4019
 4189TIP3   OH234125   1.772   6.539   2.484 -0.1997 -0.3377 -0.5933
 4189TIP3    H134126   1.774   6.457   2.435 -1.9781 -0.3024 -0.7915
 4189TIP3    H234127   1.764   6.511   2.576 -1.7826 -0.4289 -0.7286
 4190TIP3   OH234128   6.115   3.086   0.392 -0.2636  0.1729 -0.2391
 4190TIP3    H134129   6.076   2.999   0.398  1.4819 -0.6569 -0.3284
 4190TIP3    H234130   6.130   3.111   0.484 -0.6089  0.3004 -0.2183
 4191TIP3   OH234131   0.611   4.286   0.439  0.0706 -0.0104  0.4515
 4191TIP3    H134132   0.694   4.268   0.483  1.0110  1.6593 -0.5656
 4191TIP3    H234133   0.594   4.207   0.386  2.0252  0.3619 -0.8218
 4192TIP3   OH234134   4.030   6.510   1.268 -0.4520 -0.5090  0.8057
 4192TIP3    H134135   3.975   6.524   1.191 -0.0521 -1.2108  0.3895
 4192TIP3    H234136   4.120   6.511   1.234 -0.2933 -1.3203  1.1819
 4193TIP3   OH234137   5.896   6.276   2.635 -0.0051  0.8677 -0.3241
 4193TIP3    H134138   5.871   6.340   2.701  1.0788 -0.4076  1.4047
 4193TIP3    H234139   5.952   6.325   2.574 -1.0664  2.0734 -0.3636
 4194TIP3   OH234140   2.093   2.763   7.530  0.1831 -0.1566  0.1878
 4194TIP3    H134141   2.158   2.821   7.492  0.1829  0.3035  0.8717
 4194TIP3    H234142   2.131   2.675   7.522 -0.4920 -0.2962 -2.2828
 4195TIP3   OH234143   0.323   2.930   0.683  0.4058  0.4731  0.1796
 4195TIP3    H134144   0.395   2.966   0.735 -1.0149  1.1665  1.7475
 4195TIP3    H234145   0.286   2.861   0.737 -0.6575  0.7146 -0.2090
 4196TIP3   OH234146   0.024   4.914   0.167  0.0218  0.1032 -0.5176
 4196TIP3    H134147   0.010   4.880   0.078 -3.7245  1.4408 -0.6155
 4196TIP3    H234148   0.019   4.836   0.222 -0.5307 -0.4212 -1.2775
 4197TIP3   OH234149   4.162   0.565   2.902  0.0925 -0.5461  0.0168
 4197TIP3    H134150   4.102   0.635   2.926 -0.4501 -0.3827 -1.6823
 4197TIP3    H234151   4.154   0.501   2.973 -2.9728 -1.0557 -0.6420
 4198TIP3   OH234152   5.649   1.271   8.040  0.5032  0.3588 -0.1359
 4198TIP3    H134153   5.716   1.239   8.101  0.7375 -1.1806 -1.1511
 4198TIP3    H234154   5.657   1.214   7.964 -1.9268  0.1637 -0.3315
 4199TIP3   OH234155   1.110   4.841   8.182  0.0144 -0.3192  0.4956
 4199TIP3    H134156   1.028   4.873   8.144 -0.1799 -0.9987  0.3451
 4199TIP3    H234157   1.116   4.887   8.266 -0.7395 -0.5934  0.7082
 4200TIP3   OH234158   1.026   3.691   1.635 -0.3630 -0.2397  0.1294
 4200TIP3    H134159   0.969   3.615   1.621  0.2940 -1.0398  1.4875
 4200TIP3    H234160   1.020   3.741   1.554 -1.1159 -1.5510 -0.6717
 4201TIP3   OH234161   2.423   2.771   8.654  0.4124  0.0023 -0.0318
 4201TIP3    H134162   2.407   2.684   8.617 -0.8548  0.3673 -0.4023
 4201TIP3    H234163   2.463   2.820   8.582  0.5058 -0.0731 -0.0322
 4202TIP3   OH234164   2.074   0.071   1.126 -0.5149  0.5997 -0.0495
 4202TIP3    H134165   2.047  -0.004   1.179 -0.9820  1.0735  0.3970
 4202TIP3    H234166   2.104   0.136   1.190  0.4565  0.5736 -0.4694
 4203TIP3   OH234167   3.043   2.003   2.198  0.2132  0.6386  0.5780
 4203TIP3    H134168   2.966   2.053   2.172  0.7902  1.5063  0.4962
 4203TIP3    H234169   3.026   1.978   2.289 -0.6601 -0.1599  0.2041
 4204TIP3   OH234170   3.355   0.594   1.508  0.3859  0.5423  0.1130
 4204TIP3    H134171   3.314   0.636   1.584  1.5094  0.2663  0.8974
 4204TIP3    H234172   3.435   0.644   1.493  0.5811  0.0935 -0.3777
 4205TIP3   OH234173   0.325   0.257   1.502 -0.1334  0.0880 -0.7502
 4205TIP3    H134174   0.328   0.163   1.489 -0.6663 -0.4213  2.1227
 4205TIP3    H234175   0.237   0.274   1.537 -0.2580  1.7624 -1.7445
 4206TIP3   OH234176   5.928   6.022   7.540 -0.0499  0.2117  0.2965
 4206TIP3    H134177   5.914   6.117   7.533  1.0690  0.6057  2.6072
 4206TIP3    H234178   6.012   6.007   7.496 -0.8723  0.0183 -1.2943
 4207TIP3   OH234179   4.308   5.720   0.101 -0.0777 -0.0139 -0.5243
 4207TIP3    H134180   4.240   5.682   0.044  0.0826 -1.5521  0.2412
 4207TIP3    H234181   4.379   5.743   0.041 -1.2298  1.6112 -1.3404
 4208TIP3   OH234182   4.289   2.536   6.801 -0.3528  0.4577 -0.6057
 4208TIP3    H134183   4.235   2.615   6.795 -0.4504  0.4169 -0.2506
 4208TIP3    H234184   4.371   2.560   6.758 -0.5188  0.6333 -0.8295
 4209TIP3   OH234185   0.573   4.426   7.575 -0.0771  0.1323  0.4787
 4209TIP3    H134186   0.500   4.451   7.517 -0.1530 -0.6089  0.2515
 4209TIP3    H234187   0.643   4.400   7.515 -0.7308 -2.3411  0.6859
 4210TIP3   OH234188   6.495   1.975   7.645  0.3183  0.5858  0.4396
 4210TIP3    H134189   6.529   2.027   7.719 -0.8854  0.2047  1.2941
 4210TIP3    H234190   6.420   1.928   7.682 -2.0254  2.4039 -1.6542
 4211TIP3   OH234191   2.557   4.993   7.063  0.0823  0.4109 -0.6251
 4211TIP3    H134192   2.543   5.080   7.099  0.5065 -0.6807  2.4823
 4211TIP3    H234193   2.477   4.945   7.084  0.0832 -0.1251 -1.7791
 4212TIP3   OH234194   1.569   0.409   0.730  0.0215 -0.0219 -0.0481
 4212TIP3    H134195   1.629   0.457   0.787  0.0684  0.4266 -0.4709
 4212TIP3    H234196   1.577   0.318   0.757  0.3609  0.1359  0.3749
 4213TIP3   OH234197   2.905   1.831   1.786  0.7794  0.0638  0.2448
 4213TIP3    H134198   2.972   1.826   1.717  1.2936 -0.1316  0.7562
 4213TIP3    H234199   2.886   1.739   1.806 -1.2413  0.0399 -1.4166
 4214TIP3   OH234200   3.278   2.453   6.731  0.0725  0.1000  0.3616
 4214TIP3    H134201   3.365   2.443   6.693  0.1377  0.5134  0.4045
 4214TIP3    H234202   3.275   2.543   6.764 -0.6973  0.3895 -0.4606
 4215TIP3   OH234203   3.562   4.345   1.695  0.1065 -0.0275 -0.0477
 4215TIP3    H134204   3.544   4.373   1.785  0.1018  3.2086 -0.9140
 4215TIP3    H234205   3.645   4.298   1.701  0.2704  0.3921  1.6054
 4216TIP3   OH234206   5.458   0.887   0.772 -0.2649  0.0163  0.0916
 4216TIP3    H134207   5.391   0.953   0.790  0.4125  0.6918  0.1951
 4216TIP3    H234208   5.541   0.930   0.794  0.3824 -0.1001 -1.8688
 4217TIP3   OH234209   3.891   1.905   0.727  0.1742  0.2617  0.0631
 4217TIP3    H134210   3.947   1.963   0.779 -1.2593  2.5903 -0.8273
 4217TIP3    H234211   3.947   1.832   0.703  2.0071  1.1237  1.4940
 4218TIP3   OH234212   0.649   3.102   8.327 -0.0277 -0.0221  0.1755
 4218TIP3    H134213   0.561   3.114   8.290  0.5486 -1.3238 -1.8067
 4218TIP3    H234214   0.704   3.160   8.275  0.5294 -0.4566  0.2749
 4219TIP3   OH234215   3.496   0.353   2.177  0.7076  0.3263 -0.4247
 4219TIP3    H134216   3.449   0.269   2.177  0.5826  0.3885 -1.0020
 4219TIP3    H234217   3.589   0.328   2.184  0.6733  0.1324 -0.6317
 4220TIP3   OH234218   5.826   6.320   7.422 -0.6935  0.1925  0.0168
 4220TIP3    H134219   5.736   6.348   7.438 -1.7772 -2.5185 -0.6157
 4220TIP3    H234220   5.824   6.282   7.334  1.2843  0.7471 -0.3231
 4221TIP3   OH234221   1.550   5.007   2.455 -0.0643 -0.1519 -0.0739
 4221TIP3    H134222   1.478   4.977   2.511 -0.3182 -0.0127 -0.3249
 4221TIP3    H234223   1.622   4.946   2.474 -0.0488  0.0701  0.6219
 4222TIP3   OH234224   2.033   1.520   6.879  0.1467  0.0558  0.6839
 4222TIP3    H134225   1.956   1.530   6.935  0.0465  1.4249  0.3327
 4222TIP3    H234226   1.998   1.516   6.790  0.4194 -0.2832  0.5908
 4223TIP3   OH234227   5.687   0.725   7.944  0.0293 -0.2842 -0.4381
 4223TIP3    H134228   5.612   0.678   7.982 -0.7391  1.1884 -0.0731
 4223TIP3    H234229   5.680   0.813   7.979  1.6743  0.0147 -0.8083
 4224TIP3   OH234230   3.758   0.014   1.887 -0.3186 -0.1429 -0.3704
 4224TIP3    H134231   3.733  -0.008   1.977 -0.8967  0.8751 -0.2594
 4224TIP3    H234232   3.771   0.109   1.889  0.1931 -0.1874 -1.2425
 4225TIP3   OH234233   5.698   0.237   7.665  0.7385  0.0324  0.0814
 4225TIP3    H134234   5.791   0.242   7.644  1.2570 -2.0032  1.5282
 4225TIP3    H234235   5.696   0.216   7.758 -1.1924  0.2268  0.1243
 4226TIP3   OH234236   2.858   3.199   7.896 -0.0892 -0.1907  0.5330
 4226TIP3    H134237   2.886   3.270   7.838 -1.2427 -0.5092 -0.4458
 4226TIP3    H234238   2.938   3.172   7.941  0.9675 -0.2941 -1.3112
 4227TIP3   OH234239   1.905   6.105   1.995  0.0253  0.0653  0.4721
 4227TIP3    H134240   1.878   6.160   2.068  0.0384  0.9815 -0.1808
 4227TIP3    H234241   1.987   6.066   2.023 -0.1637  0.1037  1.0890
 4228TIP3   OH234242   0.694   3.824   8.449  0.2452  0.4594  0.1454
 4228TIP3    H134243   0.708   3.796   8.359  0.6251  1.3868 -0.0927
 4228TIP3    H234244   0.599   3.830   8.458 -0.0348 -2.7686  0.8148
 4229TIP3   OH234245   5.177   6.435   1.491 -0.1805  0.0440 -0.3975
 4229TIP3    H134246   5.243   6.488   1.446  0.9933 -1.9407 -1.1645
 4229TIP3    H234247   5.227   6.380   1.551 -1.5113  0.9363  1.6355
 4230TIP3   OH234248   4.461   4.688   1.117  0.1712  0.2273 -0.0777
 4230TIP3    H134249   4.369   4.683   1.094 -0.0068  0.4729  0.5797
 4230TIP3    H234250   4.490   4.596   1.119  0.2553  0.1971 -1.4945
 4231TIP3   OH234251   4.263   0.066   1.532 -0.5200 -0.2720 -0.0115
 4231TIP3    H134252   4.304  -0.011   1.492 -0.9189  0.3332 -1.6621
 4231TIP3    H234253   4.213   0.031   1.606 -0.7400 -1.6263 -0.7645
 4232TIP3   OH234254   1.032   2.752   8.597 -0.2065  0.5680  0.3227
 4232TIP3    H134255   1.062   2.824   8.541 -2.1431  1.3538  0.2286
 4232TIP3    H234256   1.083   2.676   8.568 -0.6881  1.0883 -2.1127
 4233TIP3   OH234257   5.470   0.411   7.471  0.0929  0.5070 -0.3246
 4233TIP3    H134258   5.538   0.408   7.539  0.0281 -0.9564 -0.3069
 4233TIP3    H234259   5.513   0.377   7.392  0.2925  2.5764 -1.1836
 4234TIP3   OH234260   0.877   6.379   0.436 -0.3894  0.0171  0.3538
 4234TIP3    H134261   0.936   6.356   0.365  0.3000  0.6357  0.7135
 4234TIP3    H234262   0.912   6.333   0.513  0.5007  1.5188  0.8892
 4235TIP3   OH234263   3.327   5.482   3.003 -0.3445 -0.5355 -0.0543
 4235TIP3    H134264   3.287   5.567   2.984  0.9124  0.4787  1.5070
 4235TIP3    H234265   3.416   5.504   3.030 -0.0043 -2.3583  0.4035
 4236TIP3   OH234266   2.711   4.595   0.123  0.5750 -0.1150  0.2136
 4236TIP3    H134267   2.633   4.572   0.175  0.3554  1.5613  0.6684
 4236TIP3    H234268   2.784   4.561   0.175  0.2489 -0.1063  0.6887
 4237TIP3   OH234269   3.885   6.607   8.460  0.4340 -0.2013  0.1654
 4237TIP3    H134270   3.925   6.552   8.527  0.4977  0.9088  1.0850
 4237TIP3    H234271   3.932   6.691   8.467 -0.5335  0.3941 -0.2768
 4238TIP3   OH234272   1.896   3.400   7.604  0.9914  0.7495 -0.0219
 4238TIP3    H134273   1.857   3.354   7.678  1.5954 -0.9514 -0.7232
 4238TIP3    H234274   1.825   3.455   7.571 -0.3466 -1.0593 -0.2736
 4239TIP3   OH234275   0.597   0.705   2.313  0.3380  0.5382 -0.0264
 4239TIP3    H134276   0.606   0.755   2.232 -2.6193  1.0111 -0.1904
 4239TIP3    H234277   0.667   0.640   2.309  2.6731  2.9420 -1.0588
 4240TIP3   OH234278   0.031   5.643   8.460  0.0215 -0.3716  1.0508
 4240TIP3    H134279   0.092   5.578   8.425  0.9909  1.7066 -1.4796
 4240TIP3    H234280   0.059   5.656   8.551  1.6855 -1.3481  0.7208
 4241TIP3   OH234281   4.311   6.103   8.201  0.0730 -0.4246  0.4216
 4241TIP3    H134282   4.320   6.016   8.237 -0.7732 -1.9037 -2.5840
 4241TIP3    H234283   4.400   6.139   8.202  0.0057 -0.0009  4.3873
 4242TIP3   OH234284   4.892   3.531   8.638 -0.4576  0.5962  0.1174
 4242TIP3    H134285   4.917   3.439   8.628 -1.4449  0.3305  0.0209
 4242TIP3    H234286   4.817   3.529   8.698  0.1931  1.4406  0.9843
 4243TIP3   OH234287   5.969   1.007   7.978 -0.0289  0.6661  0.3031
 4243TIP3    H134288   5.964   1.101   7.995 -0.7606  0.4520  1.3883
 4243TIP3    H234289   5.901   0.969   8.033  0.1796 -0.4922 -0.2103
 4244TIP3   OH234290   0.244   6.069   1.943  0.1598  0.1477 -0.1349
 4244TIP3    H134291   0.150   6.075   1.924 -0.0415 -0.3149  0.6870
 4244TIP3    H234292   0.261   6.136   2.009  1.1724  2.8393 -2.8927
 4245TIP3   OH234293   0.649   3.162   2.331 -0.1017 -0.3731  0.1745
 4245TIP3    H134294   0.558   3.137   2.348 -1.0630  0.9291 -2.5521
 4245TIP3    H234295   0.677   3.102   2.262 -0.2109  1.5804 -1.6587
 4246TIP3   OH234296   4.203   5.402   2.246 -0.4962  0.3324  0.0918
 4246TIP3    H134297   4.216   5.316   2.285  0.1473  0.7248  0.7629
 4246TIP3    H234298   4.183   5.460   2.320 -1.0237  0.7419 -0.3607
 4247TIP3   OH234299   0.802   6.697   8.292 -0.5133  0.3524  0.4535
 4247TIP3    H134300   0.746   6.753   8.239  1.4635  1.8463 -0.1797
 4247TIP3    H234301   0.792   6.729   8.381  1.5222  2.6839 -0.0513
 4248TIP3   OH234302   3.532   1.526   2.488 -0.1677 -0.0422 -0.6980
 4248TIP3    H134303   3.456   1.487   2.445 -0.4717  0.7462 -0.8828
 4248TIP3    H234304   3.528   1.619   2.465  1.4455 -0.1623 -1.5907
 4249TIP3   OH234305   2.082   1.231   1.447 -0.7273  0.5211 -0.2287
 4249TIP3    H134306   1.994   1.213   1.481 -0.3166 -0.2316  0.4689
 4249TIP3    H234307   2.082   1.325   1.429 -1.2999  0.7454  0.8727
 4250TIP3   OH234308   4.296   3.163   2.846 -0.1894  0.0358 -0.8045
 4250TIP3    H134309   4.333   3.128   2.927 -1.2810 -0.3896 -0.4661
 4250TIP3    H234310   4.204   3.137   2.849 -0.1703 -0.2694 -2.3564
 4251TIP3   OH234311   2.857   2.696   3.005 -0.1298 -0.1232 -0.3955
 4251TIP3    H134312   2.773   2.739   2.984  0.1191  1.5120  1.5845
 4251TIP3    H234313   2.922   2.749   2.959 -0.1225 -1.8111 -2.5214
 4252TIP3   OH234314   6.140   3.030   0.112 -0.5466  0.3464 -0.0557
 4252TIP3    H134315   6.202   3.061   0.178  0.4040 -0.8762 -0.3456
 4252TIP3    H234316   6.089   2.963   0.157 -0.6632  0.3038 -0.2506
 4253TIP3   OH234317   3.636   1.603   8.048  0.4417  0.4150  0.0249
 4253TIP3    H134318   3.542   1.610   8.028  0.2364 -1.7370  0.0075
 4253TIP3    H234319   3.639   1.547   8.125  1.7408  0.1057 -0.2361
 4254TIP3   OH234320   3.907   4.548   8.169 -0.3178 -0.4841 -0.5496
 4254TIP3    H134321   3.997   4.557   8.199  0.1003  0.1707 -1.9118
 4254TIP3    H234322   3.913   4.496   8.089 -0.7935  1.7194 -2.1231
 4255TIP3   OH234323   5.390   1.017   8.019 -0.4141  0.3701 -0.8004
 4255TIP3    H134324   5.370   1.104   8.055  1.4107  0.7520 -0.6043
 4255TIP3    H234325   5.419   0.966   8.094 -3.1205 -1.0289 -0.5883
 4256TIP3   OH234326   1.335   5.908   8.424  0.5133  0.3797  0.5389
 4256TIP3    H134327   1.258   5.852   8.435  0.1958  0.9351  1.2546
 4256TIP3    H234328   1.342   5.956   8.507  0.4256  1.8091 -0.2391
 4257TIP3   OH234329   0.929   2.370   0.461 -0.4898 -0.3707  0.0639
 4257TIP3    H134330   0.992   2.382   0.533 -0.3462  1.0959 -0.2721
 4257TIP3    H234331   0.943   2.280   0.432  1.4801 -0.0816 -0.0155
 4258TIP3   OH234332   5.474   1.519   2.128  0.0659 -0.2571 -0.0667
 4258TIP3    H134333   5.558   1.489   2.165  0.6451  1.2669 -0.0540
 4258TIP3    H234334   5.428   1.439   2.105  0.3740 -1.2568  2.4334
 4259TIP3   OH234335   2.112   6.635   7.808 -0.3863  0.1090 -0.2913
 4259TIP3    H134336   2.119   6.549   7.847 -0.2001  0.0055 -0.5527
 4259TIP3    H234337   2.140   6.623   7.717 -0.9559  0.3126 -0.5019
 4260TIP3   OH234338   4.203   0.552   0.665 -0.1802 -0.2124 -0.0940
 4260TIP3    H134339   4.159   0.584   0.586  1.8101 -1.1757 -1.7098
 4260TIP3    H234340   4.284   0.603   0.669  0.0429 -0.6232  0.9909
 4261TIP3   OH234341   4.652   4.167   0.172 -0.0551 -0.0279 -0.1262
 4261TIP3    H134342   4.675   4.195   0.083  0.9653 -0.3304  0.0228
 4261TIP3    H234343   4.682   4.077   0.178 -0.7454 -0.2372  0.3123
 4262TIP3   OH234344   4.576   3.405   1.533 -0.0721  0.2242 -0.3371
 4262TIP3    H134345   4.527   3.329   1.503 -0.4313 -0.1745  1.1629
 4262TIP3    H234346   4.523   3.442   1.603  0.2998  1.6218 -0.7709
 4263TIP3   OH234347   0.356   3.436   8.095 -0.2413 -0.5653  0.5361
 4263TIP3    H134348   0.359   3.525   8.131 -1.1630  0.3199 -1.4109
 4263TIP3    H234349   0.320   3.447   8.007  1.7996 -2.6011 -0.6611
 4264TIP3   OH234350   1.266   5.933   1.327  0.7159  0.5465  0.1807
 4264TIP3    H134351   1.314   6.009   1.292  1.3470 -0.2881 -0.8186
 4264TIP3    H234352   1.333   5.865   1.336 -0.0194 -0.1811  0.2009
 4265TIP3   OH234353   4.522   2.844   0.841  0.4769  0.7009  0.2681
 4265TIP3    H134354   4.605   2.875   0.877  0.0184  0.4171  1.6463
 4265TIP3    H234355   4.523   2.750   0.857 -0.5559  0.8412  1.3111
 4266TIP3   OH234356   0.281   0.333   7.873 -1.1645  0.0682 -0.0066
 4266TIP3    H134357   0.307   0.322   7.965  0.5363 -0.5312 -0.5150
 4266TIP3    H234358   0.306   0.250   7.831  0.0536  1.0863 -1.4108
 4267TIP3   OH234359   4.346   1.081   1.637  0.2525 -0.4928  0.3573
 4267TIP3    H134360   4.261   1.041   1.618  0.3495 -1.5233  1.9670
 4267TIP3    H234361   4.329   1.144   1.707  0.6587  0.0568 -0.0196
 4268TIP3   OH234362   2.594   1.945   2.901  0.0344  0.1105  0.2423
 4268TIP3    H134363   2.576   1.854   2.925  0.4389  0.3068  1.3798
 4268TIP3    H234364   2.558   1.996   2.973 -0.3474  0.8742 -0.4723
 4269TIP3   OH234365   0.240   6.144   7.782  0.7349  0.4274 -0.4380
 4269TIP3    H134366   0.240   6.146   7.686  0.6421 -0.4362 -0.4602
 4269TIP3    H234367   0.211   6.232   7.807 -1.0231  0.1099 -1.2058
 4270TIP3   OH234368   2.570   3.507   7.331  0.1410  0.4392  0.6725
 4270TIP3    H134369   2.657   3.543   7.344  0.2742 -0.0512  1.2290
 4270TIP3    H234370   2.557   3.448   7.406  0.9254 -2.5814 -1.3627
 4271TIP3   OH234371   3.171   0.148   2.951  0.5304  0.4293 -0.5871
 4271TIP3    H134372   3.141   0.192   3.030 -0.9735  0.6713 -1.2492
 4271TIP3    H234373   3.232   0.081   2.982 -0.8900 -0.2519  0.9080
 4272TIP3   OH234374   1.122   0.693   8.474  0.0241 -0.5247  0.7550
 4272TIP3    H134375   1.118   0.747   8.553  2.1903  1.2099 -0.2015
 4272TIP3    H234376   1.056   0.731   8.416  0.7162  0.3688  0.5315
 4273TIP3   OH234377   3.569   0.458   7.925 -0.1300  0.0953 -0.0427
 4273TIP3    H134378   3.643   0.416   7.882  0.0849 -0.0793  0.4950
 4273TIP3    H234379   3.498   0.394   7.918  0.1378 -0.2786  0.5896
 4274TIP3   OH234380   4.309   0.285   7.722  0.0381  0.0774 -0.4192
 4274TIP3    H134381   4.283   0.244   7.640  2.6953 -0.7190 -0.9725
 4274TIP3    H234382   4.339   0.213   7.777  1.1570  0.8880  0.0701
 4275TIP3   OH234383   4.811   2.139   0.952  0.7256 -0.0677 -0.7775
 4275TIP3    H134384   4.839   2.227   0.925 -1.3628  0.4533 -1.3993
 4275TIP3    H234385   4.730   2.123   0.903 -1.9051 -0.1538  3.2039
 4276TIP3   OH234386   0.949   2.577   0.255 -0.0552 -0.4127 -0.7376
 4276TIP3    H134387   1.038   2.600   0.284  0.4008 -1.1705 -1.5028
 4276TIP3    H234388   0.918   2.514   0.320 -1.0015  1.6419  0.9144
 4277TIP3   OH234389   3.602   4.930   0.671  0.1661 -0.0554  0.3756
 4277TIP3    H134390   3.524   4.874   0.673 -0.7113  1.0886  3.1439
 4277TIP3    H234391   3.568   5.019   0.670  1.5005  0.4800 -0.6607
 4278TIP3   OH234392   0.908   5.584   1.065  0.2852  0.0508 -0.1231
 4278TIP3    H134393   0.956   5.530   1.129 -0.1304  0.3705  0.4697
 4278TIP3    H234394   0.875   5.658   1.116 -0.0843  0.2981 -0.7086
 4279TIP3   OH234395   4.050   3.683   0.162 -0.1584 -0.5014  0.6252
 4279TIP3    H134396   4.130   3.727   0.192 -0.8173  1.9953 -0.9575
 4279TIP3    H234397   3.985   3.753   0.158 -1.8095 -2.0181 -0.3205
 4280TIP3   OH234398   0.643   1.861   8.736  0.1330 -0.5114 -0.2170
 4280TIP3    H134399   0.680   1.945   8.708  0.0369 -0.7916 -1.2210
 4280TIP3    H234400   0.684   1.797   8.678 -0.0443 -1.1259  0.3251
 4281TIP3   OH234401   5.526   1.805   0.465  0.2274  0.0328  0.0591
 4281TIP3    H134402   5.450   1.824   0.520  0.1132  2.3223 -0.7883
 4281TIP3    H234403   5.600   1.846   0.510  0.1535  1.8165 -1.3289
 4282TIP3   OH234404   3.039   0.650   0.157  0.6388  0.1679 -0.0468
 4282TIP3    H134405   3.014   0.603   0.237  0.9042  0.9355  0.5071
 4282TIP3    H234406   3.054   0.740   0.187  0.7129  0.4690 -0.9743
 4283TIP3   OH234407   1.406   5.615   2.335  0.2078  0.1580  0.1559
 4283TIP3    H134408   1.418   5.538   2.390 -0.1722 -1.0271 -1.3383
 4283TIP3    H234409   1.491   5.659   2.337  1.3047 -1.7705 -1.0439
 4284TIP3   OH234410   3.531   2.433   6.638 -0.3575  0.2701 -0.4014
 4284TIP3    H134411   3.587   2.379   6.583 -0.9631 -1.0345  0.2043
 4284TIP3    H234412   3.591   2.490   6.686  0.2066  1.0708 -1.9906
 4285TIP3   OH234413   4.956   2.644   0.189  0.0739  0.0200 -0.2368
 4285TIP3    H134414   5.028   2.695   0.225  0.1202 -0.5039  0.4406
 4285TIP3    H234415   4.935   2.580   0.258  0.4383 -1.2924 -1.3037
 4286TIP3   OH234416   5.540   3.685   7.273  0.0255 -0.1702  0.3282
 4286TIP3    H134417   5.591   3.765   7.284 -0.2743  0.0259  0.3042
 4286TIP3    H234418   5.567   3.651   7.187 -0.1317  0.1141  0.1638
 4287TIP3   OH234419   0.766   4.897   2.132  0.1910 -0.1432  0.9842
 4287TIP3    H134420   0.674   4.876   2.124  0.7461 -2.0691 -2.5885
 4287TIP3    H234421   0.808   4.816   2.161  0.8904  0.3622  1.4237
 4288TIP3   OH234422   3.928   1.783   0.382 -0.0707 -0.4258  0.2881
 4288TIP3    H134423   3.978   1.772   0.463 -1.8134  1.3490  1.7191
 4288TIP3    H234424   3.842   1.746   0.403 -1.6109  2.9622  0.5102
 4289TIP3   OH234425   0.026   0.487   7.640 -0.2047  0.1599 -0.6700
 4289TIP3    H134426  -0.067   0.467   7.630 -0.0056 -0.3685 -1.5163
 4289TIP3    H234427   0.044   0.474   7.733 -1.1710  1.1307 -0.3290
 4290TIP3   OH234428   4.273   6.774   2.197 -0.2883 -0.0545 -0.0987
 4290TIP3    H134429   4.294   6.682   2.212 -0.7980 -0.3845 -1.2591
 4290TIP3    H234430   4.181   6.773   2.168 -0.0603  0.7156 -0.9240
 4291TIP3   OH234431   0.791   3.679   7.540 -0.3865  0.0325  0.3883
 4291TIP3    H134432   0.738   3.606   7.506 -1.4907  1.5605 -1.3806
 4291TIP3    H234433   0.734   3.724   7.602 -0.6333  0.7771 -0.3555
 4292TIP3   OH234434   1.164   2.172   2.402  0.8485  0.1670 -0.2423
 4292TIP3    H134435   1.106   2.235   2.359 -0.5842  0.5165  1.9964
 4292TIP3    H234436   1.125   2.159   2.489  2.9314 -1.3199  0.5655
 4293TIP3   OH234437   1.003   3.863   1.418 -0.0295  0.1473  0.1909
 4293TIP3    H134438   0.936   3.888   1.354  0.8127 -2.3252 -1.8686
 4293TIP3    H234439   1.073   3.926   1.405 -0.1658  0.1011 -0.8601
 4294TIP3   OH234440   2.909   1.001   1.144  0.0109 -0.0162 -0.2996
 4294TIP3    H134441   2.904   1.037   1.233  0.7321 -0.0826 -0.2230
 4294TIP3    H234442   2.958   0.919   1.155 -1.8160 -1.1739 -0.4295
 4295TIP3   OH234443   2.440   4.181   6.668  0.3986 -0.4406  0.4320
 4295TIP3    H134444   2.407   4.110   6.723  0.4285 -0.1180  0.8708
 4295TIP3    H234445   2.369   4.246   6.669  0.4843 -0.3438  0.2568
 4296TIP3   OH234446   2.195   3.729   1.442  0.5863  0.2682  0.2498
 4296TIP3    H134447   2.244   3.807   1.415  0.8380 -0.2539 -0.8984
 4296TIP3    H234448   2.141   3.758   1.515 -2.5329  2.6882 -2.6455
 4297TIP3   OH234449   2.612   1.255   1.544 -0.0937  0.1222  0.4361
 4297TIP3    H134450   2.630   1.178   1.490 -1.0203 -0.3906  0.8363
 4297TIP3    H234451   2.517   1.266   1.539  0.1857  2.6420 -1.5009
 4298TIP3   OH234452   6.429   3.213   1.463 -0.4025  0.1348 -0.3106
 4298TIP3    H134453   6.473   3.152   1.522  0.8477  0.1421 -1.1984
 4298TIP3    H234454   6.362   3.161   1.420  0.7255 -0.6768 -1.1425
 4299TIP3   OH234455   4.424   4.248   0.925  0.2221  0.2384 -0.4736
 4299TIP3    H134456   4.346   4.281   0.880 -0.1840  2.7817  1.7945
 4299TIP3    H234457   4.390   4.192   0.994  0.5479 -0.0770 -0.5631
 4300TIP3   OH234458   0.002   6.149   7.073 -0.3893 -0.4648  0.3830
 4300TIP3    H134459  -0.050   6.225   7.096  1.6122  0.9164  0.5574
 4300TIP3    H234460  -0.001   6.146   6.977  0.8382  0.8499  0.2769
 4301TIP3   OH234461   3.925   1.102   1.655 -0.4602 -0.0799  0.3649
 4301TIP3    H134462   3.938   1.069   1.744  0.0683 -0.2232  0.2398
 4301TIP3    H234463   3.970   1.038   1.599 -1.3838 -0.3660 -0.0613
 4302TIP3   OH234464   1.476   0.880   2.254 -0.2021  0.4517  0.4569
 4302TIP3    H134465   1.517   0.794   2.248 -1.4038 -0.0538 -1.3590
 4302TIP3    H234466   1.432   0.891   2.170 -2.3629  1.6705  1.6683
 4303TIP3   OH234467   2.507   6.737   8.362 -0.4903 -0.1512  0.1715
 4303TIP3    H134468   2.547   6.664   8.315 -0.7285 -0.6339  0.7071
 4303TIP3    H234469   2.458   6.785   8.294  0.5677  0.1632 -0.3913
 4304TIP3   OH234470   2.326   5.523   0.610  0.3123  0.8939 -0.3383
 4304TIP3    H134471   2.359   5.593   0.667 -0.2945  1.0772 -0.2007
 4304TIP3    H234472   2.238   5.506   0.643  0.2967  0.3652 -0.6516
 4305TIP3   OH234473   4.130   3.170   0.610 -0.4777  0.5442 -0.1678
 4305TIP3    H134474   4.078   3.141   0.534 -1.1187  0.1032  0.4292
 4305TIP3    H234475   4.077   3.239   0.650 -0.0603  0.8933 -0.2149
 4306TIP3   OH234476   2.199   1.679   0.615  0.2487  0.3794  0.5694
 4306TIP3    H134477   2.273   1.667   0.555 -0.9757 -0.4485 -0.8327
 4306TIP3    H234478   2.200   1.601   0.670 -0.3047 -0.2435 -0.2833
 4307TIP3   OH234479   2.969   3.900   6.767 -0.8305  0.0943 -0.1953
 4307TIP3    H134480   2.959   3.991   6.794 -4.6811 -0.5284  1.2146
 4307TIP3    H234481   2.909   3.890   6.693  0.3273 -1.0881 -1.0136
 4308TIP3   OH234482   5.608   1.257   7.019  0.4968 -0.1109 -0.2663
 4308TIP3    H134483   5.655   1.330   6.977 -0.5942 -0.2460 -1.8309
 4308TIP3    H234484   5.517   1.269   6.992  0.4032 -2.4887 -1.2395
 4309TIP3   OH234485   5.937   3.343   7.681 -0.4768  0.1479 -0.1278
 4309TIP3    H134486   5.859   3.382   7.720  0.0395 -0.0073  1.1085
 4309TIP3    H234487   5.936   3.252   7.710 -0.2571 -0.0712 -0.7763
 4310TIP3   OH234488   0.139   0.782   2.355 -0.0232  0.1750  0.0844
 4310TIP3    H134489   0.202   0.739   2.298  0.5399 -0.6527  1.2978
 4310TIP3    H234490   0.171   0.871   2.364 -0.3693  0.4624 -1.2222
 4311TIP3   OH234491   6.355   3.749   0.876 -0.1757  0.8977  0.8850
 4311TIP3    H134492   6.300   3.777   0.950 -0.1107 -0.7171  1.5696
 4311TIP3    H234493   6.392   3.665   0.903 -1.5895 -0.6874 -1.6650
 4312TIP3   OH234494   0.017   0.230   8.412  0.2817 -0.2432  0.3227
 4312TIP3    H134495   0.051   0.195   8.329  2.2409  1.7335  0.1853
 4312TIP3    H234496  -0.006   0.320   8.392 -3.3555 -0.8755  0.9729
 4313TIP3   OH234497   1.437   5.732   2.964  0.0198 -0.2958 -0.0030
 4313TIP3    H134498   1.354   5.690   2.944  1.1131 -2.5478 -0.1333
 4313TIP3    H234499   1.503   5.673   2.929  1.7019  1.2386  0.4174
 4314TIP3   OH234500   5.065   0.689   1.677  0.1225 -0.0028  0.4267
 4314TIP3    H134501   5.119   0.613   1.699 -1.0250 -1.5286 -1.6759
 4314TIP3    H234502   4.975   0.662   1.697 -0.1864  1.2955  0.8737
 4315TIP3   OH234503   5.024   6.053   8.173 -0.2727 -0.2406 -0.5696
 4315TIP3    H134504   4.934   6.037   8.142 -1.5026  0.5708  2.2326
 4315TIP3    H234505   5.065   5.966   8.173  0.0687 -0.2467 -4.7052
 4316TIP3   OH234506   6.745   2.944   7.800  0.4043 -0.0200 -0.1041
 4316TIP3    H134507   6.732   2.867   7.744 -3.7456  0.3785  0.0385
 4316TIP3    H234508   6.741   3.018   7.740  1.2506  0.2498  0.1543
 4317TIP3   OH234509   4.283   4.663   7.339  0.1032  0.0979 -0.0271
 4317TIP3    H134510   4.310   4.698   7.253 -0.5952 -0.4071 -0.4632
 4317TIP3    H234511   4.203   4.712   7.360  1.5076  1.8895  1.4537
 4318TIP3   OH234512   2.913   5.520   2.065 -0.1294 -0.0413  0.0069
 4318TIP3    H134513   2.979   5.567   2.116  1.3910 -1.0014 -0.9838
 4318TIP3    H234514   2.870   5.462   2.128  1.2029 -0.6627  0.3880
 4319TIP3   OH234515   2.261   4.577   2.293  0.4346 -0.2243  0.0953
 4319TIP3    H134516   2.283   4.535   2.375  2.2187 -0.1284 -0.2911
 4319TIP3    H234517   2.336   4.633   2.273 -0.5099  0.7430 -0.9606
 4320TIP3   OH234518   0.044   1.031   1.381 -0.0563  0.3534  0.1125
 4320TIP3    H134519   0.075   0.950   1.423 -2.7622 -0.5955  0.4497
 4320TIP3    H234520   0.022   1.089   1.453  0.3929  0.8181 -0.1153
 4321TIP3   OH234521   6.650   4.881   2.673 -0.3990  0.5275 -0.1274
 4321TIP3    H134522   6.736   4.914   2.648  0.2061 -0.0135  1.1493
 4321TIP3    H234523   6.591   4.956   2.664  0.4956  1.3185  0.4599
 4322TIP3   OH234524   0.446   6.164   2.120  0.0650  0.2510 -0.5061
 4322TIP3    H134525   0.539   6.183   2.130 -0.3805  1.6250  1.6865
 4322TIP3    H234526   0.425   6.190   2.030  1.4056  1.7168 -0.4312
 4323TIP3   OH234527   6.575   0.553   8.269 -0.1182  0.1155  0.2188
 4323TIP3    H134528   6.650   0.563   8.328  0.0485 -0.1527  0.0533
 4323TIP3    H234529   6.558   0.459   8.268  0.1109  0.0790 -0.4490
 4324TIP3   OH234530   0.125   1.867   7.689  0.6214 -0.7854 -0.2211
 4324TIP3    H134531   0.104   1.858   7.596 -3.5503 -3.7332  0.7353
 4324TIP3    H234532   0.066   1.936   7.721  1.7543 -0.0548  0.3754
 4325TIP3   OH234533   6.778   6.102   1.861  0.2726  0.3947  0.7351
 4325TIP3    H134534   6.799   6.066   1.775  1.1504  0.2659  0.9921
 4325TIP3    H234535   6.715   6.172   1.843  0.2234  0.1751  0.0203
 4326TIP3   OH234536   0.558   2.379   1.046 -0.2509  0.6086  0.3603
 4326TIP3    H134537   0.488   2.354   0.986  0.3332  1.0801 -0.5438
 4326TIP3    H234538   0.623   2.310   1.036 -0.7419 -0.0435  1.4994
 4327TIP3   OH234539   2.971   4.491   7.886 -0.1742 -0.5088  0.4330
 4327TIP3    H134540   3.002   4.419   7.940 -1.3459 -0.9606  0.5309
 4327TIP3    H234541   3.035   4.561   7.900  0.0661 -0.9490  1.6517
 4328TIP3   OH234542   1.432   4.991   1.292 -0.5638  0.4042 -0.2245
 4328TIP3    H134543   1.439   5.017   1.384 -1.2810 -0.3425  0.0559
 4328TIP3    H234544   1.471   5.063   1.244  0.1057  0.6688  0.6828
 4329TIP3   OH234545   5.222   3.355   7.575 -0.1795 -0.6453 -0.2657
 4329TIP3    H134546   5.286   3.330   7.641  2.0875 -1.5928 -2.6496
 4329TIP3    H234547   5.263   3.427   7.527 -2.7321  1.6028  0.6840
 4330TIP3   OH234548   6.572   6.454   0.688 -0.0683  0.0727  0.3460
 4330TIP3    H134549   6.513   6.388   0.725 -1.9245  1.0658 -0.6907
 4330TIP3    H234550   6.590   6.513   0.761 -0.3625 -0.2315  0.6726
 4331TIP3   OH234551   6.291   0.344   0.360  0.2498  0.4480  0.7555
 4331TIP3    H134552   6.197   0.358   0.358  0.3781  1.2789  0.1153
 4331TIP3    H234553   6.329   0.431   0.352  1.0810  0.0181 -0.2490
 4332TIP3   OH234554   2.430   5.214   2.767  0.4778  0.1954 -0.1478
 4332TIP3    H134555   2.460   5.295   2.726  1.0075 -0.3669 -0.8694
 4332TIP3    H234556   2.458   5.223   2.859  1.5360  0.3284 -0.4765
 4333TIP3   OH234557   6.618   4.113   1.319 -0.2258  0.0948  0.7238
 4333TIP3    H134558   6.559   4.044   1.348  0.0863 -0.2711  0.4906
 4333TIP3    H234559   6.676   4.071   1.256 -0.4929  0.7421  0.0355
 4334TIP3   OH234560   6.085   4.036   8.663  0.3023 -0.7732  0.3329
 4334TIP3    H134561   6.092   4.083   8.580  0.9078 -1.0760  0.2089
 4334TIP3    H234562   6.151   4.077   8.720 -0.0218 -0.6497  0.6221
 4335TIP3   OH234563   3.969   1.712   2.358  0.2319  0.0428 -0.0533
 4335TIP3    H134564   3.972   1.807   2.365  0.0493 -0.0207  1.2587
 4335TIP3    H234565   3.999   1.681   2.444 -0.2950 -1.0754 -0.2515
 4336TIP3   OH234566   2.854   5.135   0.420  0.3663  0.0960  0.1522
 4336TIP3    H134567   2.768   5.153   0.383  0.8091  3.6583  0.5666
 4336TIP3    H234568   2.836   5.082   0.498 -1.4569  0.9057  0.3208
 4337TIP3   OH234569   1.936   4.536   7.439  0.2405 -0.3400 -0.6139
 4337TIP3    H134570   1.876   4.465   7.417 -0.5273  0.0455  0.1666
 4337TIP3    H234571   1.880   4.613   7.446  0.8586  0.0695 -0.0710
 4338TIP3   OH234572   3.415   6.173   1.095  0.2964  0.4401  0.0693
 4338TIP3    H134573   3.396   6.083   1.122 -2.9761  0.7805 -0.6744
 4338TIP3    H234574   3.354   6.190   1.024  1.2112  3.0867 -0.1813
 4339TIP3   OH234575   3.795   2.159   8.375  0.5427  0.2046  0.6494
 4339TIP3    H134576   3.890   2.149   8.370  0.5596 -0.2833  1.6013
 4339TIP3    H234577   3.782   2.249   8.405  0.6609  0.6302 -0.5514
 4340TIP3   OH234578   6.338   0.134   8.095 -0.4340  0.4087 -0.1204
 4340TIP3    H134579   6.342   0.109   8.002  1.0007  1.6535 -0.4315
 4340TIP3    H234580   6.245   0.155   8.110 -1.2666 -2.6220 -0.4392
 4341TIP3   OH234581   0.280   3.757   7.453  0.4371 -0.0504  0.3237
 4341TIP3    H134582   0.224   3.834   7.461  0.6196  0.4900 -2.5264
 4341TIP3    H234583   0.220   3.687   7.427  0.7364 -0.0238 -0.4608
 4342TIP3   OH234584   5.126   2.545   8.207 -0.0818  0.5798 -0.0800
 4342TIP3    H134585   5.060   2.601   8.167  0.1226  0.6154 -0.3682
 4342TIP3    H234586   5.095   2.532   8.297 -2.7411 -2.8389 -1.2700
 4343TIP3   OH234587   4.917   5.965   0.821  0.0119 -0.3203 -0.0833
 4343TIP3    H134588   4.957   5.919   0.747 -0.6038 -1.1921  0.1092
 4343TIP3    H234589   4.907   5.898   0.888  0.7904  0.5100  0.8994
 4344TIP3   OH234590   4.824   0.292   0.470 -0.3262 -0.3416  0.1053
 4344TIP3    H134591   4.919   0.283   0.476 -0.0910  1.4116 -0.2406
 4344TIP3    H234592   4.793   0.206   0.442  1.3084 -0.5869 -1.1192
 4345TIP3   OH234593   2.122   1.899   2.385 -0.2089 -0.2091  0.0484
 4345TIP3    H134594   2.192   1.918   2.323  0.1817 -0.3347  0.4499
 4345TIP3    H234595   2.087   1.815   2.356  0.4889 -0.6484  0.4568
 4346TIP3   OH234596   3.614   3.134   0.585 -0.0638 -0.9888 -0.8361
 4346TIP3    H134597   3.575   3.058   0.542  0.7024 -0.7749 -1.9562
 4346TIP3    H234598   3.542   3.198   0.590 -0.2245 -1.0975 -1.6289
 4347TIP3   OH234599   5.458   1.215   2.888  0.5164 -0.2362  0.0209
 4347TIP3    H134600   5.391   1.176   2.832 -0.4989  0.0646  0.9878
 4347TIP3    H234601   5.514   1.142   2.913  0.7532 -0.4363 -1.0633
 4348TIP3   OH234602   6.728   0.669   1.077  0.4802 -0.1039 -0.0290
 4348TIP3    H134603   6.652   0.664   1.019 -0.5751  0.4742  1.2486
 4348TIP3    H234604   6.774   0.586   1.063 -1.4820 -1.3918  0.5791
 4349TIP3   OH234605   1.860   1.932   7.696  0.1386  0.2073  0.1719
 4349TIP3    H134606   1.777   1.885   7.712 -0.8648  1.9328  0.3083
 4349TIP3    H234607   1.895   1.892   7.617 -0.1464 -1.4528  0.8503
 4350TIP3   OH234608   6.224   1.458   1.859  0.2476 -0.3983  0.8167
 4350TIP3    H134609   6.168   1.467   1.782  1.4048 -0.2599 -0.0345
 4350TIP3    H234610   6.207   1.536   1.911 -0.2854 -0.3227  0.5348
 4351TIP3   OH234611   2.474   0.028   2.429 -0.7761  0.4078 -0.3241
 4351TIP3    H134612   2.425  -0.054   2.441  0.6954 -0.6260 -0.9689
 4351TIP3    H234613   2.413   0.087   2.386 -1.4566 -0.8704 -1.1865
 4352TIP3   OH234614   3.712   3.212   1.124  0.2131 -0.4048 -0.9966
 4352TIP3    H134615   3.635   3.174   1.165  1.0251 -1.7332 -0.6356
 4352TIP3    H234616   3.680   3.290   1.079 -1.0571 -0.0458  0.4507
 4353TIP3   OH234617   0.930   2.140   0.741 -0.1323 -0.4839 -0.3100
 4353TIP3    H134618   0.997   2.078   0.713 -0.8394 -1.9933  1.1646
 4353TIP3    H234619   0.875   2.152   0.664  0.3263 -1.3029 -0.7795
 4354TIP3   OH234620   5.163   5.484   2.213 -0.1881  0.2604 -0.1766
 4354TIP3    H134621   5.226   5.550   2.242  0.7093 -0.7162  0.1188
 4354TIP3    H234622   5.199   5.450   2.132 -1.5040  1.2888 -1.2632
 4355TIP3   OH234623   0.776   4.942   1.838 -0.3285  0.1251  0.5985
 4355TIP3    H134624   0.848   4.908   1.785 -2.3705 -0.5457 -1.9686
 4355TIP3    H234625   0.799   4.918   1.928  2.4712 -0.2751 -0.1297
 4356TIP3   OH234626   1.184   3.578   2.416  0.1226  0.0586 -0.2895
 4356TIP3    H134627   1.175   3.620   2.330 -0.3923  1.1536  0.2888
 4356TIP3    H234628   1.189   3.650   2.478 -1.8094 -0.7124  0.8367
 4357TIP3   OH234629   4.664   1.526   0.022 -0.2390 -0.0892 -0.1574
 4357TIP3    H134630   4.648   1.465   0.093 -1.9480  1.2946  0.7481
 4357TIP3    H234631   4.622   1.486  -0.054  1.7365 -1.6537 -0.4909
 4358TIP3   OH234632   2.386   5.073   8.237  0.5036 -0.1310  0.5165
 4358TIP3    H134633   2.335   5.135   8.184  0.7231 -1.2330 -1.0543
 4358TIP3    H234634   2.323   5.007   8.263  0.7632 -0.5404  0.1084
 4359TIP3   OH234635   5.422   1.846   0.191 -0.1054  0.0752 -0.3120
 4359TIP3    H134636   5.368   1.915   0.228  0.1877  1.7171 -2.7422
 4359TIP3    H234637   5.494   1.835   0.254  0.4288  2.7677 -0.3484
 4360TIP3   OH234638   5.215   5.284   0.179  0.0127  0.3118 -0.6814
 4360TIP3    H134639   5.127   5.318   0.195 -0.6008 -0.1725 -2.7222
 4360TIP3    H234640   5.203   5.190   0.164  0.9672  0.1219 -0.3731
 4361TIP3   OH234641   1.958   6.235   7.861  0.0356 -0.2388 -0.1580
 4361TIP3    H134642   2.034   6.221   7.917  1.0106  1.0727 -1.0847
 4361TIP3    H234643   1.941   6.150   7.821  1.4240 -0.4093 -0.4213
 4362TIP3   OH234644   3.577   3.180   8.358 -0.3130  0.1955  0.0774
 4362TIP3    H134645   3.554   3.181   8.452 -0.2290 -0.2038  0.1028
 4362TIP3    H234646   3.495   3.159   8.314  0.0037 -1.3502  0.1765
 4363TIP3   OH234647   6.126   2.994   2.177  0.4009 -0.0118 -0.5680
 4363TIP3    H134648   6.209   3.028   2.145  0.0002 -0.8563 -2.6855
 4363TIP3    H234649   6.061   3.058   2.148  0.2243  0.3333  0.5458
 4364TIP3   OH234650   2.885   3.072   1.295  0.2601  0.6259  0.4502
 4364TIP3    H134651   2.862   3.163   1.276 -2.7892 -0.3296 -0.9437
 4364TIP3    H234652   2.802   3.027   1.303  1.6757 -2.2803  0.0509
 4365TIP3   OH234653   0.440   4.043   2.688  0.0575  0.3047 -0.2681
 4365TIP3    H134654   0.439   3.990   2.768 -1.1034 -3.0541 -2.2891
 4365TIP3    H234655   0.349   4.043   2.659  0.8635 -1.3281 -3.1450
 4366TIP3   OH234656   2.628   3.052   7.858 -0.0410  0.1275  0.1311
 4366TIP3    H134657   2.710   3.100   7.858  0.1880 -0.2551 -0.3676
 4366TIP3    H234658   2.649   2.969   7.902 -0.4065  0.4223  0.8928
 4367TIP3   OH234659   5.177   5.631   0.942 -0.3819 -0.3049  0.5289
 4367TIP3    H134660   5.210   5.661   1.027 -1.1090  1.1958  0.3210
 4367TIP3    H234661   5.256   5.617   0.890  0.0278  0.3862  0.9441
 4368TIP3   OH234662   4.496   4.894   1.918 -0.4419  0.0762 -0.5629
 4368TIP3    H134663   4.549   4.817   1.893  1.1402  0.8066  0.3728
 4368TIP3    H234664   4.407   4.861   1.923  0.3734 -2.1178  1.3192
 4369TIP3   OH234665   5.388   0.249   7.105  0.2305 -0.2052  0.1615
 4369TIP3    H134666   5.421   0.193   7.035  0.2451  0.8021 -0.6748
 4369TIP3    H234667   5.466   0.293   7.139  0.1050  0.0678  0.1036
 4370TIP3   OH234668   1.123   4.251   0.834 -0.3242 -0.1993 -0.4081
 4370TIP3    H134669   1.054   4.310   0.803 -0.4233 -0.0047  0.1762
 4370TIP3    H234670   1.083   4.205   0.908  0.7430  1.2086  1.0962
 4371TIP3   OH234671   4.808   6.792   1.522  0.1162  0.3011 -0.3995
 4371TIP3    H134672   4.826   6.808   1.615 -0.9489 -1.5568  0.1791
 4371TIP3    H234673   4.726   6.838   1.506 -1.8868 -2.5438  0.7433
 4372TIP3   OH234674   3.164   2.604   7.998 -0.6501 -0.0053  0.3032
 4372TIP3    H134675   3.242   2.574   8.044 -0.4588 -1.5238 -0.9149
 4372TIP3    H234676   3.092   2.589   8.060 -0.6414 -3.6472 -0.3318
 4373TIP3   OH234677   4.767   5.400   0.434  0.3756  0.2912 -0.0470
 4373TIP3    H134678   4.682   5.419   0.393  1.0297  0.8948 -1.1777
 4373TIP3    H234679   4.747   5.387   0.526 -1.0063  0.0071 -0.3710
 4374TIP3   OH234680   5.409   2.548   1.393 -0.5575  0.4600  0.1433
 4374TIP3    H134681   5.370   2.596   1.320  0.0288  3.9575  1.9028
 4374TIP3    H234682   5.344   2.555   1.463 -0.6397 -1.8791  0.3688
 4375TIP3   OH234683   0.248   3.192   7.617  0.2216 -0.1981  0.5672
 4375TIP3    H134684   0.261   3.267   7.559  0.3804  0.1712  1.0694
 4375TIP3    H234685   0.266   3.116   7.562  0.0961  0.1292  0.0601
 4376TIP3   OH234686   4.684   5.966   8.443 -0.1717  0.0717 -0.2677
 4376TIP3    H134687   4.717   5.918   8.367 -0.5246 -0.3100 -0.1794
 4376TIP3    H234688   4.590   5.975   8.427 -0.4110 -0.8474  0.5778
 4377TIP3   OH234689   5.303   3.257   7.196 -0.0259  0.2206  0.2103
 4377TIP3    H134690   5.322   3.327   7.133  0.3976 -0.9403 -1.0120
 4377TIP3    H234691   5.382   3.204   7.196 -0.9907 -1.2759 -0.2941
 4378TIP3   OH234692   2.798   6.346   1.622 -0.4210  0.4230  0.7240
 4378TIP3    H134693   2.738   6.278   1.652  0.9773 -1.2301 -0.0578
 4378TIP3    H234694   2.816   6.398   1.700 -1.3702 -0.2219  1.3973
 4379TIP3   OH234695   1.759   2.928   0.258 -0.1072  0.3643 -0.3430
 4379TIP3    H134696   1.718   2.949   0.174  0.9946  0.3121 -0.9052
 4379TIP3    H234697   1.742   3.004   0.312 -2.1363 -0.2038 -0.0856
 4380TIP3   OH234698   1.519   1.000   2.747 -0.3757  0.3559  0.3593
 4380TIP3    H134699   1.444   0.987   2.804  0.8690 -0.4546  1.8862
 4380TIP3    H234700   1.575   1.062   2.793  0.1561  0.5498 -0.5120
 4381TIP3   OH234701   2.927   0.293   8.681  0.0340  0.2206  0.1732
 4381TIP3    H134702   2.876   0.363   8.640  1.6356  0.4326 -1.5816
 4381TIP3    H234703   2.959   0.240   8.608  2.6832  0.3711  1.1107
 4382TIP3   OH234704   2.372   4.756   8.490  0.0833  0.6287 -0.1445
 4382TIP3    H134705   2.465   4.774   8.475  0.2882  1.1198  1.4737
 4382TIP3    H234706   2.371   4.675   8.541 -0.4300  0.2162 -0.8004
 4383TIP3   OH234707   4.429   0.890   2.390 -0.5730 -0.2236  0.2070
 4383TIP3    H134708   4.488   0.962   2.364 -1.8133  1.1324  0.9758
 4383TIP3    H234709   4.402   0.850   2.307  1.1720 -0.7087 -0.1760
 4384TIP3   OH234710   6.549   4.334   1.905 -0.1920  0.0759  0.1808
 4384TIP3    H134711   6.485   4.334   1.976  2.4104  0.9218  2.7160
 4384TIP3    H234712   6.527   4.411   1.852 -1.9573 -0.3641  0.2068
 4385TIP3   OH234713   0.623   3.542   8.396  0.0787 -0.3012  0.0503
 4385TIP3    H134714   0.541   3.523   8.351 -0.2001 -0.7514  0.7227
 4385TIP3    H234715   0.602   3.613   8.456 -0.1015 -1.1289  0.9897
 4386TIP3   OH234716   4.534   6.573   2.524 -0.4442 -0.4840 -0.2322
 4386TIP3    H134717   4.586   6.651   2.502  1.6138 -1.6881  0.1566
 4386TIP3    H234718   4.483   6.600   2.601  1.2459  0.1152  0.7337
 4387TIP3   OH234719   6.771   0.518   8.484  0.4698  0.2546 -0.1452
 4387TIP3    H134720   6.840   0.506   8.550 -0.1815  0.4954  0.6001
 4387TIP3    H234721   6.696   0.552   8.534  0.1621  1.0426 -1.1216
 4388TIP3   OH234722   3.262   2.198   1.198  0.2108 -0.3024 -0.6417
 4388TIP3    H134723   3.341   2.170   1.152  1.0661 -0.5341  0.8843
 4388TIP3    H234724   3.289   2.277   1.245 -1.2178  1.1632 -2.1506
 4389TIP3   OH234725   6.726   4.207   1.627  0.1348 -0.0650 -0.2318
 4389TIP3    H134726   6.796   4.157   1.584  0.1623  0.8890 -1.3297
 4389TIP3    H234727   6.649   4.151   1.619  0.3037 -0.2148 -0.9145
 4390TIP3   OH234728   0.663   5.770   8.431 -0.2908 -0.3368  0.1287
 4390TIP3    H134729   0.681   5.802   8.343 -1.8427  2.3804  0.6960
 4390TIP3    H234730   0.568   5.757   8.433 -0.4113  0.4928  1.6234
 4391TIP3   OH234731   0.826   1.463   7.377 -0.2618 -0.0222  0.1137
 4391TIP3    H134732   0.861   1.375   7.387 -0.7391 -0.2969 -0.6054
 4391TIP3    H234733   0.858   1.492   7.292  1.1939  1.1126  0.9861
 4392TIP3   OH234734   2.190   3.878   7.510  0.0437  0.8630  0.5090
 4392TIP3    H134735   2.263   3.823   7.480  0.1520  1.4491 -0.3315
 4392TIP3    H234736   2.113   3.822   7.502  0.2894  0.4885  0.6897
 4393TIP3   OH234737   4.986   4.128   7.311  0.6707 -0.6438  0.1232
 4393TIP3    H134738   4.939   4.109   7.230  2.3946 -0.6965 -0.9208
 4393TIP3    H234739   5.056   4.062   7.313  1.9458  0.6779  0.5357
 4394TIP3   OH234740   5.144   4.555   0.505  0.3026  0.0300  0.6744
 4394TIP3    H134741   5.156   4.632   0.562 -0.7497  0.4558  0.3480
 4394TIP3    H234742   5.067   4.511   0.541 -0.7379  0.6291 -0.7440
 4395TIP3   OH234743   5.214   6.681   7.707 -0.0694  0.3673  0.0938
 4395TIP3    H134744   5.158   6.623   7.654  2.8314 -1.3478 -1.3443
 4395TIP3    H234745   5.176   6.768   7.694 -2.3579 -0.6632 -0.7728
 4396TIP3   OH234746   5.619   2.403   0.585  0.3898 -0.5345 -0.2768
 4396TIP3    H134747   5.573   2.408   0.501 -2.9457 -2.4147  1.2608
 4396TIP3    H234748   5.655   2.491   0.598 -1.3092  0.5706 -2.4406
 4397TIP3   OH234749   2.282   5.895   2.479  0.1299 -0.0422 -0.5150
 4397TIP3    H134750   2.266   5.949   2.402  0.4494  0.5272 -0.1910
 4397TIP3    H234751   2.323   5.954   2.542  0.7936 -0.7486 -0.2721
 4398TIP3   OH234752   5.267   2.159   1.302 -0.5625 -0.6179 -0.4600
 4398TIP3    H134753   5.256   2.072   1.341  0.4001  0.2905  2.0620
 4398TIP3    H234754   5.187   2.207   1.325  0.4841  0.2761  1.5480
 4399TIP3   OH234755   1.955   5.034   1.089  0.1277 -0.3955  0.1329
 4399TIP3    H134756   1.937   5.010   0.998 -1.3155  2.3090 -0.4029
 4399TIP3    H234757   2.039   5.081   1.085  0.9743 -1.8093  0.5445
 4400TIP3   OH234758   4.118   6.761   0.791  0.0132 -0.0452  0.5894
 4400TIP3    H134759   4.203   6.777   0.832  0.4341  1.7403 -0.8833
 4400TIP3    H234760   4.135   6.766   0.697 -1.7086  0.2104  0.2609
 4401TIP3   OH234761   1.656   2.694   2.702 -0.0826  0.3745  0.1342
 4401TIP3    H134762   1.572   2.662   2.671  0.9970 -1.9865 -0.5612
 4401TIP3    H234763   1.637   2.780   2.738 -2.5888  0.3574 -0.9635
 4402TIP3   OH234764   2.573   0.637   7.783  0.2270  0.0157  0.3590
 4402TIP3    H134765   2.666   0.661   7.787  0.2294  1.1420 -2.8887
 4402TIP3    H234766   2.572   0.556   7.732 -0.5307 -0.5456  1.2514
 4403TIP3   OH234767   4.007   5.967   2.788  0.2748 -0.4409 -0.5881
 4403TIP3    H134768   3.975   5.878   2.802  1.0375 -0.4392  1.5394
 4403TIP3    H234769   3.933   6.023   2.810 -0.0261 -0.5252 -1.3631
 4404TIP3   OH234770   0.642   1.788   7.726  0.3134  0.2101 -0.5021
 4404TIP3    H134771   0.723   1.746   7.697  0.8599  0.1906  0.9522
 4404TIP3    H234772   0.670   1.874   7.757  0.0289 -0.3199  1.3366
 4405TIP3   OH234773   3.724   3.700   8.780  0.3614  0.4475  0.4052
 4405TIP3    H134774   3.674   3.682   8.701  1.0206  2.2629 -0.4864
 4405TIP3    H234775   3.712   3.622   8.835 -1.3179 -0.2264 -0.8342
 4406TIP3   OH234776   0.565   3.015   0.427  0.3651 -0.2326 -0.4372
 4406TIP3    H134777   0.509   3.036   0.501  1.5410  0.0356  0.4163
 4406TIP3    H234778   0.628   2.951   0.462  0.7236 -0.3748 -1.3004
 4407TIP3   OH234779   1.045   5.990   2.456 -0.5647 -0.0406 -0.3102
 4407TIP3    H134780   1.075   5.904   2.485 -4.2285 -1.4043  0.0021
 4407TIP3    H234781   1.036   5.981   2.361 -0.4123  0.1987 -0.3484
 4408TIP3   OH234782   1.849   5.268   8.424  0.0987  0.4102 -0.0309
 4408TIP3    H134783   1.820   5.318   8.501 -1.8046  0.4843 -0.7265
 4408TIP3    H234784   1.903   5.198   8.460 -0.2112  0.8231  1.3153
 4409TIP3   OH234785   3.677   0.555   7.518 -0.3002 -0.2493  1.0433
 4409TIP3    H134786   3.768   0.528   7.504 -0.7661 -1.7644  0.6789
 4409TIP3    H234787   3.662   0.622   7.451  0.0081 -1.3645 -0.1982
 4410TIP3   OH234788   6.663   6.323   1.742 -0.4734  0.0807 -0.3532
 4410TIP3    H134789   6.643   6.308   1.649 -0.9287 -0.1258 -0.2244
 4410TIP3    H234790   6.662   6.418   1.751  0.5929  0.1480 -0.7774
 4411TIP3   OH234791   6.479   1.426   1.216  0.1831 -0.5487  0.3089
 4411TIP3    H134792   6.531   1.478   1.277 -1.1614 -0.0483  1.0930
 4411TIP3    H234793   6.527   1.343   1.207  1.4417  0.1495  0.4423
 4412TIP3   OH234794   1.156   3.973   0.715 -0.3583 -0.4656  0.3626
 4412TIP3    H134795   1.072   3.928   0.707 -0.2004 -0.6786 -0.1773
 4412TIP3    H234796   1.133   4.061   0.745 -0.7696 -0.5349  0.2640
 4413TIP3   OH234797   3.859   1.228   7.905 -0.0170 -0.1032 -0.0892
 4413TIP3    H134798   3.864   1.135   7.881 -1.9969 -0.1552 -0.4706
 4413TIP3    H234799   3.768   1.240   7.933  0.6698  1.3353  1.6531
 4414TIP3   OH234800   1.670   3.303   1.316 -0.0416 -0.3623 -0.3320
 4414TIP3    H134801   1.667   3.256   1.399  2.6930 -1.6292 -0.8648
 4414TIP3    H234802   1.748   3.358   1.322 -0.8190  0.9248 -1.3957
 4415TIP3   OH234803   3.569   2.884   0.473  0.1188  0.2148  0.7555
 4415TIP3    H134804   3.497   2.821   0.484 -1.4586  1.2013 -2.5044
 4415TIP3    H234805   3.643   2.831   0.444  0.4663 -0.6717  3.0319
 4416TIP3   OH234806   2.604   2.053   8.395  0.1962 -0.3063 -0.2593
 4416TIP3    H134807   2.534   2.101   8.351  0.9673  1.5632  0.4717
 4416TIP3    H234808   2.653   2.011   8.324 -0.7965 -0.4625 -0.8750
 4417TIP3   OH234809   5.151   0.613   0.941  0.1505 -0.0244  0.6864
 4417TIP3    H134810   5.089   0.573   0.879  3.3594 -1.0835 -2.1535
 4417TIP3    H234811   5.145   0.707   0.923  0.3843 -0.2447 -0.6220
 4418TIP3   OH234812   0.491   0.673   1.273  0.3595  0.2139  0.0631
 4418TIP3    H134813   0.487   0.579   1.287  0.7663  0.2459  0.4014
 4418TIP3    H234814   0.544   0.684   1.194 -0.3372  0.1270 -0.4270
 4419TIP3   OH234815   0.919   2.742   2.656  0.4455 -0.0871 -0.5512
 4419TIP3    H134816   0.899   2.815   2.714  0.2022 -1.0122  0.5851
 4419TIP3    H234817   0.983   2.690   2.705  0.7920 -0.5133 -1.4308
 4420TIP3   OH234818   5.343   6.556   0.835 -0.0111  0.3598  0.2315
 4420TIP3    H134819   5.359   6.611   0.758 -1.0959 -2.9938 -2.6162
 4420TIP3    H234820   5.282   6.607   0.889  0.3679  2.6035 -1.3305
 4421TIP3   OH234821   3.924   1.373   8.404  0.4398  0.0626 -0.4252
 4421TIP3    H134822   3.972   1.444   8.361 -0.1092 -0.3979 -1.8304
 4421TIP3    H234823   3.879   1.416   8.477 -0.0411  1.2018 -1.3664
 4422TIP3   OH234824   4.813   3.987   1.483  0.1282 -0.1446  0.1189
 4422TIP3    H134825   4.871   3.919   1.450 -0.4689 -0.2887 -0.6699
 4422TIP3    H234826   4.760   4.012   1.407  0.2393  1.0928  0.4302
 4423TIP3   OH234827   6.359   1.488   8.526  0.5002 -0.6176  0.2463
 4423TIP3    H134828   6.418   1.456   8.457 -1.1251 -1.4884 -0.8022
 4423TIP3    H234829   6.389   1.443   8.605  1.9433 -0.1571  0.0045
 4424TIP3   OH234830   3.758   0.392   1.176  0.0104  0.8525  0.5136
 4424TIP3    H134831   3.829   0.384   1.112  1.3627 -1.4157  2.1082
 4424TIP3    H234832   3.802   0.381   1.261 -2.0453  1.0569  1.6643
 4425TIP3   OH234833   1.983   6.648   0.513  0.0853  0.2657 -0.1669
 4425TIP3    H134834   1.985   6.689   0.426  0.0150  0.4139 -0.0988
 4425TIP3    H234835   2.070   6.611   0.524  0.0688  0.1732 -0.3365
 4426TIP3   OH234836   3.570   5.603   1.462  0.6885 -0.3839 -0.4582
 4426TIP3    H134837   3.656   5.646   1.463  1.2737 -1.4755  1.3237
 4426TIP3    H234838   3.590   5.510   1.468 -0.6170 -0.6318  0.3296
 4427TIP3   OH234839   6.320   1.492   7.440 -0.2201 -0.0354  0.2371
 4427TIP3    H134840   6.335   1.482   7.534 -0.6269  0.4214  0.3573
 4427TIP3    H234841   6.346   1.582   7.422 -0.0553 -0.1527 -0.1084
 4428TIP3   OH234842   2.845   2.083   7.839 -0.0543 -0.7855  0.7633
 4428TIP3    H134843   2.877   2.170   7.863  1.0275 -1.0833  0.4551
 4428TIP3    H234844   2.899   2.058   7.764 -1.4092 -1.0857 -0.1429
 4429TIP3   OH234845   6.568   2.253   8.661  0.3702  0.0464 -0.1228
 4429TIP3    H134846   6.618   2.323   8.703 -1.6067  1.7725 -0.4666
 4429TIP3    H234847   6.550   2.287   8.573 -0.8834 -0.7644 -0.1967
 4430TIP3   OH234848   0.630   4.922   0.772 -0.6843 -0.2048  0.0337
 4430TIP3    H134849   0.608   4.916   0.679 -1.6000 -0.1954  0.2441
 4430TIP3    H234850   0.546   4.923   0.817 -0.2416 -0.9207  0.9115
 4431TIP3   OH234851   1.663   0.486   7.952 -0.1189  0.5124 -0.3906
 4431TIP3    H134852   1.608   0.418   7.913  1.1983 -0.0455 -1.3423
 4431TIP3    H234853   1.716   0.519   7.879 -0.5209  2.3849  0.1039
 4432TIP3   OH234854   2.988   1.812   0.442  0.3476  0.4610  0.0120
 4432TIP3    H134855   3.054   1.856   0.496  3.2972 -0.7374 -2.2831
 4432TIP3    H234856   2.995   1.856   0.357 -0.8330 -0.6295 -0.6709
 4433TIP3   OH234857   1.355   6.597   0.291  0.8587 -0.0076  0.0534
 4433TIP3    H134858   1.358   6.630   0.381  0.4571 -0.4995  0.2498
 4433TIP3    H234859   1.375   6.674   0.237  0.2234  0.4990  0.5180
 4434TIP3   OH234860   0.078   0.973   2.631 -0.0844  0.0589  0.7088
 4434TIP3    H134861   0.094   1.059   2.670 -0.1141 -1.0660  3.4690
 4434TIP3    H234862   0.148   0.961   2.567  0.1180  1.9578  0.5397
 4435TIP3   OH234863   1.225   0.234   2.328  0.8028  0.0210 -0.9998
 4435TIP3    H134864   1.141   0.270   2.357  0.2431  0.2720 -2.8171
 4435TIP3    H234865   1.246   0.168   2.393  0.1968  1.3165  0.5880
 4436TIP3   OH234866   4.269   6.767   8.771 -0.0195 -0.3268 -0.0263
 4436TIP3    H134867   4.239   6.852   8.740 -0.5420 -0.8983 -1.1652
 4436TIP3    H234868   4.197   6.708   8.752  1.1088 -1.4051 -1.1646
 4437TIP3   OH234869   0.672   1.639   2.222  0.1040 -0.2041  0.3082
 4437TIP3    H134870   0.641   1.723   2.256 -1.3113 -0.6492  0.1609
 4437TIP3    H234871   0.595   1.599   2.183  1.1846 -0.7136 -1.4085
 4438TIP3   OH234872   2.774   3.768   7.919 -0.0149 -0.7803 -0.0355
 4438TIP3    H134873   2.754   3.701   7.854 -0.5816 -1.7978  1.1413
 4438TIP3    H234874   2.703   3.832   7.912 -0.8499 -1.6278  0.5319
 4439TIP3   OH234875   1.666   2.396   8.317 -0.2186  0.1642 -0.1082
 4439TIP3    H134876   1.672   2.373   8.410  1.2761 -0.8627 -0.4163
 4439TIP3    H234877   1.744   2.450   8.301 -0.5765  0.5072 -0.7345
 4440TIP3   OH234878   5.457   0.334   8.734 -0.2608 -0.5000  0.1957
 4440TIP3    H134879   5.529   0.271   8.730 -1.3199 -1.7170 -0.3976
 4440TIP3    H234880   5.426   0.329   8.824  1.6790  1.5704  1.0551
 4441TIP3   OH234881   0.157   1.968   7.355  0.0156 -0.4757  0.0711
 4441TIP3    H134882   0.168   1.912   7.278 -0.2445  0.4614 -0.6658
 4441TIP3    H234883   0.075   2.014   7.340 -0.5636 -1.0203  1.4055
 4442TIP3   OH234884   4.032   0.087   7.802  0.4885  0.1404 -0.6721
 4442TIP3    H134885   4.048   0.167   7.851  1.5247 -0.4298 -0.0451
 4442TIP3    H234886   4.056   0.109   7.712  3.2517 -0.1389 -0.0892
 4443TIP3   OH234887   5.481   4.888   7.279  0.1504 -0.1035 -0.3159
 4443TIP3    H134888   5.396   4.922   7.249  0.2061  1.1008  0.7892
 4443TIP3    H234889   5.531   4.875   7.199 -0.0861  1.9403 -0.8549
 4444TIP3   OH234890   0.370   1.062   6.867 -0.8877 -0.3736 -0.3236
 4444TIP3    H134891   0.278   1.078   6.842 -0.4922  1.3885 -0.8001
 4444TIP3    H234892   0.417   1.059   6.784 -0.2385  0.7709 -0.0155
 4445TIP3   OH234893   4.449   4.849   7.757 -0.3049 -0.0192  0.5369
 4445TIP3    H134894   4.430   4.772   7.703 -1.0864  0.3102  0.3299
 4445TIP3    H234895   4.473   4.813   7.842 -0.1921 -0.5094  0.3010
 4446TIP3   OH234896   6.619   2.306   1.235 -0.0509  0.3558 -0.1986
 4446TIP3    H134897   6.643   2.383   1.183  1.2878 -1.6420 -2.7205
 4446TIP3    H234898   6.696   2.290   1.290 -0.5037  0.9836  0.6666
 4447TIP3   OH234899   2.903   6.075   0.483  0.2995 -0.9279 -0.1384
 4447TIP3    H134900   2.984   6.027   0.502 -0.1081 -0.7557  2.3227
 4447TIP3    H234901   2.878   6.114   0.566 -1.7379 -0.0408 -1.1004
 4448TIP3   OH234902   0.482   3.573   0.909 -0.7034  0.7569 -0.1737
 4448TIP3    H134903   0.480   3.571   0.813  1.1897 -1.6846 -0.2551
 4448TIP3    H234904   0.407   3.519   0.935 -0.1387 -0.1100 -0.3338
 4449TIP3   OH234905   6.522   6.168   6.943 -0.8440 -0.2015  0.0460
 4449TIP3    H134906   6.587   6.114   6.898 -0.1952  1.5828 -1.2845
 4449TIP3    H234907   6.531   6.255   6.902 -2.0153  0.8490  1.8940
 4450TIP3   OH234908   2.259   3.377   0.302  0.5060  0.3202 -0.0372
 4450TIP3    H134909   2.215   3.392   0.219 -0.4702 -0.5729  0.2988
 4450TIP3    H234910   2.327   3.312   0.282  0.0710 -0.1246 -0.0835
 4451TIP3   OH234911   0.462   2.694   0.962  0.1405 -0.1638 -0.0336
 4451TIP3    H134912   0.457   2.788   0.979  2.1918 -0.1592  0.7607
 4451TIP3    H234913   0.439   2.653   1.045  0.1909 -0.3603 -0.1154
 4452TIP3   OH234914   5.654   3.476   7.421  0.1973 -0.1145  0.1540
 4452TIP3    H134915   5.712   3.470   7.345  0.2564 -0.1522  0.2018
 4452TIP3    H234916   5.598   3.551   7.402  0.0102 -0.3101 -0.0637
 4453TIP3   OH234917   6.371   0.328   7.749  0.0710 -0.7151  0.5239
 4453TIP3    H134918   6.356   0.251   7.804 -1.8348 -0.1434  0.8976
 4453TIP3    H234919   6.297   0.386   7.769  1.2658  1.0624 -0.0081
 4454TIP3   OH234920   5.750   6.381   8.644 -0.2900  0.1450 -0.4537
 4454TIP3    H134921   5.799   6.422   8.573  0.1572  0.2926 -0.0615
 4454TIP3    H234922   5.690   6.450   8.674  1.4267  1.0284  1.1441
 4455TIP3   OH234923   2.980   0.166   8.435 -0.2992 -0.0068 -0.0538
 4455TIP3    H134924   2.946   0.231   8.374 -1.3276 -1.0873 -0.6624
 4455TIP3    H234925   2.926   0.088   8.421  1.7231 -1.4545 -0.2819
 4456TIP3   OH234926   3.839   4.187   6.746  0.7618  0.3584 -0.2434
 4456TIP3    H134927   3.762   4.205   6.799 -0.5269  1.4278 -2.3475
 4456TIP3    H234928   3.824   4.099   6.711  1.5420 -0.2865  0.9596
 4457TIP3   OH234929   3.093   4.783   2.943 -0.6682 -0.0097 -0.4194
 4457TIP3    H134930   2.998   4.787   2.953 -0.7731 -0.4151 -1.2315
 4457TIP3    H234931   3.126   4.847   3.006 -1.5131  0.7744 -0.7574
 4458TIP3   OH234932   0.183   5.832   7.742 -0.3851 -0.1303  0.1437
 4458TIP3    H134933   0.204   5.765   7.677  1.8887  1.3079 -0.7327
 4458TIP3    H234934   0.090   5.851   7.728 -0.2083 -0.6000 -1.9748
 4459TIP3   OH234935   4.947   1.451   7.940  0.7684 -0.0596 -0.3106
 4459TIP3    H134936   4.942   1.385   7.871  1.4742 -0.8914  0.3969
 4459TIP3    H234937   5.040   1.455   7.963  0.5735  0.3116  0.4689
 4460TIP3   OH234938   6.417   6.013   0.369 -0.7178  0.2074 -0.5050
 4460TIP3    H134939   6.472   5.944   0.333  0.2825  0.3374  0.7065
 4460TIP3    H234940   6.341   5.967   0.406  0.2772 -0.3667  0.9245
 4461TIP3   OH234941   0.809   4.084   8.143 -0.1151 -0.3489 -0.0977
 4461TIP3    H134942   0.831   4.019   8.076 -1.4564 -0.0830 -0.8533
 4461TIP3    H234943   0.761   4.152   8.094 -0.0167  0.4734  0.9245
 4462TIP3   OH234944   3.880   0.467   1.898  0.5224 -0.5386  0.5627
 4462TIP3    H134945   3.887   0.405   1.825 -3.0083  0.6371 -1.0164
 4462TIP3    H234946   3.905   0.551   1.860 -0.2000 -0.1078  1.0301
 4463TIP3   OH234947   3.760   6.430   7.576  0.6796  0.6815  0.0890
 4463TIP3    H134948   3.682   6.486   7.578  0.8804  1.0625 -1.3336
 4463TIP3    H234949   3.833   6.491   7.575  0.9840  0.3369  0.6636
 4464TIP3   OH234950   2.722   0.025   8.596 -0.4057  0.2014  0.3023
 4464TIP3    H134951   2.750   0.106   8.553  2.7737  0.1808  2.0255
 4464TIP3    H234952   2.707  -0.036   8.524  2.0809  0.9439 -0.9750
 4465TIP3   OH234953   3.469   1.086   8.115  0.1383 -0.6521 -0.1858
 4465TIP3    H134954   3.509   1.014   8.067  0.9710 -1.2656  1.3494
 4465TIP3    H234955   3.381   1.093   8.079 -0.3835 -3.2291  0.3932
 4466TIP3   OH234956   1.689   0.749   7.652  0.2440  0.0661  0.2355
 4466TIP3    H134957   1.620   0.728   7.715  0.0388  0.2788  0.0855
 4466TIP3    H234958   1.757   0.685   7.669 -0.5838 -1.0439 -0.5670
 4467TIP3   OH234959   0.810   0.563   8.249 -0.2816  0.4142 -0.4049
 4467TIP3    H134960   0.778   0.645   8.288  0.8111  0.5802  0.2118
 4467TIP3    H234961   0.742   0.536   8.189 -1.3544  0.9726  0.5249
 4468TIP3   OH234962   2.645   4.079   7.719  0.0342  0.2700  0.2804
 4468TIP3    H134963   2.713   4.121   7.667 -1.5986  2.0530 -0.5292
 4468TIP3    H234964   2.591   4.031   7.656 -1.0670  1.1830  0.4980
 4469TIP3   OH234965   0.423   3.824   1.680  0.0109 -0.4659  0.7194
 4469TIP3    H134966   0.518   3.830   1.688 -0.0372  0.6846  0.5599
 4469TIP3    H234967   0.404   3.859   1.593 -0.5681 -0.6563  0.7647
 4470TIP3   OH234968   0.804   6.605   1.234 -0.4727 -0.0726 -0.1247
 4470TIP3    H134969   0.732   6.647   1.280 -0.7203  0.5989 -1.0906
 4470TIP3    H234970   0.864   6.676   1.211  1.0359 -0.7427  1.5444
 4471TIP3   OH234971   3.886   2.874   0.849 -0.0955  0.4886 -0.2769
 4471TIP3    H134972   3.889   2.845   0.941  3.0775 -1.0607 -0.7189
 4471TIP3    H234973   3.822   2.946   0.849 -0.1108  0.6756  3.1660
 4472TIP3   OH234974   1.164   6.470   7.119 -0.6300  0.8313  0.5341
 4472TIP3    H134975   1.157   6.495   7.027  0.7800 -0.0726  0.1426
 4472TIP3    H234976   1.199   6.381   7.117 -2.5090  0.0013  1.9333
 4473TIP3   OH234977   1.915   3.777   0.285  0.1959 -0.0187 -0.2375
 4473TIP3    H134978   1.991   3.833   0.299 -0.1857  0.1380  1.4163
 4473TIP3    H234979   1.923   3.746   0.195  2.7685 -0.8217  0.1983
 4474TIP3   OH234980   3.132   5.446   8.761  0.1123  0.0183  0.4230
 4474TIP3    H134981   3.096   5.518   8.710  2.3640  1.7241  1.0816
 4474TIP3    H234982   3.185   5.397   8.699  0.3163  0.2207  0.4362
 4475TIP3   OH234983   1.714   0.124   0.314  1.0498  0.5272  0.1969
 4475TIP3    H134984   1.729   0.036   0.280  2.9617  0.9402 -0.1643
 4475TIP3    H234985   1.724   0.181   0.237  0.4534  1.1175  0.5464
 4476TIP3   OH234986   5.889   5.623   0.489 -0.1657 -0.1307 -0.1274
 4476TIP3    H134987   5.886   5.532   0.520 -3.9330 -0.6467 -1.5530
 4476TIP3    H234988   5.881   5.616   0.394 -0.5873  1.7216 -0.2610
 4477TIP3   OH234989   1.709   2.391   7.661  0.5173 -0.0114  0.2949
 4477TIP3    H134990   1.779   2.326   7.658 -0.4622 -1.1188  0.5619
 4477TIP3    H234991   1.752   2.474   7.639  1.8522 -0.6933  0.2258
 4478TIP3   OH234992   0.182   4.246   7.455 -0.3783  0.7370 -0.0482
 4478TIP3    H134993   0.204   4.299   7.378  0.4442 -0.8138 -0.9215
 4478TIP3    H234994   0.089   4.264   7.470 -0.1295  2.3843 -0.3260
 4479TIP3   OH234995   1.296   3.109   0.916 -0.7723  0.0526 -0.7688
 4479TIP3    H134996   1.330   3.197   0.900  0.0670 -0.3676 -1.4198
 4479TIP3    H234997   1.318   3.091   1.007  0.6005 -0.1195 -1.1071
 4480TIP3   OH234998   4.908   4.487   0.886 -0.1931 -0.0705  0.3576
 4480TIP3    H134999   4.917   4.443   0.801 -0.3429  0.6419 -0.0382
 4480TIP3    H235000   4.932   4.421   0.950 -0.2354 -0.6693 -0.2348
 4481TIP3   OH235001   2.020   2.350   2.444  0.2348 -0.4499  0.0972
 4481TIP3    H135002   2.066   2.425   2.482 -0.5313 -0.3273  0.8330
 4481TIP3    H235003   1.927   2.376   2.446 -0.0881 -1.5829  0.7894
 4482TIP3   OH235004   0.374   2.493   1.472  0.2986 -0.0086 -1.0054
 4482TIP3    H135005   0.296   2.480   1.526  1.5005  0.1623  0.8390
 4482TIP3    H235006   0.397   2.406   1.441  0.4364 -0.3245 -0.0243
 4483TIP3   OH235007   5.433   2.438   8.382  0.1237  0.1667  0.1479
 4483TIP3    H135008   5.478   2.521   8.400  0.4479 -0.3237  1.7396
 4483TIP3    H235009   5.476   2.375   8.439 -1.4302 -0.6927  0.4006
 4484TIP3   OH235010   1.347   0.206   2.911  0.1059  0.1370 -0.2389
 4484TIP3    H135011   1.435   0.241   2.897 -0.2119  2.0543  2.0149
 4484TIP3    H235012   1.360   0.131   2.970  0.2668  0.1713 -0.2300
 4485TIP3   OH235013   6.552   5.444   7.564 -0.4306 -0.2295  0.7637
 4485TIP3    H135014   6.639   5.474   7.540 -0.4103  0.7790  1.9848
 4485TIP3    H235015   6.492   5.502   7.517 -0.5084 -1.6899 -1.0444
 4486TIP3   OH235016   3.029   5.041   1.823 -0.5391  0.1756  0.1340
 4486TIP3    H135017   3.047   5.106   1.755 -0.4606  0.0348  0.0202
 4486TIP3    H235018   2.950   4.996   1.792  0.7018 -1.3795 -0.9753
 4487TIP3   OH235019   4.995   6.290   8.571  0.7953 -0.6845 -0.3005
 4487TIP3    H135020   4.925   6.259   8.514  1.6932 -1.8635 -0.7925
 4487TIP3    H235021   5.014   6.217   8.629 -0.4124  0.6307  1.9126
 4488TIP3   OH235022   3.220   2.398   1.432 -1.0972 -0.4827  0.2473
 4488TIP3    H135023   3.156   2.352   1.378 -0.6729  0.1932 -0.8883
 4488TIP3    H235024   3.177   2.410   1.517 -2.1038 -0.8669 -0.1975
 4489TIP3   OH235025   2.365   5.526   1.849 -0.3628  0.0708 -0.3773
 4489TIP3    H135026   2.457   5.536   1.826 -0.3010 -0.2964 -0.2821
 4489TIP3    H235027   2.347   5.433   1.838  0.2602 -0.6416  3.3309
 4490TIP3   OH235028   3.857   2.509   0.868 -0.6557 -0.0200  0.0038
 4490TIP3    H135029   3.877   2.530   0.776 -1.6431  1.3727  0.0737
 4490TIP3    H235030   3.942   2.487   0.906 -0.1518 -0.0649 -1.1091
 4491TIP3   OH235031   4.242   2.329   2.594  0.5258  0.4870 -0.5592
 4491TIP3    H135032   4.212   2.300   2.681 -0.2300  1.4308 -0.5006
 4491TIP3    H235033   4.281   2.250   2.556 -1.3377 -0.5878 -0.3390
 4492TIP3   OH235034   0.771   3.553   1.722  0.7783  0.6218 -0.4151
 4492TIP3    H135035   0.687   3.596   1.737  0.4994  0.1753 -0.6574
 4492TIP3    H235036   0.789   3.506   1.804 -0.0366 -0.6406 -0.9286
 4493TIP3   OH235037   3.749   3.478   7.592 -0.3735 -0.6559 -0.7086
 4493TIP3    H135038   3.681   3.463   7.526 -0.8452 -1.0992 -0.1379
 4493TIP3    H235039   3.701   3.491   7.673  0.0976  1.9956 -0.7778
 4494TIP3   OH235040   5.684   3.687   7.019  0.0561 -0.0073 -0.7208
 4494TIP3    H135041   5.608   3.733   6.983  0.7755  0.9670 -1.0430
 4494TIP3    H235042   5.754   3.753   7.020  0.9748 -0.9467 -0.6850
 4495TIP3   OH235043   6.442   3.587   8.031  0.8823  0.4307  0.2143
 4495TIP3    H135044   6.410   3.595   7.941  0.5925  1.8192  0.4216
 4495TIP3    H235045   6.398   3.510   8.065 -3.6561  2.9951  0.9654
 4496TIP3   OH235046   4.738   4.247   8.095  1.0572 -0.5996 -0.2518
 4496TIP3    H135047   4.768   4.291   8.015 -1.0984  0.9930 -0.2602
 4496TIP3    H235048   4.687   4.172   8.063 -1.0897  0.8905 -0.4989
 4497TIP3   OH235049   3.745   1.786   0.914  0.0463 -0.4437  0.4901
 4497TIP3    H135050   3.812   1.828   0.860  1.7039 -1.1543  1.9158
 4497TIP3    H235051   3.682   1.750   0.851  2.5294 -2.3484 -1.0771
 4498TIP3   OH235052   3.543   1.717   0.699  0.0968  0.1750  0.1798
 4498TIP3    H135053   3.523   1.661   0.624 -0.3686 -0.4835  0.7867
 4498TIP3    H235054   3.559   1.804   0.660  0.8242 -0.3635 -0.7650
 4499TIP3   OH235055   3.150   5.511   2.650 -0.1711  0.3597  0.3341
 4499TIP3    H135056   3.147   5.488   2.557 -1.3341  1.3481  0.1022
 4499TIP3    H235057   3.171   5.605   2.650 -2.6737  0.9742  0.9430
 4500TIP3   OH235058   6.569   1.203   0.312  0.2695  1.1221 -0.3336
 4500TIP3    H135059   6.657   1.197   0.274 -0.3288 -0.7274 -1.5955
 4500TIP3    H235060   6.513   1.220   0.236 -0.6644  0.2396  0.1525
 4501TIP3   OH235061   1.463   6.743   7.871  0.5949 -0.2908 -0.0680
 4501TIP3    H135062   1.482   6.660   7.914  3.2452  0.8844  1.2813
 4501TIP3    H235063   1.544   6.766   7.825  0.1092  1.7519 -0.0138
 4502TIP3   OH235064   4.664   6.323   0.500 -0.1164  0.6621 -0.1913
 4502TIP3    H135065   4.665   6.320   0.596  0.2089 -0.3345 -0.2149
 4502TIP3    H235066   4.722   6.252   0.473 -0.2590  0.8902 -1.1304
 4503TIP3   OH235067   2.037   6.648   0.835 -0.3049  0.3954 -0.0223
 4503TIP3    H135068   2.107   6.700   0.876  0.9909  0.7679 -2.5129
 4503TIP3    H235069   2.051   6.559   0.868  0.6448  0.6866  0.3990
 4504TIP3   OH235070   1.759   3.090   1.005  0.2625 -0.8291 -0.3714
 4504TIP3    H135071   1.757   3.095   0.910 -0.3858 -2.0180 -0.4442
 4504TIP3    H235072   1.676   3.130   1.033  0.5367 -0.3116 -0.2914
 4505TIP3   OH235073   1.548   2.238   7.487 -0.1440  0.6250 -0.2235
 4505TIP3    H135074   1.498   2.211   7.564 -0.6811  2.3441  0.0865
 4505TIP3    H235075   1.634   2.262   7.522  0.0761  0.0700 -0.3785
 4506TIP3   OH235076   2.687   4.777   8.007  0.1055 -0.2815  0.9350
 4506TIP3    H135077   2.663   4.693   7.968 -0.8368  0.2974  0.2014
 4506TIP3    H235078   2.624   4.789   8.077 -0.5495  0.3513  0.2585
 4507TIP3   OH235079   4.246   3.243   1.129 -0.0806 -0.0482  0.0162
 4507TIP3    H135080   4.267   3.194   1.050 -0.1415  1.7364 -1.1698
 4507TIP3    H235081   4.153   3.266   1.120 -0.0337  0.3628  0.4957
 4508TIP3   OH235082   1.700   5.916   2.684  0.5658  0.1222 -0.0514
 4508TIP3    H135083   1.742   5.890   2.766  0.0588 -0.3011  0.0833
 4508TIP3    H235084   1.717   5.844   2.623  1.5370  0.7509 -0.5398
 4509TIP3   OH235085   3.932   4.025   0.377 -0.5470  0.3808 -0.3443
 4509TIP3    H135086   3.899   3.938   0.400 -0.3534  0.5914  0.7723
 4509TIP3    H235087   3.876   4.054   0.305 -0.1548 -0.9600 -1.2195
 4510TIP3   OH235088   2.420   5.648   8.499  0.2470  0.5989  0.6930
 4510TIP3    H135089   2.476   5.575   8.472  1.5699  1.8046  0.0132
 4510TIP3    H235090   2.331   5.620   8.477  0.4545 -1.6433  2.4004
 4511TIP3   OH235091   1.245   0.995   1.786 -0.3650  0.3320  0.2829
 4511TIP3    H135092   1.304   1.045   1.842  0.5932  0.7053 -1.0374
 4511TIP3    H235093   1.176   1.057   1.762  0.5769  0.9407 -0.9767
 4512TIP3   OH235094   5.313   2.044   8.436  0.3728  0.3064 -0.0656
 4512TIP3    H135095   5.346   2.039   8.347  0.0903 -1.6938 -0.0974
 4512TIP3    H235096   5.382   2.005   8.490 -0.5076 -0.8755  0.2514
 4513TIP3   OH235097   3.086   4.824   7.698  0.1634  0.3531  0.8009
 4513TIP3    H135098   3.007   4.877   7.705  0.5554  1.0872 -0.1262
 4513TIP3    H235099   3.099   4.788   7.786  0.4863  2.7070  1.7897
 4514TIP3   OH235100   4.831   3.678   0.755  0.5985 -0.3221 -0.1315
 4514TIP3    H135101   4.748   3.707   0.717  0.4769 -0.0996  0.2956
 4514TIP3    H235102   4.819   3.584   0.768  0.2625 -0.2216  0.3010
 4515TIP3   OH235103   1.480   2.638   8.706  0.2131  0.1117  0.4827
 4515TIP3    H135104   1.560   2.660   8.658 -0.2760  1.4229  0.2479
 4515TIP3    H235105   1.499   2.663   8.796 -0.0135  0.6512  0.3826
 4516TIP3   OH235106   5.875   3.148   0.309 -0.4420 -0.0041 -0.2529
 4516TIP3    H135107   5.852   3.233   0.347  1.2880 -0.2875  1.6323
 4516TIP3    H235108   5.963   3.131   0.342 -1.6504 -3.6954  1.6688
 4517TIP3   OH235109   5.337   0.626   8.266  0.5676  0.0330  0.0841
 4517TIP3    H135110   5.251   0.584   8.265  0.1890  0.7864 -0.9834
 4517TIP3    H235111   5.370   0.611   8.354 -0.7692 -0.0687  0.5950
 4518TIP3   OH235112   6.249   3.159   1.799 -0.2569 -0.4097 -0.1779
 4518TIP3    H135113   6.226   3.243   1.759 -1.5362 -0.5831  0.1480
 4518TIP3    H235114   6.323   3.127   1.747 -0.0553  0.6950 -0.5965
 4519TIP3   OH235115   2.327   6.242   1.536 -0.3171 -0.0448 -0.2845
 4519TIP3    H135116   2.384   6.266   1.610  1.4847 -0.0039 -1.6084
 4519TIP3    H235117   2.246   6.290   1.552  0.0247 -0.0240  1.6469
 4520TIP3   OH235118   1.778   1.918   6.856  0.1585 -0.0495 -0.1110
 4520TIP3    H135119   1.854   1.943   6.805 -0.5625  2.2312 -0.1766
 4520TIP3    H235120   1.709   1.903   6.792 -0.7854  2.9484  0.0437
 4521TIP3   OH235121   5.172   4.897   7.937 -0.5713 -0.1160 -0.1035
 4521TIP3    H135122   5.192   4.915   8.029 -1.1496 -0.6532  0.1360
 4521TIP3    H235123   5.234   4.829   7.911 -0.3865  0.0592 -0.1178
 4522TIP3   OH235124   3.300   0.997   2.566 -0.0613 -0.5232  0.5420
 4522TIP3    H135125   3.339   0.945   2.636 -0.9876  0.2834  1.6847
 4522TIP3    H235126   3.211   1.014   2.595 -0.2570  0.3915 -0.5307
 4523TIP3   OH235127   0.919   6.199   1.138  0.1478 -0.3509  0.1677
 4523TIP3    H135128   0.827   6.185   1.160 -0.4111  1.9541 -0.4638
 4523TIP3    H235129   0.949   6.266   1.199  1.2839 -0.7045  0.0347
 4524TIP3   OH235130   3.985   3.014   8.227 -0.5719  0.1083 -0.0250
 4524TIP3    H135131   4.064   2.960   8.227 -0.0940  0.7873  0.6033
 4524TIP3    H235132   3.977   3.045   8.137 -0.3690 -0.3134 -0.1917
 4525TIP3   OH235133   1.715   1.041   2.440 -0.5693 -0.4795  0.0305
 4525TIP3    H135134   1.704   1.076   2.528 -0.0602  0.8625 -0.4176
 4525TIP3    H235135   1.720   1.118   2.384  0.4654 -1.2674 -1.0115
 4526TIP3   OH235136   0.139   1.904   1.891 -0.7647  0.1372  0.5683
 4526TIP3    H135137   0.126   1.926   1.799 -2.4515 -2.0948  0.1841
 4526TIP3    H235138   0.072   1.953   1.938  0.9178  2.3066  0.8603
 4527TIP3   OH235139   4.564   0.367   0.370 -0.1183  0.0289  0.1123
 4527TIP3    H135140   4.576   0.327   0.284  0.8425  0.1327  0.1933
 4527TIP3    H235141   4.651   0.368   0.409 -0.8782 -2.3117  2.1307
 4528TIP3   OH235142   3.083   6.181   0.713  0.1601  0.0763 -0.1474
 4528TIP3    H135143   3.008   6.240   0.712  0.8408  0.9688 -1.0928
 4528TIP3    H235144   3.137   6.210   0.639  1.3332 -0.6747  0.3836
 4529TIP3   OH235145   0.651   2.646   6.869  0.1571  0.1803  0.1374
 4529TIP3    H135146   0.638   2.554   6.891 -0.1400  0.5959  1.8127
 4529TIP3    H235147   0.570   2.671   6.823 -0.1801 -0.1511  0.5368
 4530TIP3   OH235148   6.653   1.183   8.110  0.4585 -0.1203 -0.6757
 4530TIP3    H135149   6.679   1.218   8.195 -1.1430 -0.8163  0.1271
 4530TIP3    H235150   6.733   1.188   8.057  0.7389  3.3069 -0.1595
 4531TIP3   OH235151   0.889   3.973   2.688  0.6049  0.0364 -0.6942
 4531TIP3    H135152   0.844   3.888   2.692  0.7483 -0.0040  1.8924
 4531TIP3    H235153   0.821   4.035   2.661  0.0445 -0.6543 -0.9029
 4532TIP3   OH235154   3.408   1.873   8.055 -0.0374 -0.2439  0.3046
 4532TIP3    H135155   3.352   1.892   7.979  3.6319 -0.1030 -2.6075
 4532TIP3    H235156   3.440   1.958   8.083  2.2034 -0.5653 -1.0645
 4533TIP3   OH235157   4.939   5.527   1.265 -0.0493 -0.5172 -0.2416
 4533TIP3    H135158   4.882   5.524   1.188 -1.2529 -1.1997  0.6399
 4533TIP3    H235159   4.879   5.516   1.339  1.0259  0.5355  0.8297
 4534TIP3   OH235160   2.426   0.640   8.050 -0.2933  0.0249 -0.5434
 4534TIP3    H135161   2.452   0.608   7.964 -0.7901  3.2406 -2.0638
 4534TIP3    H235162   2.506   0.682   8.084 -0.6752  0.7386 -0.5017
 4535TIP3   OH235163   1.231   4.504   0.446  0.5817  0.3260 -0.1292
 4535TIP3    H135164   1.291   4.513   0.520  2.3155 -1.3338 -1.2261
 4535TIP3    H235165   1.144   4.516   0.483  1.1751 -2.7063  2.6760
 4536TIP3   OH235166   0.851   4.654   0.753  0.0228 -0.4940  0.5761
 4536TIP3    H135167   0.792   4.714   0.798 -0.1230 -1.1727  1.3158
 4536TIP3    H235168   0.846   4.681   0.661  2.5942  2.8367  1.2366
 4537TIP3   OH235169   3.815   1.205   0.610 -0.3944  0.2197  0.2599
 4537TIP3    H135170   3.805   1.288   0.564  1.1551  0.9509  1.1456
 4537TIP3    H235171   3.734   1.157   0.592 -0.0181  0.5667 -2.9635
 4538TIP3   OH235172   5.318   5.229   0.873  0.6623  0.6948  0.2268
 4538TIP3    H135173   5.348   5.320   0.874  1.4764  0.4465 -0.3832
 4538TIP3    H235174   5.281   5.215   0.960  1.5911  1.2755  0.7349
 4539TIP3   OH235175   4.175   5.083   2.239  0.0590 -0.3101  0.0014
 4539TIP3    H135176   4.228   5.061   2.316  0.3585  0.1038 -0.0852
 4539TIP3    H235177   4.237   5.119   2.176 -0.2529 -0.2551 -0.2781
 4540TIP3   OH235178   4.655   3.349   8.041 -0.0166 -0.0401  0.1582
 4540TIP3    H135179   4.746   3.366   8.067 -0.0604  0.0676  0.2425
 4540TIP3    H235180   4.644   3.397   7.959  0.0966 -0.3078 -0.0103
 4541TIP3   OH235181   1.848   1.467   1.586  0.8110 -0.1131 -0.4775
 4541TIP3    H135182   1.782   1.535   1.584 -0.4383 -1.2926 -0.9269
 4541TIP3    H235183   1.800   1.386   1.605  2.0329 -1.0982 -1.3426
 4542TIP3   OH235184   2.843   0.527   0.493  0.1333  0.0044 -0.7272
 4542TIP3    H135185   2.829   0.519   0.398  0.0696  1.2473 -0.8372
 4542TIP3    H235186   2.938   0.534   0.503  0.0791  0.8229 -0.7819
 4543TIP3   OH235187   1.663   5.747   8.085 -0.0272  0.1239 -0.4437
 4543TIP3    H135188   1.618   5.732   8.002  0.5600  1.3651 -1.0094
 4543TIP3    H235189   1.744   5.695   8.078 -0.0738  0.0668 -0.5667
 4544TIP3   OH235190   3.806   0.838   1.386 -0.1077  0.1047  0.2401
 4544TIP3    H135191   3.786   0.922   1.429  0.2136 -0.2689  1.1523
 4544TIP3    H235192   3.884   0.855   1.334 -1.3495  0.9507 -1.4161
 4545TIP3   OH235193   4.120   6.348   0.277 -0.0021  0.4368 -0.1272
 4545TIP3    H135194   4.090   6.276   0.221  0.0044  0.2516  0.1043
 4545TIP3    H235195   4.191   6.310   0.329  0.0893  0.6480 -0.0962
 4546TIP3   OH235196   4.438   6.705   0.559 -0.0522 -0.1188  0.2839
 4546TIP3    H135197   4.358   6.702   0.507  1.4429 -1.1442 -2.1133
 4546TIP3    H235198   4.452   6.798   0.575  0.4026  0.4754 -2.8860
 4547TIP3   OH235199   3.764   0.231   0.277 -0.3192 -0.0597 -0.6391
 4547TIP3    H135200   3.743   0.139   0.291 -1.5554  0.3295  0.2402
 4547TIP3    H235201   3.722   0.253   0.193  0.0822 -0.3138 -0.9110
 4548TIP3   OH235202   4.199   6.473   2.120 -0.0598 -0.8951  0.0421
 4548TIP3    H135203   4.257   6.416   2.070 -0.7492 -0.6476 -1.1078
 4548TIP3    H235204   4.220   6.456   2.211 -1.1904 -4.0679 -0.1630
 4549TIP3   OH235205   3.736   4.102   7.873 -0.3041 -0.0159 -0.5732
 4549TIP3    H135206   3.742   4.195   7.850 -0.2657 -0.0368 -0.6471
 4549TIP3    H235207   3.653   4.073   7.835 -0.6136  0.1350 -0.0319
 4550TIP3   OH235208   5.496   5.155   7.393 -0.0626  1.3703 -0.4263
 4550TIP3    H135209   5.498   5.096   7.318 -1.5865 -0.4530  0.8671
 4550TIP3    H235210   5.545   5.233   7.364  0.5217  0.2114 -2.8022
 4551TIP3   OH235211   5.939   5.829   0.687  0.1154  0.3330  0.1886
 4551TIP3    H135212   5.881   5.805   0.760 -1.2911 -0.3741 -1.1125
 4551TIP3    H235213   5.910   5.774   0.614  3.3334 -1.0461 -0.1950
 4552TIP3   OH235214   0.075   6.498   7.693 -0.2386 -0.3510 -0.1203
 4552TIP3    H135215   0.169   6.500   7.710 -0.2551 -1.1970  0.1344
 4552TIP3    H235216   0.035   6.499   7.779 -0.3909 -2.0677 -0.1247
 4553TIP3   OH235217   0.359   0.859   8.326  0.5654 -0.2350  0.3450
 4553TIP3    H135218   0.272   0.832   8.354  0.7694  0.7694  2.0679
 4553TIP3    H235219   0.392   0.784   8.275 -0.9712 -0.9455  0.3480
 4554TIP3   OH235220   4.916   0.291   1.761 -0.3793 -0.4962 -0.0002
 4554TIP3    H135221   4.838   0.270   1.813 -1.2850 -1.7653 -1.7769
 4554TIP3    H235222   4.883   0.312   1.674  1.2905 -3.9697 -1.6835
 4555TIP3   OH235223   0.116   6.704   7.011 -0.0859 -0.4068  0.6261
 4555TIP3    H135224   0.195   6.649   7.011  0.2603  0.0756  0.2738
 4555TIP3    H235225   0.059   6.665   7.077 -0.2147 -1.7039 -0.2167
 4556TIP3   OH235226   4.098   2.919   7.170  0.4822  0.2321 -0.1598
 4556TIP3    H135227   4.166   2.855   7.147 -0.9185 -0.9019 -1.3538
 4556TIP3    H235228   4.040   2.920   7.094 -2.6960 -1.3616  2.0367
 4557TIP3   OH235229   4.437   0.536   0.132  0.2890  0.6509 -0.1365
 4557TIP3    H135230   4.386   0.455   0.138 -0.2237  0.8464 -1.3915
 4557TIP3    H235231   4.419   0.582   0.213  0.7441 -0.5748  0.6811
 4558TIP3   OH235232   3.783   1.846   8.480  0.4219 -0.2178 -0.2533
 4558TIP3    H135233   3.716   1.797   8.433 -2.6506  0.3690  3.1003
 4558TIP3    H235234   3.799   1.923   8.425 -0.9088 -0.8583 -1.6199
 4559TIP3   OH235235   1.822   6.140   3.099 -0.2646 -0.4237  0.1047
 4559TIP3    H135236   1.838   6.060   3.049 -0.3727 -0.3871  0.0106
 4559TIP3    H235237   1.843   6.211   3.038 -1.6633 -0.3628 -0.3273
 4560TIP3   OH235238   6.465   6.520   1.304  0.1419  0.0100  0.3151
 4560TIP3    H135239   6.558   6.526   1.325  0.4774 -2.8356  0.0251
 4560TIP3    H235240   6.443   6.428   1.321 -2.5419  0.5365  0.0373
 4561TIP3   OH235241   4.955   4.465   8.719  0.1709 -0.3198  0.8340
 4561TIP3    H135242   4.968   4.408   8.795  1.6172 -0.5387  0.4722
 4561TIP3    H235243   4.995   4.416   8.646 -0.9722 -0.0137 -0.0201
 4562TIP3   OH235244   0.381   4.248   7.902  0.1924  0.1715 -0.2603
 4562TIP3    H135245   0.303   4.239   7.956  0.1340  1.3708 -0.1240
 4562TIP3    H235246   0.353   4.223   7.814 -0.2169  0.1302 -0.1190
 4563TIP3   OH235247   0.234   2.004   8.221  0.0587 -0.6659  0.5156
 4563TIP3    H135248   0.266   1.954   8.296 -0.8111  0.2388  1.5219
 4563TIP3    H235249   0.216   2.091   8.255 -0.9445 -0.3955 -0.5930
 4564TIP3   OH235250   0.513   4.863   2.028  0.1458 -0.1905  0.3243
 4564TIP3    H135251   0.426   4.889   1.997 -0.3117  0.4359  1.9818
 4564TIP3    H235252   0.572   4.887   1.957 -0.8827  0.6897 -0.2688
 4565TIP3   OH235253   0.855   2.001   1.718 -0.2011  0.0007 -0.0552
 4565TIP3    H135254   0.946   2.027   1.706 -0.4438  0.5103 -0.8835
 4565TIP3    H235255   0.859   1.917   1.765  0.6254  1.1285  2.0056
 4566TIP3   OH235256   2.612   5.349   0.160 -0.2223  0.3375 -0.5088
 4566TIP3    H135257   2.525   5.386   0.175 -0.0743  0.2027  0.7502
 4566TIP3    H235258   2.657   5.358   0.243  0.0337 -2.0860 -0.3150
 4567TIP3   OH235259   5.349   5.060   0.523  0.5941 -0.4723  0.1250
 4567TIP3    H135260   5.367   4.975   0.483  0.6075 -0.3563 -0.1164
 4567TIP3    H235261   5.422   5.075   0.583  0.3379 -0.8590  0.5436
 4568TIP3   OH235262   3.605   4.380   2.024  0.5540  0.0118  0.2566
 4568TIP3    H135263   3.675   4.426   2.070  0.4944  1.0732 -0.6778
 4568TIP3    H235264   3.538   4.364   2.091  0.6077  1.2361  0.6224
 4569TIP3   OH235265   4.451   3.129   8.541  0.1514  0.2304 -0.3210
 4569TIP3    H135266   4.360   3.116   8.517 -0.2280  1.2080  0.5256
 4569TIP3    H235267   4.456   3.105   8.634  0.7427  0.2333 -0.3458
 4570TIP3   OH235268   4.966   3.616   2.111 -0.2114 -0.1188 -0.0382
 4570TIP3    H135269   4.965   3.704   2.150 -1.1931 -0.0819 -0.1156
 4570TIP3    H235270   5.024   3.565   2.168  0.1505  0.5076  0.1635
 4571TIP3   OH235271   6.729   5.005   1.314  0.1741  0.3615 -0.1387
 4571TIP3    H135272   6.635   5.005   1.295  0.5939  0.4188 -2.6101
 4571TIP3    H235273   6.756   4.915   1.298  0.5914  0.3939  0.3653
 4572TIP3   OH235274   5.355   0.510   0.235 -0.4653 -0.0148 -0.2536
 4572TIP3    H135275   5.287   0.577   0.246  0.8153  1.4428 -0.9200
 4572TIP3    H235276   5.319   0.451   0.168 -1.1588  0.6230 -0.4554
 4573TIP3   OH235277   0.827   1.416   0.814 -0.1271 -0.3426  0.7819
 4573TIP3    H135278   0.772   1.432   0.891 -0.3493  0.0420  0.5469
 4573TIP3    H235279   0.896   1.358   0.846  0.5959  0.9239  1.6316
 4574TIP3   OH235280   5.619   2.313   2.247  0.2748 -0.3044 -0.1190
 4574TIP3    H135281   5.711   2.327   2.227  0.3952 -0.9786 -0.0605
 4574TIP3    H235282   5.614   2.319   2.343  0.3880 -0.9735 -0.0662
 4575TIP3   OH235283   0.475   6.597   1.355  0.5230 -0.0571  0.3348
 4575TIP3    H135284   0.433   6.526   1.307 -0.7791  1.9947 -1.7488
 4575TIP3    H235285   0.547   6.554   1.402 -0.1627 -2.7153 -0.8282
 4576TIP3   OH235286   4.326   4.432   8.498 -0.0299 -0.1450 -0.5022
 4576TIP3    H135287   4.280   4.354   8.466 -0.3655  0.3672 -1.2864
 4576TIP3    H235288   4.383   4.399   8.567 -1.9002 -0.7499  0.8566
 4577TIP3   OH235289   4.017   0.653   0.895  0.6277  0.3100  1.0703
 4577TIP3    H135290   4.034   0.601   0.816  2.0290  0.5772  1.1635
 4577TIP3    H235291   3.933   0.621   0.927  0.2207 -0.0760 -0.3157
 4578TIP3   OH235292   3.791   2.634   6.678  0.1605  0.2810  0.3204
 4578TIP3    H135293   3.715   2.673   6.722 -0.8025 -0.2146 -0.8611
 4578TIP3    H235294   3.834   2.707   6.635  0.8655  0.7027  1.6774
 4579TIP3   OH235295   5.329   4.463   2.121  0.1406  0.5195  0.2247
 4579TIP3    H135296   5.412   4.510   2.130  0.1377  0.5691  0.0034
 4579TIP3    H235297   5.316   4.420   2.205 -0.0125  1.1719  0.5420
 4580TIP3   OH235298   0.582   4.329   2.070  0.0760  0.1859 -0.2719
 4580TIP3    H135299   0.525   4.398   2.037  0.3259 -0.0539 -1.2242
 4580TIP3    H235300   0.525   4.252   2.077  0.0252  0.2347 -0.1443
 4581TIP3   OH235301   5.550   0.485   2.849 -0.3726  0.3789 -0.6078
 4581TIP3    H135302   5.533   0.494   2.755  1.6497 -0.4646 -1.1155
 4581TIP3    H235303   5.608   0.409   2.856  0.2329  0.9468  1.2264
 4582TIP3   OH235304   4.398   6.628   2.764 -0.3821 -0.0064 -0.5420
 4582TIP3    H135305   4.315   6.581   2.774  0.1053 -1.0868 -1.3454
 4582TIP3    H235306   4.421   6.655   2.853 -1.6678  0.4774 -0.3253
 4583TIP3   OH235307   5.304   0.197   1.544  0.4016  0.1747  0.0471
 4583TIP3    H135308   5.363   0.134   1.503  0.6297  1.0250 -0.9446
 4583TIP3    H235309   5.217   0.172   1.512  0.3304 -0.3945  0.6472
 4584TIP3   OH235310   0.085   0.663   0.461  0.2464 -0.3250 -0.9774
 4584TIP3    H135311   0.116   0.635   0.547 -0.9793 -1.2067 -0.7957
 4584TIP3    H235312   0.013   0.722   0.479 -0.8825 -1.5260 -1.3640
 4585TIP3   OH235313   2.175   1.407   0.115  0.6145 -0.2396  0.4126
 4585TIP3    H135314   2.255   1.355   0.107  0.0874 -0.8842 -1.2940
 4585TIP3    H235315   2.110   1.357   0.066 -1.0555 -0.1118  2.3821
 4586TIP3   OH235316   6.019   5.814   7.721  0.5713  0.0728 -0.0586
 4586TIP3    H135317   6.011   5.791   7.628  0.2440 -0.0039 -0.0131
 4586TIP3    H235318   5.972   5.897   7.728 -1.3197 -0.9983  0.4589
 4587TIP3   OH235319   1.467   0.972   0.700 -0.0031  0.5398  0.0165
 4587TIP3    H135320   1.457   1.028   0.623  1.3087 -0.3619 -0.8533
 4587TIP3    H235321   1.508   0.892   0.667  0.4328  0.0596  1.6232
 4588TIP3   OH235322   6.156   2.907   8.252  0.1358  0.3683  0.2118
 4588TIP3    H135323   6.088   2.878   8.313 -0.6777  2.3271  0.3240
 4588TIP3    H235324   6.208   2.828   8.234 -0.8420 -0.7021  1.8156
 4589TIP3   OH235325   3.679   1.230   1.714  0.7521 -0.2788 -0.0600
 4589TIP3    H135326   3.755   1.187   1.754 -0.1981  0.0492  2.2943
 4589TIP3    H235327   3.705   1.323   1.709 -0.0931  0.2109  2.6627
 4590TIP3   OH235328   2.787   5.385   7.470  0.0669  0.5353 -0.1783
 4590TIP3    H135329   2.834   5.319   7.418 -0.5765  1.1102 -1.5336
 4590TIP3    H235330   2.856   5.440   7.507  0.5251  0.8985 -1.5088
 4591TIP3   OH235331   1.641   0.764   8.042 -0.2692  0.0260 -0.3914
 4591TIP3    H135332   1.640   0.671   8.063 -1.7037  0.3884  1.3833
 4591TIP3    H235333   1.730   0.792   8.064 -0.5796 -0.4295  1.7356
 4592TIP3   OH235334   0.034   4.110   1.134  0.6042 -0.4945 -0.9482
 4592TIP3    H135335   0.083   4.061   1.068  1.2004  0.1970 -1.0307
 4592TIP3    H235336   0.081   4.193   1.142  0.3895 -0.4665  0.1662
 4593TIP3   OH235337   3.203   0.997   7.875  0.4002  0.2271 -0.1933
 4593TIP3    H135338   3.208   1.057   7.950 -1.7654  0.8065 -0.4428
 4593TIP3    H235339   3.155   1.047   7.808 -0.6393 -1.4427 -0.7463
 4594TIP3   OH235340   5.193   1.087   7.759  0.4721  0.4797 -0.4226
 4594TIP3    H135341   5.242   1.082   7.842 -1.5197  2.9259  1.0687
 4594TIP3    H235342   5.259   1.111   7.694  1.6479  1.6526  1.1052
 4595TIP3   OH235343   1.997   4.703   1.199  0.3317  0.0019 -0.2233
 4595TIP3    H135344   1.999   4.773   1.264 -0.6457  0.5724 -0.7889
 4595TIP3    H235345   2.019   4.746   1.116  0.2140 -0.4471 -0.4921
 4596TIP3   OH235346   1.028   1.739   1.830  0.0774  0.4345 -0.4058
 4596TIP3    H135347   1.106   1.783   1.862  0.1563  0.8312 -1.1114
 4596TIP3    H235348   1.026   1.655   1.876 -0.0024  1.1168  0.8593
 4597TIP3   OH235349   0.727   3.507   0.975  0.2783 -0.1116  0.7097
 4597TIP3    H135350   0.643   3.551   0.964 -0.1597 -1.6021 -3.6737
 4597TIP3    H235351   0.709   3.437   1.038 -1.3290  0.5145  0.9894
 4598TIP3   OH235352   5.565   0.343   0.360 -0.3153  0.0338 -0.0470
 4598TIP3    H135353   5.504   0.384   0.298  0.2271  1.1635  0.1379
 4598TIP3    H235354   5.542   0.250   0.357 -0.3095  0.0382 -1.9382
 4599TIP3   OH235355   0.828   0.897   1.116  0.0308 -0.5072  0.0939
 4599TIP3    H135356   0.919   0.879   1.142 -0.3415 -2.6899  0.0715
 4599TIP3    H235357   0.795   0.955   1.185  1.5280  0.7147 -0.1329
 4600TIP3   OH235358   0.006   1.089   0.854  0.3066  0.1444 -0.2502
 4600TIP3    H135359  -0.072   1.052   0.894  0.6620  1.6216  1.9909
 4600TIP3    H235360   0.066   1.104   0.927  2.0950  0.5111 -1.7080
 4601TIP3   OH235361   4.520   6.354   1.316 -0.1350  0.2786 -0.2255
 4601TIP3    H135362   4.457   6.358   1.388  1.2389  1.7618  0.9595
 4601TIP3    H235363   4.558   6.441   1.313  2.2602 -0.7122 -0.5245
 4602TIP3   OH235364   0.602   6.758   7.643 -0.4580 -0.2531  0.2930
 4602TIP3    H135365   0.588   6.847   7.677 -0.6155 -0.5129  0.9226
 4602TIP3    H235366   0.514   6.721   7.637 -0.4239 -0.2309 -0.3412
 4603TIP3   OH235367   5.628   5.612   8.672 -0.6179  0.1268 -0.1186
 4603TIP3    H135368   5.628   5.606   8.767  1.9506 -0.7628 -0.0961
 4603TIP3    H235369   5.668   5.530   8.643 -0.6082  0.7319 -1.9445
 4604TIP3   OH235370   1.800   2.678   8.507  0.9968  0.4338 -0.1110
 4604TIP3    H135371   1.829   2.707   8.593 -1.6710 -2.0521  1.8500
 4604TIP3    H235372   1.711   2.713   8.499 -0.3223 -2.5629  0.0638
 4605TIP3   OH235373   4.739   5.486   8.760 -0.0040  0.3744 -0.3365
 4605TIP3    H135374   4.758   5.503   8.853  2.4256  0.3428 -0.7489
 4605TIP3    H235375   4.726   5.573   8.722 -0.8878  0.3949 -0.0113
 4606TIP3   OH235376   1.010   5.841   0.201 -0.1290  0.0996  1.0100
 4606TIP3    H135377   0.962   5.758   0.204  0.3083 -0.2752 -0.8685
 4606TIP3    H235378   0.947   5.904   0.167  0.4777 -0.2763 -0.9401
 4607TIP3   OH235379   5.975   1.513   7.850 -0.0412 -0.2897  0.3560
 4607TIP3    H135380   6.004   1.443   7.793 -0.3941 -0.6974  0.6723
 4607TIP3    H235381   5.987   1.593   7.798 -2.5033 -0.8119 -1.1977
 4608TIP3   OH235382   4.007   5.240   1.745  0.7843  0.2888 -0.2959
 4608TIP3    H135383   3.974   5.289   1.669 -0.6650  0.7498  0.5885
 4608TIP3    H235384   4.034   5.307   1.807  1.4614 -0.0762 -0.1912
 4609TIP3   OH235385   2.956   2.830   1.429 -0.2478  0.2033 -0.1583
 4609TIP3    H135386   2.968   2.912   1.381 -1.2371 -0.6109 -1.8906
 4609TIP3    H235387   3.045   2.801   1.450  0.1852  0.8901 -0.9973
 4610TIP3   OH235388   3.654   5.878   2.019  0.1485  0.0520  0.2824
 4610TIP3    H135389   3.681   5.790   2.045 -0.3752  0.0079  0.6942
 4610TIP3    H235390   3.713   5.901   1.947 -0.0634 -0.8530 -0.1960
 4611TIP3   OH235391   0.087   5.795   1.612 -0.2549  0.1468 -0.0889
 4611TIP3    H135392   0.170   5.754   1.588 -2.2753 -3.5261 -1.5975
 4611TIP3    H235393   0.070   5.766   1.701  0.6631  2.1587  0.8078
 4612TIP3   OH235394   5.197   3.474   1.755  0.1710  0.0680 -0.3340
 4612TIP3    H135395   5.150   3.542   1.707  0.1323 -0.7168 -1.4427
 4612TIP3    H235396   5.255   3.522   1.814  1.1352  1.1124 -2.0485
 4613TIP3   OH235397   5.613   0.601   8.765  0.1243 -0.0114 -0.0697
 4613TIP3    H135398   5.660   0.610   8.682  1.5385 -0.4583  0.6523
 4613TIP3    H235399   5.575   0.513   8.761  2.0011 -0.8962  0.6130
 4614TIP3   OH235400   5.862   5.622   7.507 -0.4951  0.2596 -0.0014
 4614TIP3    H135401   5.812   5.583   7.435 -2.9743  1.6284  0.8658
 4614TIP3    H235402   5.935   5.666   7.465 -1.4234  0.3348 -1.6151
 4615TIP3   OH235403   3.142   1.521   2.278 -0.0378 -0.2760  0.6241
 4615TIP3    H135404   3.153   1.611   2.308 -0.9414  0.0354  0.0787
 4615TIP3    H235405   3.229   1.482   2.285  0.5831  0.9322 -0.0553
 4616TIP3   OH235406   4.904   6.711   8.408 -0.4653 -0.6899 -0.1098
 4616TIP3    H135407   4.940   6.715   8.320 -0.6039  1.7529 -0.1362
 4616TIP3    H235408   4.811   6.689   8.396 -0.3747 -0.8370 -0.5296
 4617TIP3   OH235409   6.394   5.171   1.897  0.2242  0.3538  0.2788
 4617TIP3    H135410   6.417   5.255   1.935  0.6456  0.2135  0.3426
 4617TIP3    H235411   6.478   5.126   1.886 -0.1240 -0.9419  2.3343
 4618TIP3   OH235412   2.713   1.896   8.628  0.3098  0.3801  0.1849
 4618TIP3    H135413   2.720   1.800   8.631  0.3653  0.4016  1.3703
 4618TIP3    H235414   2.803   1.926   8.616  0.5255  0.3065  1.4551
 4619TIP3   OH235415   3.582   0.713   1.504 -0.6393  0.0153  0.3337
 4619TIP3    H135416   3.623   0.756   1.579 -0.6521  0.0920  0.2963
 4619TIP3    H235417   3.646   0.720   1.433 -1.1897  1.1838 -0.0707
 4620TIP3   OH235418   0.913   3.988   7.867 -0.1186  0.2606  0.6871
 4620TIP3    H135419   0.935   4.072   7.828 -1.8200  2.2252  3.5288
 4620TIP3    H235420   0.831   3.962   7.825  0.2491  0.1683  0.0194
 4621TIP3   OH235421   0.316   3.649   2.634 -0.1284  0.4039  0.7194
 4621TIP3    H135422   0.223   3.641   2.655 -0.2959  1.6126  0.5314
 4621TIP3    H235423   0.355   3.568   2.666 -1.5353 -0.9828 -0.9059
 4622TIP3   OH235424   0.232   5.376   1.330  0.2406 -0.0154  0.1966
 4622TIP3    H135425   0.301   5.310   1.335  1.1075  0.8406 -0.1026
 4622TIP3    H235426   0.191   5.361   1.245  1.4166  0.7424 -0.5367
 4623TIP3   OH235427   6.381   2.799   2.136  0.3466 -0.0458  0.0655
 4623TIP3    H135428   6.297   2.755   2.130  0.4024 -0.2250  0.4842
 4623TIP3    H235429   6.379   2.842   2.222  0.8873 -0.5023  0.3148
 4624TIP3   OH235430   1.885   5.173   6.712  0.3267  0.1688  0.6325
 4624TIP3    H135431   1.981   5.184   6.713  0.3430  0.2141 -0.6722
 4624TIP3    H235432   1.853   5.240   6.773  0.9985  1.5817 -0.5083
 4625TIP3   OH235433   4.684   1.045   7.216  0.1430  0.3927 -0.4000
 4625TIP3    H135434   4.686   0.963   7.166 -0.7104  0.4116 -0.4789
 4625TIP3    H235435   4.776   1.064   7.235  0.3523 -0.5475 -0.4376
 4626TIP3   OH235436   4.703   5.474   7.281 -0.2131 -0.4099 -0.0422
 4626TIP3    H135437   4.781   5.526   7.299 -0.9362  1.3286 -1.6168
 4626TIP3    H235438   4.637   5.507   7.342 -0.7591  0.7984 -1.2436
 4627TIP3   OH235439   1.985   1.703   7.772 -0.3121 -0.2298 -0.1813
 4627TIP3    H135440   2.049   1.712   7.701 -0.0913 -1.1417 -0.1088
 4627TIP3    H235441   1.966   1.793   7.799  0.9016  0.0582 -0.2360
 4628TIP3   OH235442   6.407   4.079   7.676  0.3086 -0.1104 -0.2267
 4628TIP3    H135443   6.363   4.047   7.597 -0.6070  0.4653  0.0397
 4628TIP3    H235444   6.399   4.174   7.670 -0.2272 -0.0843  0.8274
 4629TIP3   OH235445   1.330   6.167   1.511  0.4897 -0.3684  0.0600
 4629TIP3    H135446   1.374   6.252   1.513  0.7822 -0.5207  0.9351
 4629TIP3    H235447   1.361   6.126   1.430  0.0419  0.5067 -0.5665
 4630TIP3   OH235448   1.569   6.514   7.908 -0.0088 -0.0213  0.2334
 4630TIP3    H135449   1.661   6.498   7.928 -0.0753 -0.9658 -0.1456
 4630TIP3    H235450   1.526   6.431   7.927 -0.5241 -0.0674 -1.0295
 4631TIP3   OH235451   3.752   1.230   1.436 -0.1595 -0.0619  0.0436
 4631TIP3    H135452   3.759   1.169   1.509  1.3424  1.1922  1.0182
 4631TIP3    H235453   3.843   1.248   1.411 -0.6121 -1.5286 -3.1084
 4632TIP3   OH235454   5.854   4.151   8.630 -0.1354 -0.3210 -0.1692
 4632TIP3    H135455   5.929   4.095   8.650  0.4907  0.2393 -0.8886
 4632TIP3    H235456   5.789   4.091   8.592  0.9345 -0.4187 -1.9486
 4633TIP3   OH235457   1.957   4.196   0.560  0.3392 -0.4250 -0.2309
 4633TIP3    H135458   1.861   4.198   0.558  0.2657 -2.2278 -1.8463
 4633TIP3    H235459   1.980   4.239   0.642 -1.7851  1.1918 -0.3778
 4634TIP3   OH235460   0.568   1.935   0.350 -0.0132  0.0322  0.2195
 4634TIP3    H135461   0.610   1.868   0.295 -0.6237  0.8148 -1.2475
 4634TIP3    H235462   0.544   1.888   0.430 -0.0314 -1.4129 -0.5928
 4635TIP3   OH235463   3.349   3.956   8.633 -0.3524 -0.0503 -0.2128
 4635TIP3    H135464   3.269   3.925   8.592 -0.9392  2.3586 -1.0130
 4635TIP3    H235465   3.320   4.009   8.707  0.5770 -0.6100  0.5825
 4636TIP3   OH235466   3.966   3.435   0.524 -0.2525  0.2880 -0.0622
 4636TIP3    H135467   3.912   3.425   0.446 -1.3899 -0.3172  0.7759
 4636TIP3    H235468   3.909   3.410   0.597  0.4118  1.8893  1.0895
 4637TIP3   OH235469   4.605   1.327   0.190  0.4340  0.1044 -0.1498
 4637TIP3    H135470   4.573   1.250   0.144  0.1146  0.0656  0.1339
 4637TIP3    H235471   4.550   1.333   0.268  0.5926  0.4991 -0.0660
 4638TIP3   OH235472   2.077   4.773   7.713  0.1462 -0.3317 -0.1892
 4638TIP3    H135473   2.137   4.730   7.775  0.3698 -0.6875 -0.6425
 4638TIP3    H235474   2.105   4.740   7.627 -1.3681 -1.3322 -0.3323
 4639TIP3   OH235475   1.821   6.352   0.938 -0.1323 -0.4794 -0.2403
 4639TIP3    H135476   1.813   6.383   0.847  0.5179  0.5987  0.0477
 4639TIP3    H235477   1.824   6.432   0.990  0.8339 -1.0432  0.6111
 4640TIP3   OH235478   4.917   3.087   1.498  0.2236 -0.1725  0.3402
 4640TIP3    H135479   4.945   3.088   1.407 -1.2627  2.0297 -0.1726
 4640TIP3    H235480   4.834   3.038   1.496  0.1268 -0.0144  0.4807
 4641TIP3   OH235481   1.416   2.667   2.528  0.3313  0.5568  0.2030
 4641TIP3    H135482   1.380   2.731   2.589 -0.1714 -0.7519  1.3259
 4641TIP3    H235483   1.345   2.604   2.516  1.3031 -0.5587  0.2366
 4642TIP3   OH235484   4.260   5.020   7.038 -0.2810 -0.2986 -0.2970
 4642TIP3    H135485   4.354   5.004   7.050  0.0891  0.7183 -1.6048
 4642TIP3    H235486   4.236   4.965   6.963 -0.3256  0.7151 -1.0453
 4643TIP3   OH235487   5.028   5.450   1.784  0.4662 -0.2502 -0.7477
 4643TIP3    H135488   5.102   5.434   1.842  0.2366  0.6418 -0.1885
 4643TIP3    H235489   5.049   5.533   1.740 -1.3398  1.4602  1.3757
 4644TIP3   OH235490   0.558   1.115   7.927  0.5843  0.4686  0.1155
 4644TIP3    H135491   0.597   1.163   7.854  2.0426  0.4623  0.8431
 4644TIP3    H235492   0.486   1.170   7.957 -0.5538  0.0995 -1.7848
 4645TIP3   OH235493   1.292   1.068   8.159  0.3684  0.1201 -0.7182
 4645TIP3    H135494   1.304   1.058   8.254  0.4312  2.0864 -0.4759
 4645TIP3    H235495   1.331   0.989   8.122  0.3404 -0.6962  0.8809
 4646TIP3   OH235496   6.716   6.288   7.538  0.0114 -0.1541 -0.2243
 4646TIP3    H135497   6.782   6.306   7.604  0.8575 -1.4741 -0.6660
 4646TIP3    H235498   6.636   6.273   7.587  0.4562 -0.3463  0.4508
 4647TIP3   OH235499   5.118   5.741   1.990 -0.4412  0.2715 -0.6561
 4647TIP3    H135500   5.178   5.667   1.999 -0.1766  0.5480 -0.1013
 4647TIP3    H235501   5.166   5.804   1.936  0.8856  1.6031  1.8869
 4648TIP3   OH235502   6.620   0.218   7.366 -0.2058 -0.0622 -0.4976
 4648TIP3    H135503   6.710   0.248   7.352 -0.2174 -0.4172 -1.3803
 4648TIP3    H235504   6.578   0.226   7.281 -1.0022  0.0450 -0.1041
 4649TIP3   OH235505   5.495   4.197   0.617 -0.2175  0.4622  0.1708
 4649TIP3    H135506   5.517   4.146   0.539 -2.6842  1.2526 -1.1543
 4649TIP3    H235507   5.403   4.219   0.607 -0.8810 -0.0362  3.7569
 4650TIP3   OH235508   5.233   3.744   0.098 -0.1433 -0.3217  0.2401
 4650TIP3    H135509   5.188   3.710   0.175 -2.2991  0.3299 -0.6725
 4650TIP3    H235510   5.193   3.698   0.024 -0.8731  1.8243 -0.7628
 4651TIP3   OH235511   1.050   1.401   0.073 -0.0239 -0.5530 -0.4687
 4651TIP3    H135512   1.073   1.308   0.083  0.1798 -0.4661 -0.1390
 4651TIP3    H235513   1.112   1.448   0.128  0.9554 -0.0834 -1.9238
 4652TIP3   OH235514   3.063   2.654   0.141 -0.0633 -0.4424 -0.5977
 4652TIP3    H135515   3.013   2.588   0.190 -1.0699 -0.0487 -1.0677
 4652TIP3    H235516   3.024   2.738   0.168  0.2545 -0.1373 -1.0829
 4653TIP3   OH235517   5.595   2.088   2.014 -0.5845 -0.1534  0.2673
 4653TIP3    H135518   5.552   2.156   2.066  0.9041  0.5440  0.6542
 4653TIP3    H235519   5.527   2.022   2.000 -1.4587  0.3622  1.7916
 4654TIP3   OH235520   1.014   5.776   0.642  0.1373  0.1116  0.4777
 4654TIP3    H135521   1.041   5.689   0.671  0.9338 -0.1263 -0.8876
 4654TIP3    H235522   1.091   5.831   0.656 -0.0056  0.3450  0.3551
 4655TIP3   OH235523   2.197   2.522   2.697 -0.4904 -0.2841  0.0621
 4655TIP3    H135524   2.204   2.608   2.740 -1.3693 -1.1499  2.0571
 4655TIP3    H235525   2.282   2.481   2.713 -1.3919 -1.3131  2.7460
 4656TIP3   OH235526   3.511   3.045   1.977 -0.0309  0.2193 -0.3026
 4656TIP3    H135527   3.448   3.077   1.913 -0.7458 -0.8190 -0.1417
 4656TIP3    H235528   3.476   3.072   2.062 -0.0852 -0.0642 -0.2345
 4657TIP3   OH235529   1.606   5.555   2.843  0.5630  0.1342 -0.4126
 4657TIP3    H135530   1.701   5.546   2.851  0.6809  1.5913  0.2729
 4657TIP3    H235531   1.571   5.488   2.902  1.1490 -0.6877 -0.9827
 4658TIP3   OH235532   4.204   6.083   2.629  0.3119 -0.2521 -0.3996
 4658TIP3    H135533   4.203   6.003   2.575  1.5619 -0.5264 -0.0302
 4658TIP3    H235534   4.149   6.061   2.704  2.1109 -1.4764  0.6465
 4659TIP3   OH235535   6.075   1.057   0.639 -0.8928 -0.4728 -0.2258
 4659TIP3    H135536   6.029   1.139   0.656 -1.4861 -0.9527  0.5137
 4659TIP3    H235537   6.116   1.070   0.553 -1.2961  0.4487 -0.2878
 4660TIP3   OH235538   0.415   6.039   7.409  0.4698 -0.5385  0.1718
 4660TIP3    H135539   0.367   6.098   7.468  2.2822  0.7480  0.4475
 4660TIP3    H235540   0.483   6.095   7.370  0.2584 -1.7241 -2.0137
 4661TIP3   OH235541   5.345   4.307   7.724  0.5236  0.2070  0.0353
 4661TIP3    H135542   5.289   4.324   7.649 -0.3350  1.4436  0.9057
 4661TIP3    H235543   5.421   4.363   7.710  0.9945 -0.5575 -0.5436
 4662TIP3   OH235544   0.649   0.920   0.091  0.4533  0.1016 -0.0235
 4662TIP3    H135545   0.703   0.861   0.144 -0.5214 -2.5096 -1.7372
 4662TIP3    H235546   0.575   0.942   0.147  0.6015 -0.6834  0.4936
 4663TIP3   OH235547   1.140   2.907   1.374  0.0769 -0.0531 -0.4922
 4663TIP3    H135548   1.065   2.952   1.334  1.2172  0.1787 -2.4653
 4663TIP3    H235549   1.121   2.814   1.362  0.7230  0.0145 -2.2858
 4664TIP3   OH235550   2.357   0.021   8.150 -0.6490 -0.5950  0.1775
 4664TIP3    H135551   2.263   0.039   8.152 -0.6109 -0.4128  0.3058
 4664TIP3    H235552   2.368  -0.038   8.076 -0.5766  1.0884 -1.2349
 4665TIP3   OH235553   4.126   4.119   1.756 -0.2182  0.1847 -0.2482
 4665TIP3    H135554   4.090   4.146   1.840  0.9482  1.2600 -0.0683
 4665TIP3    H235555   4.130   4.200   1.705  1.7712  0.0907 -0.3015
 4666TIP3   OH235556   6.142   1.504   0.318  0.0069  0.7136  0.4502
 4666TIP3    H135557   6.078   1.433   0.324  2.0309 -1.1001  2.3631
 4666TIP3    H235558   6.101   1.578   0.362 -1.3521  0.0901  0.2620
 4667TIP3   OH235559   2.576   1.503   7.910  0.0870  0.2863 -0.1093
 4667TIP3    H135560   2.502   1.455   7.947 -0.6533  1.0595 -0.5518
 4667TIP3    H235561   2.546   1.530   7.823  1.4894 -0.8141 -0.9969
 4668TIP3   OH235562   3.468   6.290   8.645 -0.6036 -0.0418 -0.0032
 4668TIP3    H135563   3.380   6.325   8.635 -0.0470  1.6109  0.5838
 4668TIP3    H235564   3.524   6.350   8.596  0.6661  1.4027  2.9339
 4669TIP3   OH235565   1.300   4.325   8.435  0.1031  0.0117 -0.6697
 4669TIP3    H135566   1.242   4.401   8.431  0.1301  0.3374  2.5079
 4669TIP3    H235567   1.248   4.257   8.479  1.7608  0.0692  1.5651
 4670TIP3   OH235568   3.584   1.292   7.901  0.1578 -0.1456 -0.2418
 4670TIP3    H135569   3.559   1.264   7.813  0.6266  0.3667 -0.5502
 4670TIP3    H235570   3.508   1.274   7.956 -0.1683 -0.3831 -0.7714
 4671TIP3   OH235571   4.889   5.979   6.755 -0.3402 -0.2260  0.3315
 4671TIP3    H135572   4.834   6.048   6.718  0.3987 -0.2578 -0.8724
 4671TIP3    H235573   4.882   5.991   6.850  0.0249  1.7081  0.1532
 4672TIP3   OH235574   0.699   2.760   0.049 -0.2249 -0.0856 -0.2108
 4672TIP3    H135575   0.632   2.724   0.107 -2.6523  0.8356 -2.2850
 4672TIP3    H235576   0.664   2.844   0.021  1.9116  0.5218 -1.2720
 4673TIP3   OH235577   4.567   5.554   8.007  0.2123  0.1859  0.2871
 4673TIP3    H135578   4.563   5.649   8.019 -0.2062  0.2394 -0.2297
 4673TIP3    H235579   4.591   5.520   8.093  0.6638  0.7789  0.4011
 4674TIP3   OH235580   2.292   1.970   7.797  0.0807 -0.1701  0.0873
 4674TIP3    H135581   2.358   2.012   7.852  1.1378  0.4508 -1.5568
 4674TIP3    H235582   2.342   1.910   7.741 -0.7023  0.4221 -1.2977
 4675TIP3   OH235583   5.027   4.269   8.537  0.6729 -0.3490 -0.5475
 4675TIP3    H135584   5.003   4.185   8.575 -0.6593  0.1701 -0.1724
 4675TIP3    H235585   5.030   4.254   8.443  4.2868 -1.7284 -0.3522
 4676TIP3   OH235586   0.984   6.272   7.876 -0.0098 -0.4844  0.7607
 4676TIP3    H135587   0.908   6.257   7.818  1.7658 -1.0285 -1.5904
 4676TIP3    H235588   0.962   6.352   7.923 -1.6907 -0.1249 -0.5029
 4677TIP3   OH235589   3.018   5.950   8.468 -0.0953  0.2044  0.9183
 4677TIP3    H135590   3.054   5.878   8.417  0.5296 -0.5550  2.3923
 4677TIP3    H235591   3.074   6.025   8.446 -1.0351  0.4123 -0.9754
 4678TIP3   OH235592   2.825   5.544   1.097  0.1333  0.3174  0.2962
 4678TIP3    H135593   2.861   5.606   1.034 -1.4374 -0.1502 -1.1311
 4678TIP3    H235594   2.803   5.467   1.046  0.4407 -0.7847  1.7425
 4679TIP3   OH235595   6.436   0.966   2.006  0.1889 -0.1319  0.0041
 4679TIP3    H135596   6.374   1.037   1.986 -0.2334 -0.4935  0.0289
 4679TIP3    H235597   6.460   0.931   1.921  1.4390  0.9044 -0.1100
 4680TIP3   OH235598   3.619   1.589   0.014  0.1604 -0.3095  0.1555
 4680TIP3    H135599   3.714   1.587   0.022  0.1789 -1.7471 -0.1184
 4680TIP3    H235600   3.594   1.496   0.007 -1.2306  0.0635 -0.0216
 4681TIP3   OH235601   1.510   4.192   0.362  0.0019  0.1186  0.5053
 4681TIP3    H135602   1.419   4.172   0.380  0.1296 -1.2311 -0.2021
 4681TIP3    H235603   1.559   4.120   0.402  0.6507  0.1177 -0.2548
 4682TIP3   OH235604   0.142   2.649   0.561  0.8475 -1.1104  0.2827
 4682TIP3    H135605   0.212   2.587   0.539  1.6057 -0.0372 -0.4556
 4682TIP3    H235606   0.152   2.665   0.655  0.2159 -2.5944  0.6210
 4683TIP3   OH235607   0.615   2.158   1.642 -0.7773  0.3419 -0.4036
 4683TIP3    H135608   0.617   2.249   1.671 -1.2878  1.1341 -2.6680
 4683TIP3    H235609   0.692   2.118   1.683  0.8589  2.4219 -1.2812
 4684TIP3   OH235610   3.919   4.387   1.936 -0.0203 -0.6940  0.1563
 4684TIP3    H135611   3.890   4.449   2.003  1.2975 -2.0810  2.1195
 4684TIP3    H235612   3.839   4.346   1.904 -0.8103  1.1722 -0.3817
 4685TIP3   OH235613   4.343   6.057   2.262  0.3509 -0.2481  0.1924
 4685TIP3    H135614   4.273   6.031   2.322  0.3220  1.6704  1.0539
 4685TIP3    H235615   4.416   5.999   2.284 -0.0980 -0.4696  1.1531
 4686TIP3   OH235616   6.237   2.100   7.666  0.2804 -0.4947 -0.1226
 4686TIP3    H135617   6.222   2.071   7.576 -0.7960  1.5569 -0.6726
 4686TIP3    H235618   6.165   2.061   7.716 -0.0487 -0.3550 -0.4790
 4687TIP3   OH235619   1.243   6.437   1.971 -0.0033 -0.3453 -0.1234
 4687TIP3    H135620   1.257   6.496   2.046 -2.3505  1.0703 -0.6638
 4687TIP3    H235621   1.282   6.354   1.998  0.0930  0.3869  2.2912
 4688TIP3   OH235622   1.415   2.220   1.078  0.0187 -0.0606  0.5062
 4688TIP3    H135623   1.340   2.177   1.118 -1.0147  1.4578  0.2986
 4688TIP3    H235624   1.487   2.205   1.139 -1.3989  1.8304  2.8477
 4689TIP3   OH235625   5.083   2.926   8.591  0.1421  0.0414  0.0590
 4689TIP3    H135626   5.106   2.890   8.677 -2.4886  1.2098  1.3406
 4689TIP3    H235627   5.034   2.856   8.548  0.1423  0.0062  0.1162
 4690TIP3   OH235628   5.893   0.874   2.526 -0.1733 -0.6555  0.0756
 4690TIP3    H135629   5.841   0.794   2.531 -1.0840 -0.2018 -1.4483
 4690TIP3    H235630   5.970   0.850   2.475  0.5914 -1.0670  1.4169
 4691TIP3   OH235631   4.530   4.398   0.692  0.1076 -0.1160 -0.3301
 4691TIP3    H135632   4.457   4.460   0.685 -0.4838 -0.6110  1.0188
 4691TIP3    H235633   4.507   4.343   0.767  1.7289 -0.4841 -0.0613
 4692TIP3   OH235634   0.867   4.487   0.217 -0.2457 -0.4428  0.0440
 4692TIP3    H135635   0.916   4.418   0.261  1.2431  0.2915 -0.3897
 4692TIP3    H235636   0.893   4.480   0.125 -1.5746 -0.5219 -0.3513
 4693TIP3   OH235637   0.603   1.563   1.534  0.4315  0.1735  0.0413
 4693TIP3    H135638   0.644   1.553   1.448 -1.3385 -0.8925 -0.7342
 4693TIP3    H235639   0.639   1.644   1.568  3.1988 -0.6929 -0.5272
 4694TIP3   OH235640   0.479   1.474   7.950 -0.3086  0.0045  0.0707
 4694TIP3    H135641   0.492   1.473   8.044 -0.1562 -0.2378  0.0476
 4694TIP3    H235642   0.425   1.397   7.932 -0.2891  0.0174 -0.0476
 4695TIP3   OH235643   2.852   2.866   7.996 -0.2165  0.5637  0.6388
 4695TIP3    H135644   2.923   2.846   7.935  0.0220  1.9909  0.4142
 4695TIP3    H235645   2.782   2.806   7.971  0.1371  0.6246 -0.5813
 4696TIP3   OH235646   5.176   0.461   1.808 -0.3642 -0.3768  0.0058
 4696TIP3    H135647   5.171   0.503   1.894 -1.5099  2.2689 -1.2314
 4696TIP3    H235648   5.090   0.421   1.796 -1.2130  1.6152 -0.9407
 4697TIP3   OH235649   5.007   5.145   1.947 -0.1119 -0.5152  0.9336
 4697TIP3    H135650   4.977   5.215   1.889  0.2759  0.8392  2.2954
 4697TIP3    H235651   4.983   5.064   1.902 -1.3747  0.4920 -0.2837
 4698TIP3   OH235652   2.571   6.580   1.851 -0.5556  0.3466  0.1407
 4698TIP3    H135653   2.663   6.558   1.863 -0.4252  0.5205 -0.5000
 4698TIP3    H235654   2.551   6.641   1.923 -0.5341 -0.7006  1.0613
 4699TIP3   OH235655   1.650   6.533   2.208  0.0783  0.0016  0.1230
 4699TIP3    H135656   1.652   6.439   2.191 -0.3987 -0.4067  2.1648
 4699TIP3    H235657   1.712   6.547   2.279  0.7307  1.3872 -0.6511
 4700TIP3   OH235658   1.535   1.899   2.463 -0.0617 -0.0533 -0.3069
 4700TIP3    H135659   1.571   1.987   2.477 -1.5983  0.1545  3.8614
 4700TIP3    H235660   1.463   1.912   2.401  0.3121  1.5016 -0.4553
 4701TIP3   OH235661   3.432   2.104   7.704 -0.0026 -0.4930 -0.6404
 4701TIP3    H135662   3.515   2.153   7.704  0.3198 -1.0290 -0.1311
 4701TIP3    H235663   3.388   2.132   7.624  0.4181  0.2220 -0.6341
 4702TIP3   OH235664   3.851   4.200   8.361  0.2538 -0.3079  0.7716
 4702TIP3    H135665   3.870   4.148   8.440 -2.2356 -1.7904  0.5090
 4702TIP3    H235666   3.761   4.175   8.338  0.3410  1.3327 -1.6092
 4703TIP3   OH235667   6.291   1.153   8.275 -0.3440 -0.1588 -0.0715
 4703TIP3    H135668   6.272   1.080   8.334 -0.2140  0.3045  0.5469
 4703TIP3    H235669   6.346   1.212   8.326 -1.2743  0.8630 -0.2180
 4704TIP3   OH235670   3.663   0.744   7.325  0.1087 -0.0136 -0.4912
 4704TIP3    H135671   3.721   0.689   7.272  1.1712  0.3658  0.2491
 4704TIP3    H235672   3.681   0.833   7.296 -0.1725  0.1064 -0.3049
 4705TIP3   OH235673   0.120   6.274   3.072  0.8256 -0.2866  0.3718
 4705TIP3    H135674   0.152   6.225   2.996  1.6927  0.0747  0.4910
 4705TIP3    H235675   0.134   6.365   3.049 -0.5551 -0.0853  0.2536
 4706TIP3   OH235676   4.112   1.206   0.731  0.3114  0.1958 -0.5112
 4706TIP3    H135677   4.028   1.160   0.731  0.3348  0.0676 -2.4837
 4706TIP3    H235678   4.088   1.298   0.741 -0.0054  0.0894 -0.2614
 4707TIP3   OH235679   0.131   5.899   1.158  0.0012 -0.0384 -0.5718
 4707TIP3    H135680   0.201   5.920   1.096  0.8668  1.1305  0.7297
 4707TIP3    H235681   0.150   5.809   1.186  0.3596 -0.1032 -1.0115
 4708TIP3   OH235682   0.068   6.703   0.720  0.3589 -0.3178 -0.3740
 4708TIP3    H135683   0.134   6.771   0.726 -0.5810  0.7017 -1.1950
 4708TIP3    H235684   0.051   6.693   0.627 -0.2629 -0.9385 -0.2051
 4709TIP3   OH235685   2.990   6.376   8.298 -0.3298  0.4630 -0.1718
 4709TIP3    H135686   2.986   6.467   8.328  0.9660  1.0421 -1.6265
 4709TIP3    H235687   2.965   6.380   8.206 -0.5215 -0.7043 -0.1863
 4710TIP3   OH235688   0.471   1.141   8.324  0.2762 -0.5910 -0.2414
 4710TIP3    H135689   0.378   1.154   8.305  0.6059 -0.6468 -2.0812
 4710TIP3    H235690   0.487   1.049   8.305  0.8589 -0.4064 -0.6751
 4711TIP3   OH235691   6.122   1.082   7.393  0.3239  0.7639  0.1314
 4711TIP3    H135692   6.088   1.019   7.329  0.6321  0.3247  0.3863
 4711TIP3    H235693   6.123   1.165   7.346 -0.6305  0.6949 -0.0312
 4712TIP3   OH235694   2.869   0.021   0.372 -0.1310 -0.0380  0.3240
 4712TIP3    H135695   2.844   0.072   0.449 -0.5487  1.3978 -0.7187
 4712TIP3    H235696   2.936   0.074   0.328  0.5363 -1.1090 -0.0098
 4713TIP3   OH235697   4.444   0.223   1.662 -0.2939 -0.1126  0.5007
 4713TIP3    H135698   4.398   0.293   1.708 -0.7749  0.8938 -1.4302
 4713TIP3    H235699   4.376   0.157   1.644 -0.6082  0.5073 -0.6733
 4714TIP3   OH235700   0.904   5.183   0.526  0.0434 -0.0347 -0.0637
 4714TIP3    H135701   0.972   5.252   0.524  1.6445 -1.4646  1.2637
 4714TIP3    H235702   0.875   5.175   0.436  0.5248  1.7020 -0.4123
 4715TIP3   OH235703   3.828   1.444   0.420 -0.3700  0.0211 -0.3556
 4715TIP3    H135704   3.769   1.519   0.419 -0.7574 -0.1814  1.8100
 4715TIP3    H235705   3.801   1.391   0.345 -0.9344  1.3939 -1.1612
 4716TIP3   OH235706   0.094   0.639   0.785 -0.2536 -0.4669 -1.0232
 4716TIP3    H135707   0.006   0.674   0.795 -0.1502 -0.3487 -0.5236
 4716TIP3    H235708   0.130   0.637   0.873  0.2269 -0.5686 -1.2162
 4717TIP3   OH235709   2.371   5.324   7.478 -0.2996  0.5105  0.5960
 4717TIP3    H135710   2.291   5.373   7.458 -0.3144 -0.4490 -2.1778
 4717TIP3    H235711   2.442   5.382   7.450 -0.2043  0.0089 -0.2251
 4718TIP3   OH235712   5.223   5.586   7.908 -0.4329  0.0523 -0.2685
 4718TIP3    H135713   5.263   5.501   7.889 -1.2517 -0.1442 -1.2495
 4718TIP3    H235714   5.235   5.636   7.827  1.2648  1.3914  0.7730
 4719TIP3   OH235715   5.661   5.709   2.794  0.0122  0.3000  0.2799
 4719TIP3    H135716   5.603   5.761   2.850  1.2495  1.3127  0.6677
 4719TIP3    H235717   5.664   5.756   2.711 -0.1635 -0.0637  0.0624
 4720TIP3   OH235718   4.355   5.547   7.702  0.0229 -0.7871  0.1255
 4720TIP3    H135719   4.448   5.545   7.726  0.9361  1.3757 -2.6581
 4720TIP3    H235720   4.317   5.614   7.760  0.4935 -0.7831  0.4385
 4721TIP3   OH235721   3.391   3.351   7.646  0.2334 -0.2466 -0.3596
 4721TIP3    H135722   3.440   3.295   7.586 -1.0210 -1.5083 -0.2667
 4721TIP3    H235723   3.398   3.308   7.731 -0.7941 -0.3178 -0.2933
 4722TIP3   OH235724   3.177   1.301   8.518 -0.1942  0.1977 -0.1512
 4722TIP3    H135725   3.246   1.253   8.563 -0.2041  1.1612  0.9319
 4722TIP3    H235726   3.130   1.234   8.468  0.4744 -0.7306  0.4364
 4723TIP3   OH235727   4.904   5.187   6.904 -0.4000 -0.0611  0.5205
 4723TIP3    H135728   4.975   5.125   6.919  0.2846  0.8742  1.3043
 4723TIP3    H235729   4.946   5.261   6.860 -0.7589  0.7643  1.5324
 4724TIP3   OH235730   1.333   0.452   1.235  0.0642  0.3761 -0.1989
 4724TIP3    H135731   1.281   0.530   1.257  1.3408  1.5501 -1.0980
 4724TIP3    H235732   1.348   0.460   1.141  1.3080 -0.2597 -0.0752
 4725TIP3   OH235733   1.958   6.799   8.154 -0.9782 -1.1107  0.9029
 4725TIP3    H135734   2.010   6.864   8.202 -0.6366 -2.1750  2.0433
 4725TIP3    H235735   1.871   6.805   8.193 -1.3291 -0.3604  0.0199
 4726TIP3   OH235736   5.767   0.636   2.473 -0.0330 -0.0990  0.1127
 4726TIP3    H135737   5.687   0.689   2.468  0.1676  0.2568  0.5547
 4726TIP3    H235738   5.776   0.598   2.386 -0.8739 -0.4230  0.1607
 4727TIP3   OH235739   6.229   0.264   8.789  0.5808  0.1099  0.2671
 4727TIP3    H135740   6.214   0.208   8.712  0.1550  2.5988 -1.5776
 4727TIP3    H235741   6.324   0.279   8.790  0.3660  1.8532 -1.1858
 4728TIP3   OH235742   3.909   2.604   1.778 -0.1126  0.6515  0.2390
 4728TIP3    H135743   3.931   2.521   1.821  0.0394  0.3391 -0.4297
 4728TIP3    H235744   3.867   2.656   1.846  0.7072  0.4106  0.9454
 4729TIP3   OH235745   1.648   2.807   8.193 -0.4362 -0.6200 -0.9337
 4729TIP3    H135746   1.734   2.803   8.151 -0.5625  4.3035 -2.3003
 4729TIP3    H235747   1.598   2.869   8.139 -3.2325  0.3421  2.3975
 4730TIP3   OH235748   3.476   0.926   7.027  0.0134  0.5688 -0.1053
 4730TIP3    H135749   3.497   0.953   6.937 -1.0855  0.2349 -0.4760
 4730TIP3    H235750   3.523   0.989   7.082  2.1548 -0.2916 -0.8613
 4731TIP3   OH235751   4.180   0.193   8.046 -0.1914  0.5630  0.2183
 4731TIP3    H135752   4.131   0.268   8.010 -0.0766  0.9756  0.9070
 4731TIP3    H235753   4.191   0.214   8.139  2.2996  1.0472 -0.1257
 4732TIP3   OH235754   3.099   5.252   1.618 -0.5638 -0.0204  0.0316
 4732TIP3    H135755   3.088   5.174   1.563 -1.7026 -0.2439  0.5481
 4732TIP3    H235756   3.184   5.287   1.593 -0.2440 -1.1636 -0.5515
 4733TIP3   OH235757   4.230   1.063   0.925  0.1112  0.1785 -0.1548
 4733TIP3    H135758   4.223   1.116   0.846  0.6619 -0.3778 -0.5872
 4733TIP3    H235759   4.302   1.101   0.974  0.9868 -0.5972 -0.8130
 4734TIP3   OH235760   4.491   0.419   1.101 -0.0872  0.3796 -0.3561
 4734TIP3    H135761   4.464   0.431   1.192 -0.4189  3.9786 -0.8087
 4734TIP3    H235762   4.581   0.386   1.108 -1.2529 -3.0233  1.1303
 4735TIP3   OH235763   1.895   3.142   1.719  0.3389 -0.3768 -0.0921
 4735TIP3    H135764   1.960   3.213   1.719 -0.4161  0.3586 -1.3599
 4735TIP3    H235765   1.946   3.064   1.696  1.1098 -0.1832  0.9027
 4736TIP3   OH235766   4.579   2.274   0.495 -0.0481  0.0357  0.2652
 4736TIP3    H135767   4.666   2.262   0.533 -0.1294 -0.0733  0.4212
 4736TIP3    H235768   4.593   2.331   0.419  0.1214  0.2308  0.4413
 4737TIP3   OH235769   1.120   4.083   1.367 -0.3683  0.4645 -0.1820
 4737TIP3    H135770   1.113   4.166   1.415  1.0991  0.8431 -0.5540
 4737TIP3    H235771   1.148   4.109   1.279  1.5511 -0.4822  0.0973
 4738TIP3   OH235772   2.105   0.570   1.875 -0.1718 -0.7150 -0.7414
 4738TIP3    H135773   2.077   0.594   1.963  0.7946 -1.0049 -0.3362
 4738TIP3    H235774   2.051   0.495   1.852 -2.1000  0.7780 -1.3769
 4739TIP3   OH235775   4.048   3.869   2.679 -0.4148  0.0977 -0.4185
 4739TIP3    H135776   4.077   3.893   2.767 -0.6996 -1.1992  0.0462
 4739TIP3    H235777   4.044   3.774   2.680  0.4060  0.0075 -2.1021
 4740TIP3   OH235778   1.540   0.366   1.729 -0.3700 -0.0883 -0.1475
 4740TIP3    H135779   1.485   0.424   1.676  0.2464  0.3236 -0.3469
 4740TIP3    H235780   1.482   0.334   1.797 -0.5087  1.4583  0.5011
 4741TIP3   OH235781   5.066   4.183   7.745 -0.2666 -0.0067  0.7510
 4741TIP3    H135782   5.150   4.139   7.755 -0.3007 -0.2932 -0.1651
 4741TIP3    H235783   5.003   4.111   7.735 -0.2949  0.2287 -0.9637
 4742TIP3   OH235784   2.483   3.843   8.488  0.1862 -0.0923  0.0214
 4742TIP3    H135785   2.511   3.903   8.557  0.0494 -0.5966  0.5226
 4742TIP3    H235786   2.534   3.870   8.411  2.0556 -0.9367  0.8892
 4743TIP3   OH235787   5.546   3.166   7.801  0.5979  0.1668  0.3248
 4743TIP3    H135788   5.463   3.212   7.813 -0.6698 -1.5684 -1.2947
 4743TIP3    H235789   5.601   3.228   7.753 -0.9253  0.2361 -1.4498
 4744TIP3   OH235790   1.183   4.707   1.171  0.0776 -0.1587  0.6580
 4744TIP3    H135791   1.232   4.629   1.195 -1.0286 -1.6810 -1.6039
 4744TIP3    H235792   1.167   4.697   1.077 -1.6206  1.9334  0.6390
 4745TIP3   OH235793   3.717   6.453   1.415 -0.2122 -0.4117  0.0547
 4745TIP3    H135794   3.718   6.416   1.326 -1.0022  2.1888 -1.1122
 4745TIP3    H235795   3.777   6.527   1.410 -0.8215  0.1907  1.5118
 4746TIP3   OH235796   3.115   1.258   1.946 -0.0430 -0.4006  0.5119
 4746TIP3    H135797   3.192   1.315   1.937 -0.3692 -0.1611 -0.8958
 4746TIP3    H235798   3.123   1.222   2.035 -0.2443  2.4567  1.8010
 4747TIP3   OH235799   5.086   6.465   2.588  0.5934  0.2469 -0.2220
 4747TIP3    H135800   5.013   6.407   2.607  0.8163 -0.4198 -1.3133
 4747TIP3    H235801   5.102   6.512   2.671 -2.8919  2.5588 -0.6588
 4748TIP3   OH235802   3.917   4.014   2.509  0.0802 -0.0074 -0.4148
 4748TIP3    H135803   3.881   3.936   2.468 -2.2301  0.3915  0.7027
 4748TIP3    H235804   3.966   3.982   2.585 -0.9840 -0.3991  0.1246
 4749TIP3   OH235805   5.556   4.274   1.345  0.4519 -0.6780 -0.0619
 4749TIP3    H135806   5.509   4.337   1.400  0.5689 -0.2594 -0.4332
 4749TIP3    H235807   5.646   4.307   1.342  0.5630 -0.9780 -0.0910
 4750TIP3   OH235808   4.657   2.840   2.159  0.4393  0.1917  0.5986
 4750TIP3    H135809   4.599   2.878   2.094  0.9890  0.5056  0.2843
 4750TIP3    H235810   4.709   2.775   2.110 -0.8776 -1.4254  1.2311
 4751TIP3   OH235811   1.155   4.698   8.513  0.4162 -0.2622  0.0205
 4751TIP3    H135812   1.195   4.688   8.600 -1.0872  0.9140  0.9102
 4751TIP3    H235813   1.155   4.793   8.498 -0.0457 -0.3968 -0.9173
 4752TIP3   OH235814   1.915   2.735   2.768 -0.6604  0.4121  0.2986
 4752TIP3    H135815   1.906   2.828   2.792  0.5739  0.8208 -0.7081
 4752TIP3    H235816   1.825   2.702   2.770 -1.3358  2.0134 -0.7765
 4753TIP3   OH235817   2.102   1.728   0.276 -0.0274 -0.0748 -0.7158
 4753TIP3    H135818   2.176   1.705   0.332 -0.2910 -0.1674 -0.4055
 4753TIP3    H235819   2.075   1.815   0.306 -0.0943 -0.0743 -0.7760
 4754TIP3   OH235820   6.343   3.990   1.434 -0.2536  0.0884 -0.3187
 4754TIP3    H135821   6.366   4.065   1.490  0.2971  0.1080 -0.5645
 4754TIP3    H235822   6.358   3.913   1.489 -2.2994  0.1705  0.4772
 4755TIP3   OH235823   6.692   4.870   7.825 -0.6494 -0.2476 -0.2310
 4755TIP3    H135824   6.725   4.781   7.830 -0.7797 -0.2905 -0.1306
 4755TIP3    H235825   6.767   4.922   7.795 -0.0856 -0.1201  1.2865
 4756TIP3   OH235826   1.725   3.458   8.827  0.1301  0.3635  0.8052
 4756TIP3    H135827   1.684   3.380   8.865 -0.1660  1.1114  2.0826
 4756TIP3    H235828   1.790   3.423   8.767  0.5240 -0.9008  1.9018
 4757TIP3   OH235829   1.653   5.578   0.671 -0.4045  0.3116  0.2531
 4757TIP3    H135830   1.729   5.611   0.720 -0.0271 -0.1023 -0.0388
 4757TIP3    H235831   1.638   5.491   0.706 -0.7733  0.4031  0.3298
 4758TIP3   OH235832   6.390   4.222   1.558  0.3866  0.5888 -0.1613
 4758TIP3    H135833   6.438   4.294   1.518 -0.0833  0.4669 -0.9526
 4758TIP3    H235834   6.328   4.265   1.618  0.5041  0.8108 -0.1970
 4759TIP3   OH235835   4.665   1.519   7.395  0.5353 -0.3469  0.0590
 4759TIP3    H135836   4.700   1.594   7.346 -2.3125  1.4052  0.5058
 4759TIP3    H235837   4.639   1.457   7.326  2.7448 -0.9389 -0.3209
 4760TIP3   OH235838   4.956   2.811   8.390 -0.3064  0.5669 -0.0713
 4760TIP3    H135839   4.983   2.801   8.299 -1.4054 -0.4902 -0.3042
 4760TIP3    H235840   4.900   2.735   8.407 -0.4071  0.9372  1.3807
 4761TIP3   OH235841   5.645   0.493   1.543 -0.5303  0.0864 -0.3074
 4761TIP3    H135842   5.652   0.557   1.472 -3.2442 -0.0890 -0.8502
 4761TIP3    H235843   5.551   0.486   1.559 -0.0800 -0.9827  2.3389
 4762TIP3   OH235844   5.841   0.510   7.832  0.3153 -0.2288 -0.4935
 4762TIP3    H135845   5.754   0.540   7.858  0.2946 -0.2922 -0.4906
 4762TIP3    H235846   5.898   0.584   7.851 -0.0358  0.5797 -2.3187
 4763TIP3   OH235847   3.796   1.557   8.582  0.5978  0.0095 -0.6854
 4763TIP3    H135848   3.709   1.540   8.617  1.3220 -0.5519  0.9462
 4763TIP3    H235849   3.797   1.650   8.562  0.6249  0.7730  2.4190
 4764TIP3   OH235850   1.060   1.629   0.943  0.4465  0.6788 -0.0498
 4764TIP3    H135851   1.029   1.601   1.029 -1.4502  2.4718 -0.0747
 4764TIP3    H235852   1.154   1.608   0.943  0.7055  1.4510  2.8019
 4765TIP3   OH235853   4.356   4.805   8.611  0.6331  0.0949  0.0858
 4765TIP3    H135854   4.378   4.877   8.551 -1.9745  0.3722 -0.6601
 4765TIP3    H235855   4.262   4.790   8.596  0.2135 -0.7983  3.0725
 4766TIP3   OH235856   3.476   6.298   7.968 -0.4616  0.1953  0.2610
 4766TIP3    H135857   3.420   6.255   7.903 -0.8803 -0.2487  0.9080
 4766TIP3    H235858   3.564   6.292   7.930 -0.9429  1.7575 -1.2185
 4767TIP3   OH235859   3.408   3.095   8.682 -0.2015 -0.0329  0.1949
 4767TIP3    H135860   3.432   3.004   8.667 -0.7286 -1.0643  4.3386
 4767TIP3    H235861   3.314   3.098   8.665  0.1780  0.4166 -2.1521
 4768TIP3   OH235862   2.195   3.203   1.478 -0.3442 -0.1993 -0.1393
 4768TIP3    H135863   2.253   3.270   1.442  0.0253  0.3431  1.3685
 4768TIP3    H235864   2.181   3.230   1.569 -0.2833 -2.1031  0.4801
 4769TIP3   OH235865   0.323   4.263   0.319  0.7186 -0.3730  0.0160
 4769TIP3    H135866   0.277   4.179   0.310 -1.6217  0.8436 -0.1583
 4769TIP3    H235867   0.350   4.266   0.411 -1.0314 -0.4907  0.5851
 4770TIP3   OH235868   3.663   1.514   7.716  0.1589  0.5226  0.0093
 4770TIP3    H135869   3.605   1.551   7.649  0.3208 -1.3325 -1.2688
 4770TIP3    H235870   3.604   1.477   7.782 -0.1748 -0.7879 -0.9638
 4771TIP3   OH235871   2.866   5.209   8.332  0.4056  0.0882 -0.6455
 4771TIP3    H135872   2.920   5.143   8.376  0.4677  0.7087  0.2460
 4771TIP3    H235873   2.785   5.164   8.309  0.1747 -0.1344  0.5627
 4772TIP3   OH235874   3.579   3.472   8.256 -0.3198 -0.1386 -0.1338
 4772TIP3    H135875   3.628   3.422   8.322 -1.0090  0.1296  0.6093
 4772TIP3    H235876   3.637   3.544   8.232  0.0359 -0.3798  0.0003
 4773TIP3   OH235877   5.135   4.111   2.484 -1.2275 -0.1087 -0.5348
 4773TIP3    H135878   5.151   4.017   2.489  1.8527  0.2998 -0.9694
 4773TIP3    H235879   5.116   4.137   2.574  1.4001 -0.6835  0.2654
 4774TIP3   OH235880   1.131   3.762   7.130  0.1821  0.4358  0.0359
 4774TIP3    H135881   1.059   3.708   7.163  0.9646 -0.9900 -0.5016
 4774TIP3    H235882   1.133   3.838   7.189 -1.6340  0.4377  0.1616
 4775TIP3   OH235883   0.649   2.278   7.486 -0.1241 -0.4286  0.0373
 4775TIP3    H135884   0.660   2.198   7.538  1.3289 -0.9636 -0.9942
 4775TIP3    H235885   0.734   2.289   7.442  0.4354  2.7664  1.5979
 4776TIP3   OH235886   5.452   4.100   0.865 -0.5393 -0.0917 -0.1665
 4776TIP3    H135887   5.481   4.021   0.909  1.0287  0.7024  0.2967
 4776TIP3    H235888   5.501   4.103   0.783 -0.6097  0.3756 -0.2000
 4777TIP3   OH235889   0.231   5.573   0.520  0.9486  0.0919  0.0480
 4777TIP3    H135890   0.292   5.610   0.456  2.8208 -0.1635  1.5815
 4777TIP3    H235891   0.246   5.479   0.516 -0.6787 -0.1767 -0.7772
 4778TIP3   OH235892   1.133   2.858   8.301 -0.2705 -0.7207  0.2568
 4778TIP3    H135893   1.216   2.812   8.292  0.0193  0.0061 -1.1286
 4778TIP3    H235894   1.096   2.858   8.213 -1.3316 -0.2875  0.6892
 4779TIP3   OH235895   4.827   5.645   0.165 -0.1288  0.0116 -0.0400
 4779TIP3    H135896   4.857   5.702   0.094  2.2560 -1.5119 -0.3351
 4779TIP3    H235897   4.893   5.654   0.233 -0.6717 -1.0423  0.6583
 4780TIP3   OH235898   1.925   0.758   7.296 -0.6282 -0.4132  0.6680
 4780TIP3    H135899   1.892   0.771   7.207  2.5876 -0.5806 -0.6826
 4780TIP3    H235900   2.005   0.706   7.285  0.3343  0.2484  3.5789
 4781TIP3   OH235901   5.327   1.571   0.190 -0.2101  0.2036 -0.0250
 4781TIP3    H135902   5.361   1.536   0.108  2.2482 -1.0017  1.4002
 4781TIP3    H235903   5.351   1.664   0.188  0.1584  0.1040 -0.5073
 4782TIP3   OH235904   3.660   4.482   0.082  0.2053 -0.5859 -0.7946
 4782TIP3    H135905   3.601   4.551   0.110  1.2088  0.4560 -1.1522
 4782TIP3    H235906   3.687   4.438   0.163  0.9515  0.6251 -0.3613
 4783TIP3   OH235907   2.265   5.326   7.013 -0.4306  0.4079 -0.1808
 4783TIP3    H135908   2.211   5.402   7.036 -1.9283 -0.7700  0.4705
 4783TIP3    H235909   2.334   5.360   6.957 -0.9272  2.2707  0.2841
 4784TIP3   OH235910   4.153   6.174   8.456 -0.1033  0.2339 -0.2474
 4784TIP3    H135911   4.209   6.184   8.380  0.6150  0.7597  0.3459
 4784TIP3    H235912   4.213   6.156   8.528 -0.8666 -2.0272 -0.0819
 4785TIP3   OH235913   5.578   5.892   0.513 -0.1999  0.9021 -0.2910
 4785TIP3    H135914   5.491   5.927   0.527 -1.4850 -2.0091 -0.2135
 4785TIP3    H235915   5.612   5.876   0.601 -0.1086  0.8433 -0.3366
 4786TIP3   OH235916   1.382   4.584   7.054  0.2485  0.3818 -0.1684
 4786TIP3    H135917   1.438   4.660   7.068 -0.0417  0.3283  1.4575
 4786TIP3    H235918   1.442   4.516   7.022  0.5648  1.1753 -1.3153
 4787TIP3   OH235919   5.910   3.508   1.902 -0.3671 -0.3042 -0.4233
 4787TIP3    H135920   5.866   3.516   1.818  0.0734 -0.1756 -0.6479
 4787TIP3    H235921   5.888   3.421   1.933 -0.7121 -0.2696 -0.5661
 4788TIP3   OH235922   5.731   3.150   2.400 -0.2988 -0.3454 -0.2306
 4788TIP3    H135923   5.681   3.179   2.323 -2.1023 -0.7683  0.7253
 4788TIP3    H235924   5.754   3.231   2.445  1.2027 -0.0604 -1.4215
 4789TIP3   OH235925   2.482   2.151   7.916 -0.1266 -0.8165  0.5374
 4789TIP3    H135926   2.450   2.210   7.984 -1.3940 -1.6043  0.6559
 4789TIP3    H235927   2.476   2.202   7.835 -1.5728 -0.8882  0.5828
 4790TIP3   OH235928   1.633   0.213   8.424  0.0671  0.4933 -0.1217
 4790TIP3    H135929   1.684   0.148   8.376  0.0424  0.9184 -0.7373
 4790TIP3    H235930   1.545   0.205   8.389 -0.1636  0.1943  0.4977
 4791TIP3   OH235931   6.094   0.678   2.118 -0.1321  0.2025  0.1098
 4791TIP3    H135932   6.058   0.759   2.082 -1.0889  1.0290  2.7194
 4791TIP3    H235933   6.187   0.698   2.131  0.0173  0.2283 -0.8856
 4792TIP3   OH235934   2.886   5.788   0.762 -0.5527  0.1910  0.1070
 4792TIP3    H135935   2.913   5.756   0.848  1.6706  1.3761 -0.0809
 4792TIP3    H235936   2.833   5.865   0.781 -0.6690  0.0318  0.4292
 4793TIP3   OH235937   2.051   3.227   0.406 -0.2146 -0.4924  0.3408
 4793TIP3    H135938   2.125   3.266   0.360 -1.7341  0.0733 -1.7370
 4793TIP3    H235939   2.051   3.271   0.492  2.7005 -1.6152  1.0435
 4794TIP3   OH235940   6.425   2.275   7.794  0.9145 -0.5669  0.4521
 4794TIP3    H135941   6.394   2.290   7.884 -0.7241  3.1706 -0.5871
 4794TIP3    H235942   6.349   2.240   7.748  0.1423  2.1920 -0.5257
 4795TIP3   OH235943   3.130   3.128   8.015  0.0191  0.0633 -0.3403
 4795TIP3    H135944   3.133   3.105   7.922 -1.0005 -0.8099 -0.1747
 4795TIP3    H235945   3.151   3.047   8.061 -0.5428  0.2146  0.2029
 4796TIP3   OH235946   0.756   5.811   2.477  0.2433  0.3136 -0.0041
 4796TIP3    H135947   0.698   5.854   2.414  0.1492 -2.0136 -1.6143
 4796TIP3    H235948   0.828   5.873   2.490  0.7433  0.5359 -3.1679
 4797TIP3   OH235949   4.789   4.319   6.976 -0.4552 -0.3808  0.1417
 4797TIP3    H135950   4.763   4.234   6.941 -0.6218  0.3391 -1.5424
 4797TIP3    H235951   4.885   4.321   6.968 -0.4808 -0.2743 -0.1370
 4798TIP3   OH235952   6.279   1.251   0.731 -0.3392  0.2138  0.3707
 4798TIP3    H135953   6.355   1.220   0.682  0.7748  1.3702  1.3086
 4798TIP3    H235954   6.209   1.253   0.666  0.7651  0.4530 -0.8618
 4799TIP3   OH235955   4.262   4.547   1.429 -0.1896  0.4092 -0.5375
 4799TIP3    H135956   4.269   4.459   1.392 -2.0910 -0.4155  0.8955
 4799TIP3    H235957   4.209   4.595   1.365 -2.7624 -0.7751  0.5771
 4800TIP3   OH235958   2.488   5.162   0.905 -0.1840  0.2737 -0.0193
 4800TIP3    H135959   2.485   5.215   0.826 -0.2745  0.1746 -0.0831
 4800TIP3    H235960   2.476   5.224   0.977  2.0338  0.6860  0.0619
 4801TIP3   OH235961   1.957   3.870   0.693 -0.3667 -0.2817  0.1669
 4801TIP3    H135962   1.927   3.953   0.659  0.3186  1.0204  2.4850
 4801TIP3    H235963   2.052   3.881   0.703  0.0770 -2.1392 -1.4485
 4802TIP3   OH235964   4.511   5.573   0.810 -0.6074  0.2761  0.5525
 4802TIP3    H135965   4.451   5.597   0.740  0.8366 -0.4096 -0.9937
 4802TIP3    H235966   4.580   5.639   0.807  0.6750 -1.0385 -0.2830
 4803TIP3   OH235967   5.104   2.275   0.243  0.3489  0.1675 -0.2924
 4803TIP3    H135968   5.083   2.185   0.268  0.3806  0.1649 -0.2744
 4803TIP3    H235969   5.040   2.297   0.175 -0.2029  0.4285  0.3086
 4804TIP3   OH235970   2.857   3.752   7.513 -0.0583 -0.1110 -0.4288
 4804TIP3    H135971   2.949   3.727   7.511 -0.3192 -1.3616  1.0532
 4804TIP3    H235972   2.826   3.737   7.423  1.7729  3.0797 -1.7642
 4805TIP3   OH235973   5.275   6.322   2.435 -0.1980 -0.4785  0.1585
 4805TIP3    H135974   5.196   6.356   2.478 -0.7965  0.0381 -1.2732
 4805TIP3    H235975   5.320   6.272   2.503 -1.0480  0.3675  1.3910
 4806TIP3   OH235976   5.552   1.945   1.622  0.1619 -0.5562  0.4637
 4806TIP3    H135977   5.648   1.940   1.618  0.1607 -0.4837  0.3304
 4806TIP3    H235978   5.534   2.039   1.616  0.0284 -0.6430 -0.7944
 4807TIP3   OH235979   2.991   5.811   8.226 -0.7626 -0.1874 -0.3673
 4807TIP3    H135980   2.949   5.726   8.241  0.6532 -0.9790 -0.7340
 4807TIP3    H235981   3.029   5.805   8.139 -0.1731  0.6320 -0.1823
 4808TIP3   OH235982   2.454   0.837   7.497  0.1137 -0.0771 -0.3719
 4808TIP3    H135983   2.542   0.862   7.524  0.3852 -1.7153  0.3785
 4808TIP3    H235984   2.410   0.920   7.478  1.0078  0.9563  1.7423
 4809TIP3   OH235985   0.613   5.935   8.724  0.8342 -0.8610  0.0577
 4809TIP3    H135986   0.526   5.972   8.711  1.9618  2.2430  0.5222
 4809TIP3    H235987   0.648   5.926   8.635  0.6279 -0.5528 -0.0570
 4810TIP3   OH235988   5.554   3.310   1.025  0.3219 -0.4862 -0.1240
 4810TIP3    H135989   5.649   3.305   1.021  0.2912 -0.9214 -0.2792
 4810TIP3    H235990   5.528   3.347   0.940  0.4748  1.5681  0.6472
 4811TIP3   OH235991   2.868   5.016   8.077 -0.3113  0.4577 -0.1296
 4811TIP3    H135992   2.886   4.923   8.094 -0.2563  0.3241 -0.8659
 4811TIP3    H235993   2.810   5.042   8.149  0.7112  0.2125  0.8148
 4812TIP3   OH235994   4.222   5.015   7.341  0.1121 -0.2897  0.1645
 4812TIP3    H135995   4.301   4.966   7.323 -0.7583 -1.9696  0.7101
 4812TIP3    H235996   4.222   5.029   7.436  0.2853  0.6949  0.0366
 4813TIP3   OH235997   1.675   2.698   7.866 -0.6385 -0.0991 -0.4118
 4813TIP3    H135998   1.769   2.679   7.861 -0.5457  0.3751 -0.5030
 4813TIP3    H235999   1.635   2.637   7.803 -0.5026 -0.9713  0.3208
 4814TIP3   OH236000   2.203   3.872   8.167 -0.3106 -0.1336  0.1350
 4814TIP3    H136001   2.116   3.854   8.204  0.2341 -0.6244  1.2166
 4814TIP3    H236002   2.197   3.963   8.138 -0.8796  0.1785  1.1537
 4815TIP3   OH236003   4.710   4.192   1.091 -0.3785  0.3386  0.2264
 4815TIP3    H136004   4.797   4.230   1.078 -0.2200 -0.4231 -1.1563
 4815TIP3    H236005   4.697   4.136   1.015 -1.4944 -0.6799  1.1236
 4816TIP3   OH236006   4.236   2.575   2.881  0.4816  0.3913 -0.1682
 4816TIP3    H136007   4.321   2.537   2.858  1.1723  1.8708 -0.1854
 4816TIP3    H236008   4.254   2.669   2.893 -1.4246  0.9965 -1.5955
 4817TIP3   OH236009   6.726   3.411   8.119 -0.5015  0.8016  0.7638
 4817TIP3    H136010   6.651   3.468   8.099  0.5702  2.0374  0.1055
 4817TIP3    H236011   6.730   3.409   8.214 -1.0496  1.1802  0.7996
 4818TIP3   OH236012   6.229   6.142   7.923  0.0511 -0.5277 -0.1949
 4818TIP3    H136013   6.216   6.115   7.832 -2.4744 -1.0133  0.2295
 4818TIP3    H236014   6.254   6.062   7.968  0.7153 -0.4063 -0.3317
 4819TIP3   OH236015   5.873   1.518   1.089 -0.9484 -0.5411  0.1237
 4819TIP3    H136016   5.879   1.447   1.026  1.5137  0.3001 -0.6729
 4819TIP3    H236017   5.897   1.597   1.040 -0.9093  0.4337  1.6347
 4820TIP3   OH236018   5.374   0.472   1.584  0.7508  0.2037 -0.2625
 4820TIP3    H136019   5.307   0.468   1.651  0.7499 -0.3557 -0.2951
 4820TIP3    H236020   5.364   0.391   1.534  1.9682 -0.2817  0.2393
 4821TIP3   OH236021   0.797   3.147   0.924  0.4270 -0.4238 -0.0159
 4821TIP3    H136022   0.782   3.190   0.839  0.8751  1.4849  0.8171
 4821TIP3    H236023   0.851   3.209   0.972  2.4822 -2.6729  0.7109
 4822TIP3   OH236024   3.999   0.930   0.931 -0.1806 -0.4603 -0.7751
 4822TIP3    H136025   4.019   0.836   0.931  0.3862 -0.3447 -0.8394
 4822TIP3    H236026   4.085   0.972   0.922 -0.6748  0.0335 -4.1344
 4823TIP3   OH236027   1.046   1.278   7.768  0.1686  0.1012 -0.2707
 4823TIP3    H136028   1.092   1.358   7.794  2.0549 -0.8457 -0.5158
 4823TIP3    H236029   1.007   1.246   7.849  0.3117  0.7080  0.0462
 4824TIP3   OH236030   3.236   6.657   2.839  0.1920 -0.1069  0.1447
 4824TIP3    H136031   3.274   6.688   2.921 -2.1450  2.3295  0.4504
 4824TIP3    H236032   3.274   6.713   2.772 -0.0314 -0.1889 -0.0522
 4825TIP3   OH236033   5.063   5.234   1.337 -0.4156  0.4094  0.3511
 4825TIP3    H136034   5.064   5.144   1.372  1.4050  1.1626  2.4348
 4825TIP3    H236035   4.973   5.264   1.352 -1.4591 -1.4380 -1.6133
 4826TIP3   OH236036   0.165   4.248   8.089 -0.0952  0.2096 -0.2637
 4826TIP3    H136037   0.151   4.202   8.173  0.4306 -0.5200 -0.5618
 4826TIP3    H236038   0.077   4.273   8.061 -0.3931 -0.5475 -0.0435
 4827TIP3   OH236039   1.799   1.501   3.290 -0.0129 -0.4975  0.2128
 4827TIP3    H136040   1.805   1.431   3.225  1.5721 -1.7613  1.6107
 4827TIP3    H236041   1.875   1.556   3.275 -1.5966  1.4278 -1.3044
 4828TIP3   OH236042   4.420   4.737   0.183  0.1191  0.0586 -0.1833
 4828TIP3    H136043   4.402   4.814   0.129 -1.2705 -0.5645 -0.6693
 4828TIP3    H236044   4.405   4.766   0.273  2.1694  1.0281 -0.0886
 4829TIP3   OH236045   5.154   4.055   1.939 -0.1423 -0.2673  0.0450
 4829TIP3    H136046   5.064   4.041   1.969 -0.7912  1.7062 -0.7590
 4829TIP3    H236047   5.155   4.147   1.911  1.9290 -0.4618 -0.6660
 4830TIP3   OH236048   5.925   6.733   0.970 -0.3981  0.1742  0.2378
 4830TIP3    H136049   5.873   6.653   0.968  0.9805 -0.7563  0.5404
 4830TIP3    H236050   5.865   6.801   0.936 -1.3395 -1.1133 -0.8022
 4831TIP3   OH236051   2.846   1.245   1.899 -0.0660  0.3698  0.5530
 4831TIP3    H136052   2.938   1.265   1.916 -0.3950  0.4823  2.3633
 4831TIP3    H236053   2.809   1.327   1.866  0.4003  0.4172  0.1389
 4832TIP3   OH236054   5.407   0.237   0.671 -0.1209 -0.4618 -0.4728
 4832TIP3    H136055   5.454   0.307   0.717  0.6511 -1.0048 -0.4062
 4832TIP3    H236056   5.475   0.192   0.621 -0.6865 -0.8867 -0.8733
 4833TIP3   OH236057   1.963   3.608   0.064  0.9694 -0.1304  0.0816
 4833TIP3    H136058   1.967   3.567  -0.022  1.3840  0.7034 -0.3087
 4833TIP3    H236059   1.925   3.541   0.121 -1.2615  0.0026 -1.1648
 4834TIP3   OH236060   2.931   1.664   8.220 -0.0457  0.5441 -0.2025
 4834TIP3    H136061   2.888   1.635   8.140 -0.5240  0.1676  0.1837
 4834TIP3    H236062   2.884   1.743   8.245  1.5667  2.0000 -1.5207
 4835TIP3   OH236063   5.755   4.521   7.810  0.0027 -1.1062  0.1473
 4835TIP3    H136064   5.846   4.549   7.823  0.2543 -0.4279 -2.5628
 4835TIP3    H236065   5.757   4.426   7.819  1.0442 -1.1246 -0.1471
 4836TIP3   OH236066   1.897   1.750   8.061 -0.5366  0.4913  0.1434
 4836TIP3    H136067   1.970   1.781   8.008  0.2928  0.4291  1.2142
 4836TIP3    H236068   1.921   1.773   8.151 -1.9141  0.6150  0.5101
 4837TIP3   OH236069   1.679   6.578   8.204  0.5889 -0.2073  0.4518
 4837TIP3    H136070   1.717   6.531   8.130 -1.3312 -0.8067 -0.2044
 4837TIP3    H236071   1.599   6.530   8.225  0.8389  0.2203  2.6427
 4838TIP3   OH236072   2.411   0.361   8.239  0.5790  0.2715  0.2339
 4838TIP3    H136073   2.350   0.427   8.272 -0.0940 -1.2532  2.2570
 4838TIP3    H236074   2.430   0.388   8.149 -2.2178  1.4340 -0.1132
 4839TIP3   OH236075   1.567   6.267   2.100  0.1883 -1.0094 -0.5287
 4839TIP3    H136076   1.613   6.211   2.161  1.3094  1.5664  1.1569
 4839TIP3    H236077   1.475   6.245   2.111  0.4126 -0.9609  1.7947
 4840TIP3   OH236078   1.966   1.010   1.934 -0.4503 -0.0083  0.2154
 4840TIP3    H136079   1.884   1.026   1.886 -0.1619 -0.0212 -0.2863
 4840TIP3    H236080   1.992   1.096   1.966  0.7783  0.4899 -1.9649
 4841TIP3   OH236081   4.137   5.177   7.792  0.1507  0.5876 -0.4148
 4841TIP3    H136082   4.092   5.251   7.832  1.1232  1.5777 -1.0713
 4841TIP3    H236083   4.068   5.115   7.771 -0.5788  0.8580  1.0683
 4842TIP3   OH236084   2.547   5.285   8.013 -0.5029  0.2170 -0.4720
 4842TIP3    H136085   2.487   5.297   8.087 -1.1323 -2.1502 -0.5174
 4842TIP3    H236086   2.492   5.299   7.936 -0.4076  0.3793 -0.5121
 4843TIP3   OH236087   2.946   3.548   1.833  0.2860  0.2079  0.3502
 4843TIP3    H136088   3.041   3.537   1.839  0.9053  3.0080 -1.8392
 4843TIP3    H236089   2.918   3.483   1.770  0.8517 -0.2102  0.5221
 4844TIP3   OH236090   2.497   4.129   0.757 -0.5775  0.6535  0.1699
 4844TIP3    H136091   2.587   4.148   0.731 -0.7335  1.5053  0.2184
 4844TIP3    H236092   2.445   4.152   0.681 -0.7963  0.6489  0.3184
 4845TIP3   OH236093   0.188   3.693   0.700  0.2682 -0.2733 -0.5642
 4845TIP3    H136094   0.247   3.619   0.714 -1.4324 -1.3509  1.5362
 4845TIP3    H236095   0.208   3.753   0.772  0.2415  0.3588 -1.0803
 4846TIP3   OH236096   5.988   5.316   0.267  0.6074 -0.0929 -0.2242
 4846TIP3    H136097   5.901   5.356   0.259  0.6126  0.2057  1.1076
 4846TIP3    H236098   6.003   5.277   0.180 -1.0468 -0.5496 -0.3613
 4847TIP3   OH236099   3.961   5.237   1.093 -0.1934  0.3081 -1.0401
 4847TIP3    H136100   3.967   5.314   1.036  2.2495  1.1110  0.1603
 4847TIP3    H236101   4.033   5.180   1.063  0.7594  0.4841  0.7747
 4848TIP3   OH236102   4.566   6.322   8.414 -0.7373  0.0298  0.1205
 4848TIP3    H136103   4.523   6.385   8.356 -0.6801 -0.3136 -0.3044
 4848TIP3    H236104   4.548   6.354   8.502 -0.8320  0.5596 -0.0859
 4849TIP3   OH236105   1.007   6.621   1.593  0.1341  0.2599  0.0846
 4849TIP3    H136106   1.068   6.648   1.662  0.2588  1.6990 -0.5654
 4849TIP3    H236107   1.061   6.575   1.530  0.5964  1.6339 -0.5462
 4850TIP3   OH236108   1.077   3.947   1.772 -0.0676  0.0227 -0.2462
 4850TIP3    H136109   1.152   3.929   1.829 -1.2478  0.8841  1.6737
 4850TIP3    H236110   1.079   3.877   1.706  2.2292 -0.1284 -0.0805
 4851TIP3   OH236111   1.632   0.561   2.293 -0.1508 -0.0312 -0.5486
 4851TIP3    H136112   1.728   0.564   2.299 -0.1543  1.2136 -0.7098
 4851TIP3    H236113   1.606   0.491   2.351  0.9305 -1.2376 -1.4615
 4852TIP3   OH236114   4.335   5.911   7.691  0.1208  0.1376  0.3458
 4852TIP3    H136115   4.375   5.995   7.713 -0.2690  0.6001 -0.6589
 4852TIP3    H236116   4.368   5.891   7.603  0.0818 -0.6884  0.5083
 4853TIP3   OH236117   2.979   6.559   7.721  0.4356  0.5431  0.0970
 4853TIP3    H136118   2.927   6.598   7.652 -0.8463 -0.3879  0.4922
 4853TIP3    H236119   3.023   6.633   7.764 -2.5297  1.7096  1.3505
 4854TIP3   OH236120   3.687   2.410   1.886  1.0390 -0.5362  0.2941
 4854TIP3    H136121   3.647   2.362   1.813  0.4407 -0.0502  0.2967
 4854TIP3    H236122   3.768   2.361   1.905 -0.0860 -2.2031  1.0189
 4855TIP3   OH236123   6.084   1.388   2.109  1.0599 -0.0011  0.0038
 4855TIP3    H136124   6.018   1.348   2.052  1.5810  0.0747 -0.6612
 4855TIP3    H236125   6.121   1.315   2.159 -0.6313  0.1322  1.5875
 4856TIP3   OH236126   3.722   5.901   0.118  0.2244 -0.8261 -0.1079
 4856TIP3    H136127   3.633   5.890   0.151 -0.5525 -0.2269 -1.9042
 4856TIP3    H236128   3.713   5.906   0.023  1.8000  2.3269 -0.2299
 4857TIP3   OH236129   1.441   2.063   6.441  0.5664 -0.0302  0.0143
 4857TIP3    H136130   1.375   2.026   6.382  0.3382  0.6970 -0.2016
 4857TIP3    H236131   1.427   2.158   6.436 -0.3071  0.0206  2.2443
 4858TIP3   OH236132   4.219   1.067   8.045  0.4136  0.1411  0.3202
 4858TIP3    H136133   4.211   1.150   8.091  0.3208 -0.4850  1.4743
 4858TIP3    H236134   4.254   1.090   7.959  1.8144  1.2351  1.1446
 4859TIP3   OH236135   6.788   0.348   0.046  0.2267 -0.9796  0.0141
 4859TIP3    H136136   6.706   0.391   0.020  0.5776 -0.2163  0.1655
 4859TIP3    H236137   6.808   0.384   0.132  0.8512 -0.9742 -0.1299
 4860TIP3   OH236138   5.138   3.634   8.723 -0.0272 -0.3493  0.1121
 4860TIP3    H136139   5.050   3.596   8.727  0.2017 -0.7743  1.7032
 4860TIP3    H236140   5.193   3.566   8.684  0.0109 -0.9541  1.1862
 4861TIP3   OH236141   6.582   2.279   2.251 -0.2986 -0.0553 -0.2736
 4861TIP3    H136142   6.634   2.321   2.182 -0.0444  2.9308  1.5907
 4861TIP3    H236143   6.508   2.240   2.204  0.9362  0.0083 -2.4231
 4862TIP3   OH236144   2.934   0.726   1.962 -0.0089  0.5614 -0.4569
 4862TIP3    H136145   2.858   0.782   1.950  0.7452  1.7342  0.0835
 4862TIP3    H236146   3.010   0.785   1.955  0.7605 -0.0847  1.5576
 4863TIP3   OH236147   6.160   4.259   8.398 -0.3898  0.7092  0.2481
 4863TIP3    H136148   6.226   4.292   8.458 -1.0637 -0.9837  2.0404
 4863TIP3    H236149   6.140   4.333   8.340  4.2746  0.8170 -1.6178
 4864TIP3   OH236150   3.213   2.894   0.113  0.1174 -0.1604  0.2914
 4864TIP3    H136151   3.156   2.915   0.186  0.3034  0.1955  0.3349
 4864TIP3    H236152   3.217   2.798   0.113 -0.2595 -0.1773  0.4535
 4865TIP3   OH236153   4.653   1.588   2.214 -0.9060 -0.5250 -0.1909
 4865TIP3    H136154   4.616   1.554   2.295 -0.7983  0.2189  0.1847
 4865TIP3    H236155   4.629   1.524   2.147 -3.8428  0.4173 -0.1924
 4866TIP3   OH236156   5.536   6.206   1.108  0.5884 -0.4018  0.0116
 4866TIP3    H136157   5.517   6.147   1.181  1.5864  0.2390  0.8106
 4866TIP3    H236158   5.458   6.260   1.101 -1.1707 -2.9208 -1.9353
 4867TIP3   OH236159   2.216   0.180   8.585 -0.4865 -0.2568 -0.2053
 4867TIP3    H136160   2.154   0.190   8.657  0.2141 -0.0164  0.3662
 4867TIP3    H236161   2.263   0.099   8.605 -0.8279 -0.6084 -0.8027
 4868TIP3   OH236162   5.093   1.503   0.726  0.2360  0.0108 -0.0454
 4868TIP3    H136163   5.113   1.411   0.708 -0.6700 -0.2335  0.1709
 4868TIP3    H236164   5.171   1.536   0.771  0.6099 -0.6121 -0.2209
 4869TIP3   OH236165   1.947   1.157   8.242  0.0680  0.0094 -0.1086
 4869TIP3    H136166   1.968   1.250   8.233 -1.5700  0.5577  1.1816
 4869TIP3    H236167   1.996   1.128   8.318 -0.4167  0.1593  0.2648
 4870TIP3   OH236168   2.124   3.360   2.414 -0.8421 -0.0588 -0.0413
 4870TIP3    H136169   2.174   3.388   2.491  1.9128 -1.3045 -1.2406
 4870TIP3    H236170   2.115   3.265   2.425  0.3036 -0.3711 -1.6033
 4871TIP3   OH236171   0.517   1.255   2.082 -0.2260 -0.3492  0.7211
 4871TIP3    H136172   0.531   1.218   2.169  2.5045  1.7661  1.3409
 4871TIP3    H236173   0.484   1.343   2.099  1.4997  0.5416 -0.2357
 4872TIP3   OH236174   1.751   3.862   1.790 -0.1904 -0.0937 -0.2421
 4872TIP3    H136175   1.751   3.938   1.731 -0.7887 -0.4389 -0.7019
 4872TIP3    H236176   1.785   3.896   1.872 -1.7113  1.0187 -0.0299
 4873TIP3   OH236177   2.686   1.988   1.347  0.5150  0.0516  0.0690
 4873TIP3    H136178   2.665   1.910   1.296 -1.0908  1.5540 -1.7352
 4873TIP3    H236179   2.682   2.059   1.283  1.2256  1.6985  1.7872
 4874TIP3   OH236180   3.272   2.819   0.424  0.0453 -0.6666 -0.1824
 4874TIP3    H136181   3.246   2.899   0.379  0.5934 -0.3173  0.0976
 4874TIP3    H236182   3.195   2.763   0.421 -0.9967  0.6053  1.2655
 4875TIP3   OH236183   3.395   1.232   7.040 -0.1260 -0.2243 -0.2129
 4875TIP3    H136184   3.463   1.200   7.100  0.7718  0.1606 -0.9928
 4875TIP3    H236185   3.331   1.161   7.036  0.1631 -0.5442  0.6517
 4876TIP3   OH236186   3.747   3.199   2.451  0.4175  0.9318  0.2772
 4876TIP3    H136187   3.778   3.118   2.491 -0.0121 -0.3711 -1.8701
 4876TIP3    H236188   3.655   3.205   2.479  0.0023 -0.1792 -0.7666
 4877TIP3   OH236189   6.370   3.087   0.972  0.7029 -0.1868 -0.0687
 4877TIP3    H136190   6.455   3.105   1.012  0.4708 -1.6414  1.1917
 4877TIP3    H236191   6.333   3.017   1.026 -1.4912  0.7038 -0.3160
 4878TIP3   OH236192   5.530   4.330   0.300  0.8868 -0.0477 -0.0315
 4878TIP3    H136193   5.621   4.310   0.277  1.3948 -0.8735  2.3399
 4878TIP3    H236194   5.493   4.245   0.325 -0.6168  0.2591 -1.1343
 4879TIP3   OH236195   1.745   1.461   2.114 -0.4156  0.4517 -0.3629
 4879TIP3    H136196   1.685   1.473   2.040 -1.7818 -0.3378  0.5834
 4879TIP3    H236197   1.821   1.417   2.075 -0.4274  1.4574 -1.5816
 4880TIP3   OH236198   5.653   5.022   8.793 -0.5038 -0.4113 -0.1011
 4880TIP3    H136199   5.614   5.083   8.731 -1.7113  0.2823  1.2644
 4880TIP3    H236200   5.602   5.034   8.874  0.0414 -2.3115  0.5947
 4881TIP3   OH236201   5.692   4.961   0.857  0.5689 -0.0842  0.1251
 4881TIP3    H136202   5.699   4.947   0.952  0.5710  2.4121  0.5656
 4881TIP3    H236203   5.782   4.981   0.830  0.3751  0.3988 -0.1699
 4882TIP3   OH236204   3.372   4.340   8.426 -0.0189 -0.6164  0.5447
 4882TIP3    H136205   3.317   4.387   8.489 -1.9737 -0.8917 -0.8749
 4882TIP3    H236206   3.437   4.404   8.399  1.4570 -0.7377  3.4141
 4883TIP3   OH236207   2.346   0.142   0.104 -0.3832 -0.2457  0.2088
 4883TIP3    H136208   2.338   0.127   0.010 -2.2464 -2.3485  0.6068
 4883TIP3    H236209   2.268   0.193   0.127  0.0886  0.3023  0.6116
 4884TIP3   OH236210   0.156   2.327   7.078 -0.3077  0.3647  0.4565
 4884TIP3    H136211   0.176   2.413   7.041 -0.7987  0.7205  0.9877
 4884TIP3    H236212   0.110   2.280   7.009  1.2807 -0.0365 -0.3686
 4885TIP3   OH236213   0.864   0.910   7.599  0.1590 -0.3107 -0.1832
 4885TIP3    H136214   0.777   0.917   7.638  0.6104  0.5045  0.7308
 4885TIP3    H236215   0.922   0.895   7.674  1.1236  1.7833 -0.4517
 4886TIP3   OH236216   4.422   5.162   1.789 -0.1512  0.0327  0.0052
 4886TIP3    H136217   4.413   5.076   1.747 -1.0216 -0.4394  1.0906
 4886TIP3    H236218   4.377   5.152   1.873  1.0497  1.0992  0.8132
 4887TIP3   OH236219   3.601   0.615   1.183  0.6262  0.0968  0.6578
 4887TIP3    H136220   3.676   0.657   1.141 -0.7870  0.5025 -1.6129
 4887TIP3    H236221   3.627   0.523   1.191  1.1088  0.0763 -0.7974
 4888TIP3   OH236222   5.254   4.851   2.171 -0.2679  0.8276 -0.4207
 4888TIP3    H136223   5.184   4.852   2.106  0.3146 -1.8894 -1.2330
 4888TIP3    H236224   5.211   4.827   2.253 -0.4041 -0.6354 -0.8793
 4889TIP3   OH236225   3.802   0.995   7.473  0.1003  0.7741  0.7671
 4889TIP3    H136226   3.841   1.081   7.487  1.0405  0.4487  0.2375
 4889TIP3    H236227   3.800   0.984   7.378 -1.1838  0.7238  0.7823
 4890TIP3   OH236228   2.252   0.493   8.737  0.3739 -0.3847 -1.2068
 4890TIP3    H136229   2.185   0.550   8.698 -0.4329 -0.2937  0.2170
 4890TIP3    H236230   2.322   0.490   8.672  0.4472  2.2231 -1.3715
 4891TIP3   OH236231   0.622   6.252   0.343  0.3768  0.0196 -1.0028
 4891TIP3    H136232   0.705   6.300   0.345  0.0597  0.5677 -0.6918
 4891TIP3    H236233   0.625   6.195   0.420 -0.0333  0.9149 -0.2997
 4892TIP3   OH236234   1.631   1.319   2.389 -0.1597 -0.9258 -0.1038
 4892TIP3    H136235   1.674   1.358   2.312  0.4931 -0.4027  0.5083
 4892TIP3    H236236   1.542   1.354   2.388  0.3671  0.5084  0.3465
 4893TIP3   OH236237   0.803   0.746   6.947 -0.6991 -0.0285  0.1106
 4893TIP3    H136238   0.789   0.754   7.042  0.7224 -0.1054  0.3396
 4893TIP3    H236239   0.875   0.684   6.938  0.7862  1.7653 -0.9213
 4894TIP3   OH236240   5.292   4.327   2.386 -0.4550 -0.3920  0.0525
 4894TIP3    H136241   5.274   4.236   2.409 -0.3497 -0.3722  0.2075
 4894TIP3    H236242   5.276   4.377   2.466 -0.1862 -0.3136  0.0586
 4895TIP3   OH236243   1.530   3.201   1.102  0.0523 -0.3828 -0.3446
 4895TIP3    H136244   1.452   3.166   1.146 -1.0939  0.4986 -1.5980
 4895TIP3    H236245   1.576   3.251   1.170 -0.3532 -1.0758  0.4573
 4896TIP3   OH236246   4.205   3.389   0.038 -0.0960  0.0096 -0.4127
 4896TIP3    H136247   4.300   3.377   0.028  0.0736  0.5054  0.4817
 4896TIP3    H236248   4.176   3.422  -0.047  0.5373 -0.1172 -0.6881
 4897TIP3   OH236249   2.571   0.096   1.732  0.1367 -0.4306 -0.5044
 4897TIP3    H136250   2.601   0.014   1.771  1.1212 -0.5327 -1.4213
 4897TIP3    H236251   2.636   0.115   1.665  0.1273  1.3200 -0.0493
 4898TIP3   OH236252   3.897   0.073   3.186  0.5087 -0.0801 -0.1374
 4898TIP3    H136253   3.957   0.049   3.116  2.3096 -1.0428  1.6108
 4898TIP3    H236254   3.854   0.153   3.155  0.9550 -0.6820 -2.4423
 4899TIP3   OH236255   4.097   2.573   2.161  1.0610 -0.1410 -0.2121
 4899TIP3    H136256   4.058   2.506   2.218  2.1056  0.9614  1.9029
 4899TIP3    H236257   4.096   2.533   2.074 -0.3916 -2.0071  0.5725
 4900TIP3   OH236258   1.137   3.004   8.788  0.0133 -0.1397 -0.0462
 4900TIP3    H136259   1.062   3.011   8.847  0.1210  1.3664 -0.0459
 4900TIP3    H236260   1.110   3.053   8.710  0.5108 -0.6782 -0.5587
 4901TIP3   OH236261   0.843   2.504   2.400  0.0086  0.0978  0.1541
 4901TIP3    H136262   0.818   2.468   2.485 -1.4492 -0.1733 -0.3720
 4901TIP3    H236263   0.787   2.459   2.337  0.2813  1.1153 -0.8418
 4902TIP3   OH236264   1.699   5.054   8.577  0.0137 -0.1012  0.1740
 4902TIP3    H136265   1.762   5.043   8.506  1.8276 -1.8518  1.9325
 4902TIP3    H236266   1.711   4.977   8.632 -2.6949  0.2224  1.3839
 4903TIP3   OH236267   6.219   5.049   7.097 -0.3926 -0.9677 -0.2672
 4903TIP3    H136268   6.158   5.000   7.152 -1.5478  0.4484 -0.2094
 4903TIP3    H236269   6.164   5.085   7.027  0.7614 -1.3631 -1.4203
 4904TIP3   OH236270   1.804   3.859   1.240 -0.0428  0.1912 -0.2345
 4904TIP3    H136271   1.846   3.944   1.251 -0.4573  0.2185  1.2452
 4904TIP3    H236272   1.877   3.800   1.218  0.8866  0.1974  2.4843
 4905TIP3   OH236273   5.389   3.805   0.521 -0.4921 -0.7723 -0.0696
 4905TIP3    H136274   5.461   3.764   0.474 -0.5462 -0.9440 -0.0011
 4905TIP3    H236275   5.385   3.760   0.605 -1.2936 -1.4277 -0.4395
 4906TIP3   OH236276   6.069   3.294   0.003 -0.1271  0.1839 -0.0156
 4906TIP3    H136277   5.989   3.345   0.014 -0.8379 -0.4898 -1.7642
 4906TIP3    H236278   6.069   3.234   0.078  0.9974  2.9153  2.3878
 4907TIP3   OH236279   6.354   3.210   7.296  0.3274  0.1891  0.4848
 4907TIP3    H136280   6.369   3.289   7.348  0.3908  0.7466 -0.3619
 4907TIP3    H236281   6.382   3.234   7.208 -2.1541  0.1344 -0.4018
 4908TIP3   OH236282   0.092   2.864   1.812  0.3033 -0.4469 -0.1644
 4908TIP3    H136283   0.082   2.896   1.901  0.0533  1.1909 -0.7519
 4908TIP3    H236284   0.009   2.819   1.793 -1.3326  2.5966 -0.8641
 4909TIP3   OH236285   2.487   0.657   7.204  0.2732 -0.0397  0.4656
 4909TIP3    H136286   2.575   0.661   7.166  1.8806 -0.0273  3.8418
 4909TIP3    H236287   2.467   0.747   7.228  0.2235 -0.3101  1.4777
 4910TIP3   OH236288   1.608   1.255   0.645  0.6196 -0.0010  0.1909
 4910TIP3    H136289   1.533   1.291   0.598  1.3958 -0.2964 -1.3463
 4910TIP3    H236290   1.679   1.317   0.629  1.1569 -0.6193  0.1171
 4911TIP3   OH236291   5.492   2.531   7.706  0.2380  0.6255  0.1793
 4911TIP3    H136292   5.580   2.553   7.739  0.2454  1.1666 -0.1903
 4911TIP3    H236293   5.444   2.614   7.709  0.5144  0.9134 -2.0153
 4912TIP3   OH236294   2.547   4.037   7.456  0.3313 -0.2033 -0.2747
 4912TIP3    H136295   2.464   4.070   7.421 -0.9607 -2.2900  0.6250
 4912TIP3    H236296   2.563   3.957   7.406  0.6690 -0.9514  0.9933
 4913TIP3   OH236297   5.661   5.315   7.807 -0.5121 -0.7687 -0.5406
 4913TIP3    H136298   5.670   5.238   7.752  0.0779 -0.8255 -0.3680
 4913TIP3    H236299   5.570   5.312   7.837 -1.8871  0.9106 -3.9309
 4914TIP3   OH236300   1.741   6.117   2.282 -0.0583  0.1620 -0.2427
 4914TIP3    H136301   1.798   6.041   2.287  0.2365  0.4203  0.3985
 4914TIP3    H236302   1.663   6.092   2.332 -0.5525 -0.2188 -1.1811
 4915TIP3   OH236303   1.042   5.616   0.404 -0.1523  0.8591 -0.1451
 4915TIP3    H136304   0.964   5.660   0.438  0.0191  1.6792 -0.7752
 4915TIP3    H236305   1.015   5.581   0.319 -1.1975 -2.9850  1.5524
 4916TIP3   OH236306   5.808   0.261   8.842 -0.1866  0.4172 -0.1148
 4916TIP3    H136307   5.848   0.177   8.823 -0.3550  0.2521  0.2459
 4916TIP3    H236308   5.730   0.239   8.894 -0.1403  0.8053  0.1198
 4917TIP3   OH236309   2.089   6.714   7.312  0.1456  0.5754  0.2824
 4917TIP3    H136310   2.145   6.645   7.276  1.7267  1.9694 -0.0176
 4917TIP3    H236311   2.001   6.688   7.287  0.3079 -2.7862  2.5150
 4918TIP3   OH236312   1.697   0.570   1.839  0.0121  0.0636 -0.5062
 4918TIP3    H136313   1.663   0.599   1.924  0.5285  0.2870 -0.3687
 4918TIP3    H236314   1.647   0.492   1.818 -0.5102  0.3257 -0.2606
 4919TIP3   OH236315   3.866   5.032   1.839  0.4279  0.6584 -0.2805
 4919TIP3    H136316   3.904   5.107   1.792  0.6803  2.0433  2.0215
 4919TIP3    H236317   3.842   5.067   1.924 -0.7645 -1.5886  0.3628
 4920TIP3   OH236318   0.518   2.601   1.247 -0.4228  0.4867  0.1578
 4920TIP3    H136319   0.459   2.587   1.321  0.3446  0.3934  0.7656
 4920TIP3    H236320   0.519   2.517   1.200  1.2988 -0.4163  1.6909
 4921TIP3   OH236321   5.931   4.981   0.746  0.1127 -0.4444  0.2169
 4921TIP3    H136322   5.966   4.985   0.657 -0.7297  1.0581 -0.0755
 4921TIP3    H236323   5.984   5.044   0.796  0.4275 -1.1065  0.7318
 4922TIP3   OH236324   3.356   3.881   0.489 -0.0131  0.3690  0.7847
 4922TIP3    H136325   3.318   3.882   0.401  0.7231  0.4650  0.4639
 4922TIP3    H236326   3.327   3.798   0.527  0.3994 -0.0891  0.1204
 4923TIP3   OH236327   1.119   6.363   8.604 -0.1294  0.1545  0.1789
 4923TIP3    H136328   1.061   6.427   8.645 -1.9225 -1.5965  0.5350
 4923TIP3    H236329   1.168   6.324   8.676 -1.0555 -0.7616  0.3468
 4924TIP3   OH236330   4.773   4.998   8.791  0.3354 -0.3069  0.1885
 4924TIP3    H136331   4.684   4.974   8.816  0.8218 -0.8364  1.5077
 4924TIP3    H236332   4.815   4.916   8.768  0.2077  0.0560 -1.4805
 4925TIP3   OH236333   5.515   4.782   1.051  0.2354 -0.3268 -0.5220
 4925TIP3    H136334   5.442   4.720   1.056  0.3433 -0.7081 -2.5819
 4925TIP3    H236335   5.593   4.726   1.050  0.4945  0.0076  0.3282
 4926TIP3   OH236336   0.080   1.602   0.084  0.2588  0.2171  0.1459
 4926TIP3    H136337   0.129   1.670   0.129 -1.7610  1.4940  0.5763
 4926TIP3    H236338   0.080   1.628  -0.008 -1.2569  1.3818  0.4280
 4927TIP3   OH236339   4.885   4.399   7.284  0.1914 -0.4024 -0.8445
 4927TIP3    H136340   4.922   4.417   7.198 -1.7752 -2.3067 -2.1975
 4927TIP3    H236341   4.907   4.307   7.301 -0.0685 -0.2591  0.3256
 4928TIP3   OH236342   1.858   2.061   0.933  0.4143 -0.2647  0.0311
 4928TIP3    H136343   1.929   2.104   0.981  0.5447  0.4294 -0.7633
 4928TIP3    H236344   1.824   1.996   0.994 -0.4830  1.6250  1.6481
 4929TIP3   OH236345   0.283   1.855   8.444 -0.0622 -0.0865  0.5161
 4929TIP3    H136346   0.322   1.792   8.384  0.0298  0.1221  0.3556
 4929TIP3    H236347   0.270   1.806   8.525 -2.9415 -1.2942 -0.5069
 4930TIP3   OH236348   5.646   5.635   1.326  0.2974 -0.2850 -0.3402
 4930TIP3    H136349   5.649   5.542   1.302  0.2076 -0.4245  0.1653
 4930TIP3    H236350   5.718   5.646   1.388  0.2832 -0.0231 -0.3690
 4931TIP3   OH236351   4.487   5.287   0.065 -0.2153  0.3602  0.5118
 4931TIP3    H136352   4.569   5.325   0.034 -0.3310  0.1189 -0.1004
 4931TIP3    H236353   4.421   5.353   0.043 -0.6564 -0.8071 -2.0214
 4932TIP3   OH236354   3.173   3.847   7.765 -0.3607  0.0741  0.3108
 4932TIP3    H136355   3.164   3.788   7.690 -0.6616  1.0368 -0.4260
 4932TIP3    H236356   3.155   3.934   7.730 -2.7636  0.3326  1.9243
 4933TIP3   OH236357   2.646   6.177   1.805  0.1040  0.4404  0.5233
 4933TIP3    H136358   2.573   6.119   1.827 -0.4663  0.9351 -0.0292
 4933TIP3    H236359   2.713   6.158   1.871 -0.1447 -0.7045  0.4682
 4934TIP3   OH236360   6.106   4.219   0.191  0.1750  0.6216 -0.3771
 4934TIP3    H136361   6.063   4.303   0.177 -1.7429 -0.4382 -1.3511
 4934TIP3    H236362   6.146   4.199   0.106 -0.8436 -0.1708 -0.7038
 4935TIP3   OH236363   2.009   1.153   0.469  0.3186 -0.2426  0.1043
 4935TIP3    H136364   1.939   1.117   0.523 -1.0315 -1.6252 -2.3634
 4935TIP3    H236365   1.976   1.238   0.440 -0.1644 -0.6757 -0.6541
 4936TIP3   OH236366   5.206   6.108   0.820 -0.0556  0.2177  0.0454
 4936TIP3    H136367   5.271   6.131   0.754  1.2090  0.9113  1.4531
 4936TIP3    H236368   5.148   6.046   0.776 -0.2959  1.9277 -2.2102
 4937TIP3   OH236369   6.183   0.070   1.724 -0.5653 -0.2432  0.0516
 4937TIP3    H136370   6.136   0.015   1.662 -0.2501 -0.8229  0.3157
 4937TIP3    H236371   6.177   0.023   1.807 -1.0339  0.5514  0.4829
 4938TIP3   OH236372   2.079   2.446   6.661  0.0876 -0.4297  0.7647
 4938TIP3    H136373   2.099   2.503   6.586 -0.6367 -1.5049 -0.2732
 4938TIP3    H236374   2.075   2.358   6.624  0.1712 -1.0423  2.1663
 4939TIP3   OH236375   5.386   5.377   7.908 -0.2632  0.8093 -0.7611
 4939TIP3    H136376   5.331   5.352   7.981 -0.0555  0.5536 -0.6920
 4939TIP3    H236377   5.390   5.299   7.852  1.2982  0.2909  0.0131
 4940TIP3   OH236378   5.350   3.184   8.142 -0.1797  0.1006 -0.0891
 4940TIP3    H136379   5.353   3.244   8.068 -1.7975  1.5478  0.9311
 4940TIP3    H236380   5.271   3.132   8.128 -0.5163  0.4056  0.6049
 4941TIP3   OH236381   1.330   3.007   7.016  0.6439 -0.3731 -0.1021
 4941TIP3    H136382   1.358   3.032   6.927 -2.1028  2.0712 -0.4286
 4941TIP3    H236383   1.325   3.090   7.063 -0.2905 -1.3655  1.6382
 4942TIP3   OH236384   0.494   1.351   1.384 -0.0901  0.7904 -0.5101
 4942TIP3    H136385   0.545   1.409   1.440 -0.9340 -0.2033  1.3908
 4942TIP3    H236386   0.419   1.326   1.438 -0.2586 -1.2692 -1.6102
 4943TIP3   OH236387   6.095   1.371   1.574 -0.3565  0.1218  0.1782
 4943TIP3    H136388   6.054   1.391   1.489  1.7948  2.5838 -0.4260
 4943TIP3    H236389   6.189   1.385   1.559  0.1578  0.0079  2.8158
 4944TIP3   OH236390   5.765   2.737   0.069 -0.1027  0.2714 -0.8226
 4944TIP3    H136391   5.749   2.824   0.105 -0.8996  0.3902 -1.4400
 4944TIP3    H236392   5.728   2.740  -0.019 -0.5044 -0.8044 -0.7075
 4945TIP3   OH236393   3.316   2.613   7.237 -0.1797  0.6009 -0.1493
 4945TIP3    H136394   3.320   2.706   7.214  1.1378  0.5918 -0.0379
 4945TIP3    H236395   3.407   2.586   7.243 -0.4079  0.1046  3.1031
 4946TIP3   OH236396   6.537   3.891   8.308 -0.2152  0.1066  0.1714
 4946TIP3    H136397   6.529   3.931   8.395  1.3216  0.5603  0.1219
 4946TIP3    H236398   6.574   3.960   8.253 -0.5368 -0.3944 -0.6927
 4947TIP3   OH236399   3.756   3.665   8.212  0.1164  0.1746  0.1592
 4947TIP3    H136400   3.850   3.672   8.194 -0.0666 -2.0269 -2.1641
 4947TIP3    H236401   3.722   3.752   8.192  1.2594  0.1642 -2.1766
 4948TIP3   OH236402   2.651   1.906   7.886  0.4410 -0.0377 -0.0461
 4948TIP3    H136403   2.610   1.992   7.878 -0.3736 -0.4208 -0.0516
 4948TIP3    H236404   2.744   1.922   7.870  0.1671  0.7004 -0.9769
 4949TIP3   OH236405   5.702   3.528   1.725 -0.7098  0.2775  0.0662
 4949TIP3    H136406   5.622   3.492   1.688 -0.0216 -0.8785 -0.3442
 4949TIP3    H236407   5.753   3.557   1.649  0.9103 -2.5206 -0.0494
 4950TIP3   OH236408   1.962   0.141   0.887 -0.3515  0.0704  0.0192
 4950TIP3    H136409   2.010   0.223   0.881 -3.2527  1.9912  1.1006
 4950TIP3    H236410   1.975   0.111   0.977  0.4524 -0.5689 -0.2881
 4951TIP3   OH236411   6.458   4.528   0.166  0.2558  0.3339 -0.6484
 4951TIP3    H136412   6.391   4.589   0.198  0.2292 -0.0567  0.0557
 4951TIP3    H236413   6.467   4.463   0.236  0.1008 -0.6200 -1.4756
 4952TIP3   OH236414   2.781   4.819   7.722  0.0354  0.1950 -0.4809
 4952TIP3    H136415   2.749   4.802   7.811  0.6947 -1.3742 -0.5046
 4952TIP3    H236416   2.786   4.914   7.716 -0.5643  0.3437  0.9666
 4953TIP3   OH236417   2.912   2.182   8.621 -0.3360  0.0117  0.4330
 4953TIP3    H136418   2.980   2.208   8.683  0.4575  0.1608 -0.4814
 4953TIP3    H236419   2.835   2.233   8.647  0.1125  0.3962  1.0230
 4954TIP3   OH236420   2.691   4.464   0.811 -0.0736 -0.4619  0.3560
 4954TIP3    H136421   2.705   4.450   0.905 -0.3129  1.2633  0.6785
 4954TIP3    H236422   2.633   4.540   0.807  1.2858  0.5491 -1.2130
 4955TIP3   OH236423   0.269   3.980   7.185 -0.2304 -0.0442  0.6354
 4955TIP3    H136424   0.179   4.009   7.172 -0.0269  1.4019  2.1377
 4955TIP3    H236425   0.265   3.885   7.184 -1.3133 -0.0600 -2.1346
 4956TIP3   OH236426   2.553   3.741   0.893 -0.2028 -0.3481 -0.0611
 4956TIP3    H136427   2.627   3.764   0.836 -1.2768 -0.9926 -1.7799
 4956TIP3    H236428   2.522   3.826   0.926  0.6817  0.0083 -0.1168
 4957TIP3   OH236429   0.355   6.315   0.294 -0.1369  1.0398 -0.1590
 4957TIP3    H136430   0.343   6.249   0.226 -0.9638 -0.0696  1.0270
 4957TIP3    H236431   0.449   6.314   0.312 -0.0241  0.8069 -0.7542
 4958TIP3   OH236432   1.736   4.945   0.102 -0.0590  0.7114 -0.2894
 4958TIP3    H136433   1.707   4.896   0.180  0.3742 -0.5686 -0.9129
 4958TIP3    H236434   1.774   4.879   0.045  2.3343  2.0404 -0.3597
 4959TIP3   OH236435   1.701   4.164   7.381  0.3139 -0.1383 -0.0331
 4959TIP3    H136436   1.676   4.192   7.293  0.3789  1.9592  0.5715
 4959TIP3    H236437   1.651   4.083   7.395 -1.6221  0.8053 -1.0812
 4960TIP3   OH236438   0.176   6.748   7.354 -0.5594 -0.0730  0.2108
 4960TIP3    H136439   0.119   6.697   7.297  0.6009 -0.2147 -0.8725
 4960TIP3    H236440   0.134   6.834   7.359 -1.0030 -0.2527 -0.3466
 4961TIP3   OH236441   0.148   4.800   0.678 -0.0024  0.1880  0.2272
 4961TIP3    H136442   0.206   4.780   0.605 -4.0092 -0.7617 -3.0637
 4961TIP3    H236443   0.136   4.715   0.722 -1.0830 -0.2658 -0.9060
 4962TIP3   OH236444   6.621   3.999   7.829  0.2805 -0.1380 -0.6100
 4962TIP3    H136445   6.545   4.020   7.774  0.9759  3.1087 -0.5134
 4962TIP3    H236446   6.583   3.974   7.914 -0.6996 -0.7369 -1.2092
 4963TIP3   OH236447   6.531   4.877   8.246 -0.0982  0.0568 -0.1654
 4963TIP3    H136448   6.500   4.947   8.188 -0.5983  0.0941  0.1433
 4963TIP3    H236449   6.613   4.848   8.206  0.1241  0.8331 -0.2878
 4964TIP3   OH236450   5.055   0.914   2.092 -0.3590 -0.0154  0.5752
 4964TIP3    H136451   5.095   0.937   2.008  1.3545 -2.6026  0.5565
 4964TIP3    H236452   4.971   0.875   2.068  1.0964 -2.8952 -0.2628
 4965TIP3   OH236453   0.574   5.070   1.146 -0.8020 -0.3183 -0.0570
 4965TIP3    H136454   0.537   5.118   1.072  0.3392 -1.4191 -1.3793
 4965TIP3    H236455   0.643   5.016   1.108 -1.0460 -1.8920  1.5971
 4966TIP3   OH236456   3.716   2.973   6.983 -0.0852 -0.0381  0.0049
 4966TIP3    H136457   3.682   3.060   6.963  0.1096 -0.0474 -0.3720
 4966TIP3    H236458   3.807   2.974   6.953  0.7665  0.4827  2.3573
 4967TIP3   OH236459   3.759   3.783   0.875 -0.4635 -0.5749  0.3052
 4967TIP3    H136460   3.676   3.802   0.831 -1.0053 -2.0377  0.6427
 4967TIP3    H236461   3.823   3.836   0.828 -1.2479 -0.9841 -1.3133
 4968TIP3   OH236462   0.013   0.433   0.295  0.3799  0.4086 -0.2479
 4968TIP3    H136463  -0.013   0.384   0.373  0.6332  0.6068 -0.0381
 4968TIP3    H236464   0.046   0.516   0.329  3.2881 -0.6049 -0.3471
 4969TIP3   OH236465   4.104   5.190   0.218 -0.4831 -0.2173 -0.3398
 4969TIP3    H136466   4.046   5.182   0.142  1.5519  0.1395 -2.0387
 4969TIP3    H236467   4.105   5.103   0.257 -2.6271 -0.0678  0.1622
 4970TIP3   OH236468   6.390   2.095   1.954 -0.2289  0.5618  0.2386
 4970TIP3    H136469   6.344   2.117   2.035 -0.4506  0.9723  0.0060
 4970TIP3    H236470   6.448   2.170   1.938  0.3972  0.1234  0.4375
 4971TIP3   OH236471   3.555   0.088   7.175  0.0784  0.3371  0.2282
 4971TIP3    H136472   3.500   0.013   7.151  0.1571  0.1513  0.6327
 4971TIP3    H236473   3.624   0.052   7.229  1.5941  0.2947 -1.6243
 4972TIP3   OH236474   0.940   2.693   1.959  0.3175  0.2198 -0.0125
 4972TIP3    H136475   0.852   2.668   1.986  0.3065  0.4470  0.1657
 4972TIP3    H236476   0.997   2.657   2.027  0.3799 -0.0837 -0.2227
 4973TIP3   OH236477   0.393   1.884   7.577 -0.1054 -0.3254  0.0605
 4973TIP3    H136478   0.336   1.855   7.649  1.3606  0.3349  1.5505
 4973TIP3    H236479   0.482   1.862   7.606  0.6201  0.9095 -1.0823
 4974TIP3   OH236480   1.309   2.804   2.745  0.4084  0.3070 -0.0159
 4974TIP3    H136481   1.250   2.865   2.788  0.6911  0.5809 -0.0089
 4974TIP3    H236482   1.304   2.724   2.797 -0.1366  0.2482 -0.1560
 4975TIP3   OH236483   2.726   2.300   8.177  0.4689 -0.5310 -0.0380
 4975TIP3    H136484   2.723   2.319   8.271 -1.7415 -0.8521  0.0288
 4975TIP3    H236485   2.644   2.337   8.143  2.5639  2.3950 -2.4737
 4976TIP3   OH236486   6.559   5.010   7.265  0.3795 -0.5717  0.1224
 4976TIP3    H136487   6.641   4.970   7.234  0.8693 -0.8285  1.6857
 4976TIP3    H236488   6.502   4.936   7.286  0.7206 -0.4476  1.5422
 4977TIP3   OH236489   2.038   2.356   8.495 -0.6222 -0.0596  0.4634
 4977TIP3    H136490   2.063   2.444   8.523  0.6071 -1.0372  2.6575
 4977TIP3    H236491   1.955   2.368   8.450  0.0291  2.3455 -0.2530
 4978TIP3   OH236492   2.873   0.282   8.213  0.3305  0.0374  0.8475
 4978TIP3    H136493   2.875   0.378   8.213 -0.8334  0.1068  2.4822
 4978TIP3    H236494   2.841   0.259   8.126 -0.1864  1.1741  0.7152
 4979TIP3   OH236495   1.200   3.774   2.590  0.0432 -0.0393  0.0009
 4979TIP3    H136496   1.135   3.720   2.634  0.9226  0.0423  1.4814
 4979TIP3    H236497   1.180   3.863   2.619  1.5556 -0.1504  1.5361
 4980TIP3   OH236498   2.502   4.461   0.431  0.0488 -0.3776  0.0712
 4980TIP3    H136499   2.523   4.554   0.439 -0.1393 -0.2406 -0.9402
 4980TIP3    H236500   2.466   4.452   0.343  0.9990 -1.5921 -0.2188
 4981TIP3   OH236501   6.758   1.244   2.182 -0.2954 -0.2247 -0.0552
 4981TIP3    H136502   6.783   1.265   2.272  1.0558 -1.4275 -0.1115
 4981TIP3    H236503   6.663   1.253   2.181 -0.4761 -1.3658  1.8281
 4982TIP3   OH236504   4.935   5.100   1.586  0.2200 -0.2739 -0.4788
 4982TIP3    H136505   4.952   5.009   1.562  0.2750 -0.9785  1.9659
 4982TIP3    H236506   4.986   5.114   1.666 -2.4379  0.7711  1.2016
 4983TIP3   OH236507   2.384   0.656   8.382 -0.2991  0.1152  0.4130
 4983TIP3    H136508   2.472   0.686   8.402  0.8127 -0.4617 -2.9150
 4983TIP3    H236509   2.384   0.562   8.403 -0.0567  0.0762  0.2353
 4984TIP3   OH236510   1.281   2.390   7.126  0.3557  0.0549 -0.5216
 4984TIP3    H136511   1.339   2.464   7.105 -1.3080  0.7143 -3.3366
 4984TIP3    H236512   1.293   2.329   7.053 -1.6241 -0.3113 -0.5992
 4985TIP3   OH236513   4.397   3.737   2.734  0.2069 -0.0640  0.2208
 4985TIP3    H136514   4.364   3.654   2.701  0.6166  0.4462 -1.5818
 4985TIP3    H236515   4.406   3.792   2.656  3.0639  0.5849  0.9146
 4986TIP3   OH236516   1.015   0.583   1.748  0.2174  0.7085  0.1909
 4986TIP3    H136517   1.094   0.633   1.734  0.4756  0.5300  0.9468
 4986TIP3    H236518   1.042   0.510   1.804 -0.2182 -0.0777 -0.5922
 4987TIP3   OH236519   0.118   1.585   0.664  0.3397 -0.1127 -0.3687
 4987TIP3    H136520   0.181   1.571   0.734  0.3399  0.3595 -0.2667
 4987TIP3    H236521   0.048   1.522   0.682 -0.3210  0.9232  0.8663
 4988TIP3   OH236522   1.001   0.449   8.071 -0.3628 -0.4845 -0.2422
 4988TIP3    H136523   1.088   0.462   8.108 -0.1681  1.5901 -1.2681
 4988TIP3    H236524   0.941   0.485   8.136 -0.2744  0.0732 -0.4636
 4989TIP3   OH236525   1.755   4.369   0.378  0.5437  0.1529  0.5941
 4989TIP3    H136526   1.691   4.435   0.352 -1.5375 -2.9119 -3.0815
 4989TIP3    H236527   1.707   4.311   0.438 -0.0252 -1.6537 -1.4796
 4990TIP3   OH236528   2.500   1.798   7.674 -0.4117  1.0755 -0.3795
 4990TIP3    H136529   2.537   1.829   7.592  2.7238  0.3657  0.6538
 4990TIP3    H236530   2.566   1.818   7.740 -1.7591 -0.5303  1.6030
 4991TIP3   OH236531   5.658   2.354   7.919 -0.4356 -0.3470  0.0212
 4991TIP3    H136532   5.733   2.314   7.874  0.6327  3.1821 -1.6935
 4991TIP3    H236533   5.582   2.310   7.882  0.6137 -3.4599  1.1895
 4992TIP3   OH236534   5.691   5.382   0.478 -0.3880 -0.0025 -0.0579
 4992TIP3    H136535   5.641   5.334   0.412 -1.6523 -0.6758  1.3078
 4992TIP3    H236536   5.668   5.474   0.464 -1.6726 -0.2557  0.2140
 4993TIP3   OH236537   1.076   5.248   1.704 -0.0108  0.0643 -0.4414
 4993TIP3    H136538   1.087   5.337   1.738 -0.1517  0.0390 -0.3292
 4993TIP3    H236539   1.154   5.201   1.735 -0.6040 -0.2108  0.6721
 4994TIP3   OH236540   4.083   1.543   0.239  0.0165  0.4278  0.2420
 4994TIP3    H136541   4.145   1.612   0.215  0.3391  0.6957  1.7310
 4994TIP3    H236542   4.029   1.583   0.307 -0.7287 -0.3462  0.1142
 4995TIP3   OH236543   3.473   3.148   2.508  0.3182 -0.2078 -0.1488
 4995TIP3    H136544   3.483   3.097   2.589  1.7835  0.1729 -0.0538
 4995TIP3    H236545   3.427   3.228   2.535 -1.3539 -1.1332 -0.1674
 4996TIP3   OH236546   1.304   1.226   2.291 -0.0011 -0.0122  0.2087
 4996TIP3    H136547   1.321   1.317   2.315  1.9838  0.0192 -1.1477
 4996TIP3    H236548   1.316   1.178   2.373 -0.0004  0.8161  0.7087
 4997TIP3   OH236549   6.337   5.617   2.296  0.1574  0.3036 -0.2010
 4997TIP3    H136550   6.351   5.642   2.387  0.4873  0.5696 -0.3231
 4997TIP3    H236551   6.294   5.693   2.257 -0.1160  0.1325 -0.2326
 4998TIP3   OH236552   4.867   4.343   1.521  0.1645  0.3154 -0.1298
 4998TIP3    H136553   4.900   4.272   1.576  1.4060  0.7515 -0.2820
 4998TIP3    H236554   4.815   4.397   1.580 -0.3231 -0.4045  0.1149
 4999TIP3   OH236555   6.539   2.452   7.527 -0.3210  0.3732 -0.3724
 4999TIP3    H136556   6.507   2.512   7.460  0.3106 -0.2217 -1.2442
 4999TIP3    H236557   6.489   2.371   7.512 -0.2146  0.2553 -0.0885
 5000TIP3   OH236558   3.126   3.371   8.148 -0.2795 -0.1640  0.2461
 5000TIP3    H136559   3.169   3.308   8.091  0.8542  0.8412 -0.0679
 5000TIP3    H236560   3.037   3.377   8.114 -0.2232 -1.1280 -0.0980
 5001TIP3   OH236561   0.235   2.323   8.266 -0.3807  0.6228 -0.0015
 5001TIP3    H136562   0.155   2.371   8.285 -1.1732  0.2955 -2.2643
 5001TIP3    H236563   0.295   2.389   8.230  0.2217  0.7630  1.1963
 5002TIP3   OH236564   1.394   1.597   0.507  0.4705  0.2312 -0.6846
 5002TIP3    H136565   1.468   1.658   0.509  0.5694  0.0962  0.0915
 5002TIP3    H236566   1.369   1.587   0.599 -0.0298 -0.3095 -0.8758
 5003TIP3   OH236567   6.521   3.420   1.198 -0.1611  0.2150 -0.3985
 5003TIP3    H136568   6.524   3.514   1.215 -1.5289  0.4942 -1.5156
 5003TIP3    H236569   6.494   3.381   1.281 -1.3088  0.9885 -0.3943
 5004TIP3   OH236570   5.591   3.248   2.187 -0.0165  0.3838  0.1750
 5004TIP3    H136571   5.640   3.261   2.105  1.6535 -1.4077  0.8231
 5004TIP3    H236572   5.507   3.212   2.159  1.0636 -1.5723 -0.7286
 5005TIP3   OH236573   6.789   2.425   8.333  0.3477 -0.1673 -0.0464
 5005TIP3    H136574   6.715   2.373   8.365 -0.0621  0.0120 -0.7013
 5005TIP3    H236575   6.749   2.499   8.289  0.9269  0.1341 -0.0652
 5006TIP3   OH236576   1.056   5.680   7.840 -0.0008  0.3548 -0.7233
 5006TIP3    H136577   1.040   5.753   7.899  0.9644  0.2826 -0.3667
 5006TIP3    H236578   1.151   5.675   7.831 -0.1215  0.8576 -2.9155
 5007TIP3   OH236579   0.388   2.632   0.090  0.3675  0.4786 -0.1417
 5007TIP3    H136580   0.380   2.652   0.184  1.7609 -0.3054  0.1695
 5007TIP3    H236581   0.385   2.718   0.047 -1.4564  0.7826  0.4876
 5008TIP3   OH236582   3.332   2.698   3.041 -0.6011  0.3138 -0.2983
 5008TIP3    H136583   3.427   2.710   3.049 -0.7696  1.2569  0.5246
 5008TIP3    H236584   3.313   2.619   3.091 -0.0672 -0.8009 -1.7794
 5009TIP3   OH236585   6.172   4.544   0.812  0.1591  0.1396  0.1893
 5009TIP3    H136586   6.183   4.466   0.758  1.7890  1.3105 -1.2779
 5009TIP3    H236587   6.077   4.560   0.814  0.0400  0.0647 -2.3858
 5010TIP3   OH236588   1.700   5.615   2.417 -0.1877  0.4996  0.4832
 5010TIP3    H136589   1.762   5.621   2.490 -0.4102 -0.1419  0.7241
 5010TIP3    H236590   1.756   5.623   2.339 -0.0148  1.7763  0.7137
 5011TIP3   OH236591   2.859   6.310   7.563 -0.2382 -0.2681 -0.0914
 5011TIP3    H136592   2.814   6.393   7.545  1.5018  0.6981 -0.1444
 5011TIP3    H236593   2.913   6.328   7.640 -0.4260 -1.6138  0.3876
 5012TIP3   OH236594   5.563   4.462   2.476  0.6874  0.1638  0.5150
 5012TIP3    H136595   5.621   4.508   2.415 -0.9992  1.1229 -0.4332
 5012TIP3    H236596   5.546   4.378   2.433  1.0754  0.0285  0.6218
 5013TIP3   OH236597   2.649   4.592   1.814 -0.0091 -0.1878  0.1593
 5013TIP3    H136598   2.688   4.537   1.882 -0.2650 -0.9571 -0.2959
 5013TIP3    H236599   2.584   4.645   1.860 -0.7066 -1.2253  0.4114
 5014TIP3   OH236600   1.294   5.652   7.740  0.4162  0.0264  0.2342
 5014TIP3    H136601   1.248   5.604   7.671 -2.8092  2.0535  0.7320
 5014TIP3    H236602   1.337   5.724   7.694  1.2378 -0.6030  0.0007
 5015TIP3   OH236603   5.421   3.552   7.880 -0.0446  0.4035 -0.1972
 5015TIP3    H136604   5.397   3.462   7.858 -2.8975  1.3277 -1.3968
 5015TIP3    H236605   5.481   3.579   7.810 -1.7110  0.3699 -1.7177
 5016TIP3   OH236606   1.842   5.229   7.965 -0.0422 -0.2399 -0.9008
 5016TIP3    H136607   1.899   5.229   7.887  0.1343 -1.0978 -0.7785
 5016TIP3    H236608   1.814   5.138   7.974  1.1621 -0.4762  0.9297
 5017TIP3   OH236609   5.954   6.059   0.517  0.2837 -0.1330  0.9664
 5017TIP3    H136610   5.966   5.991   0.584  1.4056 -0.4547  0.4625
 5017TIP3    H236611   5.860   6.056   0.497  0.2635 -1.3540  1.1564
 5018TIP3   OH236612   6.435   0.118   0.977  1.1408  0.3018 -0.6672
 5018TIP3    H136613   6.456   0.026   0.962  0.3132  0.0252 -0.1765
 5018TIP3    H236614   6.494   0.145   1.047  1.1516  0.0599 -0.5844
 5019TIP3   OH236615   3.683   1.430   2.181 -0.0567 -0.0468  0.2362
 5019TIP3    H136616   3.640   1.417   2.265 -1.0497  0.6431 -0.1505
 5019TIP3    H236617   3.613   1.422   2.116  0.9372 -2.1423 -0.6716
 5020TIP3   OH236618   2.473   2.525   8.513 -0.0150  0.0651 -0.3238
 5020TIP3    H136619   2.416   2.450   8.532 -1.0521  1.0013  0.3971
 5020TIP3    H236620   2.523   2.498   8.436 -0.5780 -1.2496 -0.2586
 5021TIP3   OH236621   0.191   3.734   0.348 -0.4442  0.0882 -0.0466
 5021TIP3    H136622   0.263   3.780   0.393  0.8179 -1.2048 -0.6696
 5021TIP3    H236623   0.113   3.760   0.397  0.1334  3.0932 -0.5368
 5022TIP3   OH236624   4.281   4.849   0.725  0.0666  0.1197  0.5064
 5022TIP3    H136625   4.245   4.854   0.813 -0.2948  0.5160  0.3383
 5022TIP3    H236626   4.367   4.890   0.732  1.0226 -1.8581  1.1658
 5023TIP3   OH236627   4.105   0.578   0.077 -0.0596  0.1633 -0.2989
 5023TIP3    H136628   4.170   0.515   0.108  0.0210  0.7869  0.8463
 5023TIP3    H236629   4.129   0.660   0.120 -2.2595  0.1525  1.0902
 5024TIP3   OH236630   0.928   6.259   8.266  0.4909  0.5245  0.3212
 5024TIP3    H136631   0.954   6.244   8.357  0.4254  0.9756  0.4174
 5024TIP3    H236632   0.982   6.332   8.238  0.7129  0.2042 -0.0975
 5025TIP3   OH236633   3.652   4.908   1.772  0.1576 -0.2424  0.0263
 5025TIP3    H136634   3.729   4.962   1.789 -1.1071  1.4231  0.7197
 5025TIP3    H236635   3.579   4.969   1.773 -1.4518 -2.0609  1.6027
 5026TIP3   OH236636   1.682   4.053   8.399  0.4019  0.4643  0.0271
 5026TIP3    H136637   1.604   3.999   8.385 -0.4716  1.6257  0.2002
 5026TIP3    H236638   1.649   4.143   8.398  1.7761  0.9939 -0.0534
 5027TIP3   OH236639   1.785   3.875   7.637  0.5456  0.4453  0.0624
 5027TIP3    H136640   1.715   3.881   7.572 -1.0040 -1.1972  1.4583
 5027TIP3    H236641   1.850   3.817   7.597 -0.0134  0.0845 -0.3333
 5028TIP3   OH236642   6.784   1.525   1.855  0.3850 -0.3189  0.3019
 5028TIP3    H136643   6.751   1.503   1.942  1.4911 -1.3842  0.4881
 5028TIP3    H236644   6.708   1.514   1.797  0.0013 -1.0669  0.9275
 5029TIP3   OH236645   0.275   5.577   8.088 -0.8283  0.7067  0.4658
 5029TIP3    H136646   0.179   5.579   8.096 -0.9080 -1.1015  0.4490
 5029TIP3    H236647   0.301   5.502   8.142  0.4095  0.1628 -0.8428
 5030TIP3   OH236648   4.797   6.198   7.773 -0.1661 -0.6698 -0.5469
 5030TIP3    H136649   4.787   6.293   7.773 -0.3594 -0.6793 -1.4422
 5030TIP3    H236650   4.882   6.183   7.814 -0.6543 -0.1907  0.6957
 5031TIP3   OH236651   4.292   2.447   7.737  0.0706  0.1420 -0.3528
 5031TIP3    H136652   4.324   2.358   7.751 -0.1054 -0.2117 -2.0247
 5031TIP3    H236653   4.209   2.450   7.786 -0.2110 -0.8113 -0.7385
 5032TIP3   OH236654   5.137   6.549   1.210  0.0034 -0.3272  0.0253
 5032TIP3    H136655   5.048   6.557   1.175 -0.2383 -1.1865  0.4368
 5032TIP3    H236656   5.125   6.523   1.301  0.6846 -0.9471 -0.0501
 5033TIP3   OH236657   2.566   1.087   8.099 -0.0645  0.1551 -0.0039
 5033TIP3    H136658   2.482   1.122   8.128 -0.1203 -0.0506  0.0795
 5033TIP3    H236659   2.571   1.112   8.007  0.4016  1.3762  0.3272
 5034TIP3   OH236660   2.130   6.151   3.013 -0.0453 -0.4279 -0.5443
 5034TIP3    H136661   2.136   6.192   2.927  1.9310 -1.7051 -1.0591
 5034TIP3    H236662   2.110   6.224   3.072  1.5507  1.0110 -1.6711
 5035TIP3   OH236663   4.699   0.885   1.521 -0.1407 -0.0981 -0.3571
 5035TIP3    H136664   4.635   0.862   1.588  0.9325 -0.1769  0.6669
 5035TIP3    H236665   4.720   0.801   1.479 -0.3765 -0.1400 -0.3918
 5036TIP3   OH236666   2.743   5.688   8.250 -0.4127  0.1237  0.0204
 5036TIP3    H136667   2.745   5.696   8.345  0.9308  0.7294 -0.0301
 5036TIP3    H236668   2.774   5.600   8.232  1.5174  0.7296  0.1170
 5037TIP3   OH236669   2.631   6.768   0.213 -0.1602 -0.7145 -0.2652
 5037TIP3    H136670   2.703   6.764   0.276  1.5068 -0.1643 -2.0332
 5037TIP3    H236671   2.568   6.828   0.252  0.7128 -0.5479  0.9537
 5038TIP3   OH236672   5.199   2.353   2.235  0.0774  0.0397 -0.3714
 5038TIP3    H136673   5.265   2.409   2.196  0.4105  0.4254  0.7252
 5038TIP3    H236674   5.241   2.315   2.312 -0.8764  0.0554  0.1719
 5039TIP3   OH236675   1.839   0.497   7.397 -0.3142 -0.0942 -0.8842
 5039TIP3    H136676   1.918   0.552   7.395 -0.1761 -0.2796 -0.6432
 5039TIP3    H236677   1.873   0.408   7.397 -0.4475 -0.1934  1.2080
 5040TIP3   OH236678   4.886   3.416   0.732  0.2794  0.6675  0.0181
 5040TIP3    H136679   4.954   3.357   0.764 -0.0199  0.9384  1.2231
 5040TIP3    H236680   4.832   3.361   0.676  0.0208 -0.2355  1.1025
 5041TIP3   OH236681   3.064   0.775   7.892 -0.4494  0.2188 -0.0012
 5041TIP3    H136682   3.124   0.847   7.910 -1.2242  1.0716 -0.7397
 5041TIP3    H236683   3.046   0.736   7.978  2.9416 -1.5873  0.0560
 5042TIP3   OH236684   1.033   1.021   1.475 -0.3082 -0.1601  0.3668
 5042TIP3    H136685   1.056   1.100   1.525 -1.8286 -0.7493  2.1393
 5042TIP3    H236686   0.976   0.972   1.534  2.3248 -3.7327  0.2364
 5043TIP3   OH236687   1.702   1.445   6.524 -0.3080 -0.1452  0.2580
 5043TIP3    H136688   1.732   1.370   6.575  2.4928 -0.1724 -1.2301
 5043TIP3    H236689   1.643   1.408   6.459 -0.9007 -0.6450  1.0579
 5044TIP3   OH236690   2.739   0.739   7.333 -0.8511  0.4282 -0.0559
 5044TIP3    H136691   2.821   0.786   7.317  0.3710 -1.6733 -0.2264
 5044TIP3    H236692   2.672   0.796   7.295  0.6141  1.7385 -0.8143
 5045TIP3   OH236693   0.195   0.205   8.820 -0.3664  0.3325 -0.5192
 5045TIP3    H136694   0.136   0.131   8.835 -0.4923  0.8009  1.6261
 5045TIP3    H236695   0.149   0.280   8.858  1.1224  0.9141  0.2017
 5046TIP3   OH236696   5.453   2.840   8.008 -0.1507  0.6155  0.8503
 5046TIP3    H136697   5.493   2.926   8.019  1.5622 -0.1395  0.8479
 5046TIP3    H236698   5.395   2.830   8.084 -0.8792  2.0011  0.5135
 5047TIP3   OH236699   1.398   1.477   2.357  0.2810  0.3051 -0.0576
 5047TIP3    H136700   1.405   1.535   2.433  1.7911 -0.4381  0.4154
 5047TIP3    H236701   1.397   1.536   2.282  1.4563  0.9761  0.4252
 5048TIP3   OH236702   3.432   6.020   8.731 -0.2767 -0.0228 -0.0930
 5048TIP3    H136703   3.424   6.116   8.724  0.1953  0.0062 -0.2607
 5048TIP3    H236704   3.346   5.987   8.703  0.3490  0.2481 -2.5501
 5049TIP3   OH236705   2.384   3.385   1.650 -0.1362  0.1951  0.2533
 5049TIP3    H136706   2.387   3.414   1.559 -0.7979  0.2504  0.2484
 5049TIP3    H236707   2.462   3.425   1.690 -0.5591  1.2624  0.0328
 5050TIP3   OH236708   0.455   1.782   1.339 -0.0753  0.3171  0.3074
 5050TIP3    H136709   0.528   1.738   1.296 -1.2206  0.0395 -1.4636
 5050TIP3    H236710   0.416   1.715   1.395  1.1306  0.5358  1.4482
 5051TIP3   OH236711   6.798   3.413   1.777 -0.0121  0.0142 -0.4201
 5051TIP3    H136712   6.750   3.390   1.697 -1.1424  0.0482  0.2159
 5051TIP3    H236713   6.793   3.334   1.831  2.7801 -0.8522 -1.2660
 5052TIP3   OH236714   6.229   1.224   0.445  0.0724  0.6063 -0.0132
 5052TIP3    H136715   6.259   1.293   0.387  0.7440  1.2049  1.0261
 5052TIP3    H236716   6.244   1.143   0.395  0.5706  1.1029 -0.6931
 5053TIP3   OH236717   5.273   4.976   1.516  0.0524 -0.1669  0.4338
 5053TIP3    H136718   5.252   4.984   1.609  0.1184  1.7066  0.3205
 5053TIP3    H236719   5.190   4.950   1.475  0.2026 -1.7751  1.0759
 5054TIP3   OH236720   4.679   2.098   8.400 -0.4436 -0.0258  0.3794
 5054TIP3    H136721   4.715   2.085   8.313  0.2101  0.2366  0.6023
 5054TIP3    H236722   4.594   2.139   8.386 -0.4317 -0.1819 -0.1391
 5055TIP3   OH236723   2.434   1.344   0.142 -0.1976  0.0748 -0.3575
 5055TIP3    H136724   2.479   1.268   0.106  1.5515  0.9545 -0.1531
 5055TIP3    H236725   2.480   1.362   0.225 -0.0531  1.7757 -0.7708
 5056TIP3   OH236726   4.148   0.053   0.208  0.1495 -0.5131 -0.5211
 5056TIP3    H136727   4.060   0.018   0.195 -0.1479 -0.3683  0.8467
 5056TIP3    H236728   4.207  -0.019   0.189 -0.1921 -0.3269 -2.4457
 5057TIP3   OH236729   0.002   4.384   0.036  0.0227 -0.9785  0.2151
 5057TIP3    H136730  -0.050   4.455  -0.004  0.4387 -0.2250  0.9883
 5057TIP3    H236731   0.087   4.424   0.054  0.6721 -2.0200 -0.4287
 5058TIP3   OH236732   3.856   4.698   1.469 -0.0325  0.1918  0.2463
 5058TIP3    H136733   3.774   4.651   1.484 -0.2869  0.7625  0.6487
 5058TIP3    H236734   3.874   4.742   1.551  0.8881 -0.2369  0.2840
 5059TIP3   OH236735   4.607   6.769   7.506  0.5551 -0.5628  0.0956
 5059TIP3    H136736   4.573   6.700   7.450 -1.6953  0.1511  0.4678
 5059TIP3    H236737   4.666   6.724   7.567  0.7771 -1.7825 -0.9828
 5060TIP3   OH236738   3.930   4.505   1.194 -0.0792 -0.9351 -0.3733
 5060TIP3    H136739   3.844   4.533   1.163  0.6209  0.9604 -0.7550
 5060TIP3    H236740   3.921   4.501   1.290 -0.0968  1.3089 -0.2236
 5061TIP3   OH236741   5.482   3.040   8.366  0.1634 -0.5319  0.2521
 5061TIP3    H136742   5.452   3.075   8.282  2.7525  0.3168 -0.3991
 5061TIP3    H236743   5.533   3.111   8.405  2.5504 -2.3053  0.5643
 5062TIP3   OH236744   6.491   1.428   8.300  0.3181 -0.3401 -0.0035
 5062TIP3    H136745   6.460   1.516   8.281  0.7213  0.0615  1.0857
 5062TIP3    H236746   6.548   1.406   8.226  0.4919  0.4568 -0.1175
 5063TIP3   OH236747   1.216   0.891   0.954  0.6426 -0.1041  0.0879
 5063TIP3    H136748   1.152   0.935   0.898  0.4510 -2.1799 -1.4332
 5063TIP3    H236749   1.287   0.954   0.963 -1.1057  1.8506  0.9557
 5064TIP3   OH236750   2.870   0.219   2.047  0.4208  0.0272  0.9523
 5064TIP3    H136751   2.946   0.212   2.105  1.1992 -1.6312 -0.1807
 5064TIP3    H236752   2.891   0.291   1.989  1.4820 -0.8241  0.2283
 5065TIP3   OH236753   6.301   0.582   2.427 -0.1098  0.2499 -0.3740
 5065TIP3    H136754   6.363   0.566   2.498 -1.4522 -1.3769  0.5108
 5065TIP3    H236755   6.352   0.629   2.360  2.1595 -1.2847  0.1549
 5066TIP3   OH236756   2.677   0.784   0.652  0.2733 -0.4528 -0.5252
 5066TIP3    H136757   2.749   0.782   0.715  1.2117 -0.1680 -1.5671
 5066TIP3    H236758   2.613   0.845   0.689  0.4394 -0.8969  0.5233
 5067TIP3   OH236759   0.757   1.533   0.307  0.4668  0.1181 -0.5563
 5067TIP3    H136760   0.761   1.531   0.403  1.6115 -0.9835 -0.5966
 5067TIP3    H236761   0.825   1.595   0.282  1.4954 -1.0136 -0.6750
 5068TIP3   OH236762   0.110   6.759   1.105  0.4179 -0.2227 -0.0446
 5068TIP3    H136763   0.205   6.755   1.101  0.3926 -0.0003 -1.1151
 5068TIP3    H236764   0.081   6.671   1.081  0.3201  0.3609 -2.2399
 5069TIP3   OH236765   1.694   6.393   8.707  0.3216  0.3150 -0.2716
 5069TIP3    H136766   1.783   6.414   8.736 -0.5104  0.4584  2.4353
 5069TIP3    H236767   1.667   6.470   8.657  1.3689  0.6704 -0.3268
 5070TIP3   OH236768   2.622   0.213   8.433 -0.1686 -0.1270  0.8452
 5070TIP3    H136769   2.591   0.124   8.415  3.0658 -1.3727  0.7112
 5070TIP3    H236770   2.642   0.250   8.347  2.8405 -1.1090  1.0224
 5071TIP3   OH236771   2.301   3.095   7.187 -0.7415  0.2490  0.1151
 5071TIP3    H136772   2.395   3.075   7.197 -0.8752 -0.2321  0.4510
 5071TIP3    H236773   2.269   3.027   7.128 -0.4887  1.5590 -1.6000
 5072TIP3   OH236774   0.738   1.915   8.106 -0.1418 -0.3217  0.1879
 5072TIP3    H136775   0.733   1.917   8.201 -0.1931 -1.0658  0.2042
 5072TIP3    H236776   0.782   1.833   8.085  0.4924  0.1587 -0.4084
 5073TIP3   OH236777   0.775   5.979   7.880  0.2421  0.1400 -0.6448
 5073TIP3    H136778   0.864   5.947   7.892  0.1336  0.0767  0.0453
 5073TIP3    H236779   0.781   6.042   7.809  0.4177 -1.6495 -2.2899
 5074TIP3   OH236780   4.443   4.939   2.708  0.0361 -0.7213 -0.4303
 5074TIP3    H136781   4.535   4.956   2.686  0.0112  0.4473  0.3000
 5074TIP3    H236782   4.410   5.022   2.740 -1.3908 -1.0360 -0.9998
 5075TIP3   OH236783   2.258   6.760   0.946  0.0752 -0.0690 -0.5592
 5075TIP3    H136784   2.305   6.696   0.999  0.2674  0.3589 -0.2116
 5075TIP3    H236785   2.196   6.801   1.006 -0.0421  0.0768 -0.7788
 5076TIP3   OH236786   4.625   2.232   1.266  0.4562 -0.0552 -0.0645
 5076TIP3    H136787   4.689   2.179   1.315  1.0082  1.6422  1.1515
 5076TIP3    H236788   4.666   2.247   1.181  1.3962  0.4228  0.4526
 5077TIP3   OH236789   4.801   0.806   1.982 -0.4079  0.0831 -0.5880
 5077TIP3    H136790   4.812   0.712   1.974 -0.2266  0.0266  0.2781
 5077TIP3    H236791   4.707   0.821   1.970 -0.3817 -0.1523 -1.1387
 5078TIP3   OH236792   6.507   0.890   0.020 -0.3171 -0.4273 -0.8840
 5078TIP3    H136793   6.597   0.875  -0.010 -0.4459 -0.2420 -1.3811
 5078TIP3    H236794   6.511   0.880   0.115  0.1852 -0.6354 -0.9240
 5079TIP3   OH236795   0.659   2.410   8.634 -0.1810 -0.2709 -0.6461
 5079TIP3    H136796   0.585   2.436   8.691 -1.0757 -1.4667 -1.2212
 5079TIP3    H236797   0.660   2.476   8.565  0.6938  0.9979  0.5168
 5080TIP3   OH236798   4.156   2.622   1.403 -0.1875  0.0346  0.0051
 5080TIP3    H136799   4.170   2.532   1.433 -0.9810  0.7067  2.7534
 5080TIP3    H236800   4.065   2.641   1.427 -0.7939  0.8552 -2.6917
 5081TIP3   OH236801   4.975   5.204   8.290 -0.0865  0.5609  1.0599
 5081TIP3    H136802   4.969   5.300   8.284  1.7789  0.6672  0.4365
 5081TIP3    H236803   4.936   5.184   8.375  0.3496  1.9689  1.6308
 5082TIP3   OH236804   2.470   3.194   0.315  0.8264  0.0548 -0.6524
 5082TIP3    H136805   2.497   3.109   0.280 -0.5993  0.3650 -2.6333
 5082TIP3    H236806   2.546   3.225   0.364  1.7655 -1.8438 -0.8191
 5083TIP3   OH236807   5.226   5.806   6.890  0.2967 -0.6687  0.2819
 5083TIP3    H136808   5.215   5.893   6.852 -0.9107 -1.1016 -0.4214
 5083TIP3    H236809   5.313   5.807   6.928  0.2493  0.8930  0.4029
 5084TIP3   OH236810   0.175   5.437   8.378 -0.0300 -0.2405 -0.7904
 5084TIP3    H136811   0.270   5.439   8.368  0.3819 -1.1266  2.2515
 5084TIP3    H236812   0.153   5.345   8.390 -0.8270  0.1823  1.5564
 5085TIP3   OH236813   6.046   4.575   7.697 -0.4059 -0.5424 -0.0011
 5085TIP3    H136814   6.139   4.598   7.692 -0.0330 -1.9832 -0.0006
 5085TIP3    H236815   6.034   4.511   7.627 -0.8679 -2.0697  1.4252
 5086TIP3   OH236816   2.567   3.026   7.283  0.0694 -0.8375 -0.0436
 5086TIP3    H136817   2.559   2.947   7.229  0.5473 -0.2881 -0.9450
 5086TIP3    H236818   2.662   3.040   7.291  0.0503  1.1319 -2.1921
 5087TIP3   OH236819   0.736   1.902   1.401  0.7940  0.6896  0.1098
 5087TIP3    H136820   0.689   1.941   1.328  1.3080  2.4131  0.6486
 5087TIP3    H236821   0.673   1.902   1.474  0.2990 -0.9747 -0.2672
 5088TIP3   OH236822   2.945   2.457   0.288 -0.9431  0.8208  0.1135
 5088TIP3    H136823   3.013   2.395   0.260 -1.6917  0.2107 -0.3803
 5088TIP3    H236824   2.918   2.425   0.374 -2.3825 -0.4777 -0.7580
 5089TIP3   OH236825   4.175   3.146   1.881  0.1509 -0.3669 -0.2860
 5089TIP3    H136826   4.096   3.196   1.863  0.5028 -0.0675 -1.0655
 5089TIP3    H236827   4.155   3.096   1.960 -0.4349  0.5053  0.1252
 5090TIP3   OH236828   1.901   4.133   1.234  0.6786  0.2764 -0.0106
 5090TIP3    H136829   1.993   4.155   1.253  0.8409  1.9369 -2.2663
 5090TIP3    H236830   1.864   4.214   1.199 -1.5292 -0.5291  0.2946
 5091TIP3   OH236831   5.818   3.934   2.912  0.2603 -0.2638  0.0115
 5091TIP3    H136832   5.885   3.961   2.849 -0.1782 -0.4862 -0.5589
 5091TIP3    H236833   5.828   3.840   2.920  0.6016 -0.1873  0.6268
 5092TIP3   OH236834   6.167   2.633   1.174  0.1031 -0.1176  0.0445
 5092TIP3    H136835   6.168   2.538   1.166  3.8294 -0.2448  0.1165
 5092TIP3    H236836   6.115   2.664   1.100 -0.5303 -2.1770 -0.4179
 5093TIP3   OH236837   2.710   5.500   2.255  0.1480  0.0478 -0.1956
 5093TIP3    H136838   2.749   5.552   2.324  1.1010  0.9019 -1.3411
 5093TIP3    H236839   2.616   5.519   2.261  0.2181  0.1118  0.8433
 5094TIP3   OH236840   2.343   3.176   8.447  0.1114  0.5314  0.2526
 5094TIP3    H136841   2.250   3.176   8.424  0.7072 -0.7350 -2.5896
 5094TIP3    H236842   2.386   3.222   8.375  1.8446 -0.3861  0.6312
 5095TIP3   OH236843   2.074   1.491   1.409 -0.5363  0.1352 -0.3013
 5095TIP3    H136844   1.982   1.501   1.433 -0.4526  1.0549 -0.3341
 5095TIP3    H236845   2.112   1.578   1.421  1.0006 -0.7858  2.4374
 5096TIP3   OH236846   5.267   4.665   8.402  0.2196 -0.0895 -0.0494
 5096TIP3    H136847   5.299   4.604   8.336  0.3702 -1.0883  0.9249
 5096TIP3    H236848   5.301   4.632   8.485  0.8797  1.7007  0.4525
 5097TIP3   OH236849   3.778   4.185   1.720 -0.0107 -0.4003 -0.2857
 5097TIP3    H136850   3.843   4.174   1.790  0.5722  0.5089 -0.6756
 5097TIP3    H236851   3.773   4.098   1.679  0.2253 -0.7323  0.3672
 5098TIP3   OH236852   1.811   4.914   0.555  0.6216 -0.4308  0.4860
 5098TIP3    H136853   1.888   4.874   0.597 -0.1552 -1.0566  1.3520
 5098TIP3    H236854   1.780   4.977   0.620 -0.9305 -1.8086  1.1521
 5099TIP3   OH236855   2.716   0.368   7.992 -0.3212 -0.2500  0.2289
 5099TIP3    H136856   2.678   0.369   7.904  0.6696 -1.0550 -0.2214
 5099TIP3    H236857   2.739   0.460   8.009  0.1677 -0.1928 -0.6641
 5100TIP3   OH236858   3.379   4.148   0.422  0.2112 -0.1798  0.1987
 5100TIP3    H136859   3.473   4.165   0.415  0.2825 -1.1892 -1.8951
 5100TIP3    H236860   3.371   4.080   0.489  0.9736 -0.1955  0.2748
 5101TIP3   OH236861   3.021   6.419   0.351  0.6536  0.0890 -0.9191
 5101TIP3    H136862   2.981   6.482   0.411  0.4861 -0.9420  0.0863
 5101TIP3    H236863   3.048   6.471   0.276 -0.2793  1.2120 -0.5008
 5102TIP3   OH236864   1.343   3.993   7.737  0.1626  0.1991  0.1687
 5102TIP3    H136865   1.364   3.901   7.753  1.0275  0.4923  0.7474
 5102TIP3    H236866   1.428   4.037   7.733 -0.2676  1.0942  0.6172
 5103TIP3   OH236867   4.942   0.613   7.907  0.1000 -0.0488  0.2837
 5103TIP3    H136868   4.938   0.545   7.974  1.5436 -0.2574  0.2020
 5103TIP3    H236869   4.999   0.680   7.946  2.2018 -0.8364 -1.2506
 5104TIP3   OH236870   4.797   5.354   2.534  0.0685  0.1606 -0.2632
 5104TIP3    H136871   4.704   5.334   2.549  0.2136  0.2213  0.7747
 5104TIP3    H236872   4.841   5.270   2.542  0.3052  0.3954  0.9860
 5105TIP3   OH236873   0.004   3.039   1.607  0.4178 -0.1778  0.2557
 5105TIP3    H136874  -0.029   3.125   1.635 -0.5592 -0.6565  0.5888
 5105TIP3    H236875   0.019   2.991   1.689  0.9102 -0.3565  0.0666
 5106TIP3   OH236876   3.951   1.048   1.918  0.3678 -0.1604 -0.4305
 5106TIP3    H136877   3.943   0.953   1.917 -0.4611 -0.2187  2.0397
 5106TIP3    H236878   3.861   1.079   1.929  0.6499  0.8989 -0.9639
 5107TIP3   OH236879   6.520   2.591   7.775  0.4324  0.1924 -0.4081
 5107TIP3    H136880   6.453   2.657   7.756 -1.2409 -1.3366 -0.0608
 5107TIP3    H236881   6.523   2.536   7.697  0.7221 -0.2181 -0.1121
 5108TIP3   OH236882   0.220   6.423   8.213  0.0204 -0.7645  0.2758
 5108TIP3    H136883   0.171   6.341   8.211 -0.1713 -0.6537  0.4107
 5108TIP3    H236884   0.311   6.396   8.228 -0.4035 -0.8402  3.5367
 5109TIP3   OH236885   1.207   4.862   0.322  0.1406  0.3073  0.2381
 5109TIP3    H136886   1.131   4.850   0.379  0.4527 -3.5551  0.0908
 5109TIP3    H236887   1.169   4.864   0.233  0.0909 -3.1544  0.0340
 5110TIP3   OH236888   2.399   0.946   7.911 -0.1253  0.1142  0.6281
 5110TIP3    H136889   2.458   1.010   7.871 -2.5577  1.9230 -0.2622
 5110TIP3    H236890   2.449   0.864   7.911  2.4664  1.5958  0.2437
 5111TIP3   OH236891   4.620   5.463   8.255 -0.1891 -0.0577 -0.0796
 5111TIP3    H136892   4.588   5.373   8.245  1.4757 -0.5023 -1.9624
 5111TIP3    H236893   4.559   5.502   8.318 -2.0863 -1.9378 -0.5938
 5112TIP3   OH236894   2.902   6.804   1.244  0.1896 -0.5025  0.0005
 5112TIP3    H136895   2.990   6.796   1.281  0.1026  1.4464  0.7400
 5112TIP3    H236896   2.849   6.745   1.296  1.0020 -1.5090 -0.2836
 5113TIP3   OH236897   4.149   1.327   8.122 -0.3594 -0.3929 -0.3239
 5113TIP3    H136898   4.117   1.416   8.108 -0.7614 -0.6048 -0.7710
 5113TIP3    H236899   4.081   1.283   8.172 -0.5673 -0.7060 -0.8704
 5114TIP3   OH236900   6.560   5.061   8.429 -0.3623 -0.3685 -0.1359
 5114TIP3    H136901   6.570   4.987   8.369 -1.5453  1.2243 -2.4226
 5114TIP3    H236902   6.475   5.048   8.470 -0.4957 -0.3379 -0.4069
 5115TIP3   OH236903   4.469   3.606   0.805 -0.1685 -0.5125  0.2034
 5115TIP3    H136904   4.543   3.565   0.850  0.9703  1.5007  0.2607
 5115TIP3    H236905   4.420   3.532   0.767  1.2191 -1.9607  1.1211
 5116TIP3   OH236906   5.202   0.070   8.823 -0.0722 -0.2152  0.1548
 5116TIP3    H136907   5.136   0.115   8.770  0.3782 -1.5359 -1.6270
 5116TIP3    H236908   5.151   0.013   8.880 -0.5336  0.4821  0.4598
 5117TIP3   OH236909   2.348   6.757   8.614 -0.1762  0.1564  0.2706
 5117TIP3    H136910   2.403   6.728   8.687  1.4698  0.9532 -0.5785
 5117TIP3    H236911   2.405   6.752   8.537 -0.5739  2.9912 -0.3513
 5118TIP3   OH236912   4.188   0.975   7.706  0.2615  0.3319 -0.6837
 5118TIP3    H136913   4.210   0.951   7.616  1.1144 -0.2274 -0.3275
 5118TIP3    H236914   4.255   1.039   7.731 -0.3942  1.0336 -0.6830
 5119TIP3   OH236915   4.352   4.503   1.877  0.0579  0.4266 -0.2209
 5119TIP3    H136916   4.353   4.576   1.815  0.1248  2.6178  2.1515
 5119TIP3    H236917   4.346   4.545   1.963  0.6245 -2.3815  1.3324
 5120TIP3   OH236918   0.885   6.773   0.823  0.7566  0.5777  0.1886
 5120TIP3    H136919   0.924   6.696   0.782  2.4177  0.5856  1.6378
 5120TIP3    H236920   0.820   6.736   0.884  1.6531  0.2678  0.9903
 5121TIP3   OH236921   5.453   6.367   1.440 -0.5379 -0.0842  0.0548
 5121TIP3    H136922   5.451   6.376   1.345 -1.9130  0.1700  0.0922
 5121TIP3    H236923   5.503   6.443   1.471  0.0638 -0.2637 -0.4592
 5122TIP3   OH236924   2.508   2.439   1.661  0.7699 -0.8907 -0.5056
 5122TIP3    H136925   2.451   2.438   1.584  2.0893  1.1608 -1.5971
 5122TIP3    H236926   2.589   2.397   1.631  1.2402 -0.2101 -0.2035
 5123TIP3   OH236927   1.956   6.177   0.664 -0.4027  0.1044 -0.2922
 5123TIP3    H136928   1.891   6.138   0.722  0.4583  0.7779  1.1727
 5123TIP3    H236929   1.936   6.271   0.664  1.0878  0.4540  0.9080
 5124TIP3   OH236930   2.378   5.498   0.158 -0.2055  0.0989 -0.1487
 5124TIP3    H136931   2.391   5.577   0.212  1.3438 -0.9287  1.0956
 5124TIP3    H236932   2.294   5.511   0.116  0.2691  2.6854 -0.4578
 5125TIP3   OH236933   6.457   2.791   0.629  0.2272  0.6118  0.4194
 5125TIP3    H136934   6.392   2.840   0.680 -0.0044 -1.1342  1.8961
 5125TIP3    H236935   6.541   2.816   0.668  0.1117 -0.0728  1.1438
 5126TIP3   OH236936   4.379   5.795   1.845 -0.4619  0.1125 -0.0333
 5126TIP3    H136937   4.352   5.715   1.890 -0.5409 -0.2942 -0.7866
 5126TIP3    H236938   4.304   5.818   1.790  0.3489 -0.5466 -1.4834
 5127TIP3   OH236939   5.072   0.891   8.265  0.3732  0.2276  0.0850
 5127TIP3    H136940   5.148   0.915   8.318  1.2102  1.6261 -1.6409
 5127TIP3    H236941   5.108   0.858   8.183 -0.8912 -0.9600 -0.0342
 5128TIP3   OH236942   0.809   5.442   2.351  0.2907 -0.3956  0.0041
 5128TIP3    H136943   0.722   5.417   2.383 -0.4703 -0.5005 -1.9863
 5128TIP3    H236944   0.793   5.519   2.296  1.7534  0.7662  1.1333
 5129TIP3   OH236945   3.233   5.281   7.417  0.0196 -0.4911 -0.5223
 5129TIP3    H136946   3.142   5.252   7.414 -1.0323  2.2036  1.3233
 5129TIP3    H236947   3.228   5.376   7.408  2.3323  0.0904  2.7704
 5130TIP3   OH236948   0.243   1.251   0.947  0.0814 -0.1216  0.1505
 5130TIP3    H136949   0.323   1.248   0.894  0.2214 -2.3934  0.3765
 5130TIP3    H236950   0.263   1.314   1.017  0.7884  1.0812 -1.0981
 5131TIP3   OH236951   4.734   5.111   6.671  0.5528  0.0918  0.1571
 5131TIP3    H136952   4.804   5.109   6.736  2.0762  0.8298 -1.3940
 5131TIP3    H236953   4.699   5.022   6.670  0.1584  0.1654  2.2767
 5132TIP3   OH236954   6.564   0.541   8.631 -0.0942 -0.1255 -0.0587
 5132TIP3    H136955   6.495   0.596   8.669  0.2271  0.6106 -0.5131
 5132TIP3    H236956   6.537   0.452   8.650 -0.5010  0.1912  0.9309
 5133TIP3   OH236957   0.918   6.309   7.377 -0.9073  0.1077  0.0605
 5133TIP3    H136958   0.824   6.302   7.388 -1.0785  2.3378  0.3134
 5133TIP3    H236959   0.934   6.401   7.357  1.2136 -0.2384 -0.1022
 5134TIP3   OH236960   5.702   0.730   1.074 -0.1970 -0.0237  0.5126
 5134TIP3    H136961   5.785   0.730   1.120  0.1004 -0.5567 -0.0050
 5134TIP3    H236962   5.703   0.810   1.022  0.5194 -0.6012 -0.3925
 5135TIP3   OH236963   2.527   5.386   1.651 -0.1681  0.9013 -0.5632
 5135TIP3    H136964   2.582   5.450   1.697 -0.6463 -0.0499  1.4550
 5135TIP3    H236965   2.451   5.436   1.621 -0.1278  1.4578  0.2325
 5136TIP3   OH236966   4.209   1.891   8.568  0.0846  0.2839  0.3499
 5136TIP3    H136967   4.202   1.969   8.622  0.4904  0.5735 -0.0165
 5136TIP3    H236968   4.143   1.831   8.604  0.8431  0.1804  1.6396
 5137TIP3   OH236969   0.883   5.592   8.480 -0.2044 -0.8662 -0.0985
 5137TIP3    H136970   0.833   5.669   8.450  0.5391  0.0787  1.0414
 5137TIP3    H236971   0.853   5.577   8.569 -0.7495 -2.2826 -0.4860
 5138TIP3   OH236972   1.961   5.881   0.438 -0.1332 -0.1427 -0.3731
 5138TIP3    H136973   1.875   5.839   0.430 -0.7834  0.9235  0.6777
 5138TIP3    H236974   1.977   5.918   0.351 -2.2522  2.3776  0.1749
 5139TIP3   OH236975   6.452   1.870   0.124 -0.6698 -0.2639  0.7555
 5139TIP3    H136976   6.457   1.902   0.034 -0.8575 -0.0688  0.8138
 5139TIP3    H236977   6.446   1.949   0.178  0.1985 -0.3490  0.9950
 5140TIP3   OH236978   3.426   0.279   3.102 -0.0731 -0.0533 -0.1593
 5140TIP3    H136979   3.373   0.358   3.114 -0.7265 -0.1863 -1.8887
 5140TIP3    H236980   3.370   0.208   3.132  0.4799  0.1063  1.3097
 5141TIP3   OH236981   0.016   2.697   1.520  0.0035  0.3730 -0.2319
 5141TIP3    H136982  -0.034   2.686   1.439  1.1410  1.6461 -1.1634
 5141TIP3    H236983   0.075   2.771   1.501  0.7658  0.2507  1.5294
 5142TIP3   OH236984   6.504   1.715   1.608  0.2982 -0.2223 -0.2252
 5142TIP3    H136985   6.496   1.627   1.643  0.8931 -0.2769 -0.2095
 5142TIP3    H236986   6.502   1.772   1.685 -0.6017 -0.1798 -0.2728
 5143TIP3   OH236987   3.522   5.246   8.196  0.2584 -0.0206  0.9182
 5143TIP3    H136988   3.566   5.324   8.162 -1.7343  0.7955  0.0329
 5143TIP3    H236989   3.444   5.238   8.142  0.0181 -2.2152  1.5096
 5144TIP3   OH236990   0.844   4.000   8.788 -0.0618 -0.2913  0.1334
 5144TIP3    H136991   0.780   3.962   8.728 -0.5352  1.1601 -0.3217
 5144TIP3    H236992   0.838   4.094   8.773  0.9816 -0.0106  1.3037
 5145TIP3   OH236993   1.081   0.982   2.068  0.0892 -0.1407  0.2711
 5145TIP3    H136994   1.040   1.014   1.987  1.5305  1.0217 -0.0342
 5145TIP3    H236995   1.009   0.942   2.116 -1.6722  2.6876  0.2095
 5146TIP3   OH236996   2.052   5.889   2.637 -0.0017 -0.0719 -0.0860
 5146TIP3    H136997   2.131   5.881   2.583 -1.2941  0.9844 -2.3010
 5146TIP3    H236998   2.045   5.983   2.655 -0.7372 -0.1540  0.0835
 5147TIP3   OH236999   4.359   2.229   0.667  0.0153  0.2114  0.3992
 5147TIP3    H137000   4.441   2.263   0.630  1.0751 -1.6109  0.9330
 5147TIP3    H237001   4.356   2.137   0.639 -1.3945 -0.0013  1.1435
 5148TIP3   OH237002   2.619   4.711   8.369  0.3651  0.1831  0.4228
 5148TIP3    H137003   2.671   4.642   8.408  0.7497  0.0427 -0.3118
 5148TIP3    H237004   2.550   4.665   8.321  1.1025  0.2466 -0.7516
 5149TIP3   OH237005   6.329   1.755   7.768 -0.1157 -0.2518  0.4611
 5149TIP3    H137006   6.327   1.796   7.854 -0.2436  0.3218  0.1911
 5149TIP3    H237007   6.383   1.677   7.780 -0.0841 -0.1461  1.0452
 5150TIP3   OH237008   4.500   1.984   7.939  0.0122 -0.0733 -0.1218
 5150TIP3    H137009   4.503   1.919   7.869 -0.3499  0.8298 -1.0041
 5150TIP3    H237010   4.565   2.049   7.914 -1.7137  1.4506 -0.8834
 5151TIP3   OH237011   5.999   5.010   0.443 -0.1677  0.1631 -0.3585
 5151TIP3    H137012   5.972   4.938   0.385 -0.4932 -1.1678  1.3436
 5151TIP3    H237013   5.924   5.069   0.444  0.3397  0.8959 -2.2703
 5152TIP3   OH237014   5.863   0.815   7.691  0.5236 -0.3001 -0.0155
 5152TIP3    H137015   5.936   0.854   7.642  0.6315  1.0346  1.1483
 5152TIP3    H237016   5.904   0.748   7.746  0.6202 -0.7211 -0.5933
 5153TIP3   OH237017   3.986   1.528   6.730  0.4261 -0.3228 -0.0067
 5153TIP3    H137018   3.935   1.578   6.666 -1.0700 -0.7161  0.8254
 5153TIP3    H237019   3.965   1.570   6.814  1.3945 -0.5814  0.3725
 5154TIP3   OH237020   2.926   1.192   8.837 -0.0497 -0.1886 -0.3742
 5154TIP3    H137021   2.963   1.252   8.902  0.2567  1.8837 -2.3407
 5154TIP3    H237022   2.844   1.161   8.876  0.4450  0.4368  1.2508
 5155TIP3   OH237023   6.603   1.672   0.339 -0.1330 -0.4686 -0.5345
 5155TIP3    H137024   6.609   1.767   0.340 -2.6160 -0.2146 -2.2096
 5155TIP3    H237025   6.675   1.643   0.395 -0.9944  2.4433  2.3472
 5156TIP3   OH237026   6.619   0.290   7.623  0.4039  0.3080  0.8912
 5156TIP3    H137027   6.616   0.268   7.530  2.7772 -1.2848  1.0840
 5156TIP3    H237028   6.528   0.292   7.651 -0.2994 -2.7198 -0.7439
 5157TIP3   OH237029   2.179   0.988   0.634  0.2809  0.4250  0.0237
 5157TIP3    H137030   2.135   1.019   0.555 -0.2071  0.0935  0.1586
 5157TIP3    H237031   2.250   1.051   0.649 -0.0166  0.8463 -0.3205
 5158TIP3   OH237032   1.229   2.333   0.344 -0.2922  0.2088 -0.3915
 5158TIP3    H137033   1.158   2.270   0.339 -0.6702  0.6408 -0.5734
 5158TIP3    H237034   1.230   2.362   0.435  0.5343 -0.7894 -0.0673
 5159TIP3   OH237035   4.396   4.567   6.822  0.4565 -0.0559 -0.0175
 5159TIP3    H137036   4.385   4.662   6.821 -0.6525 -0.0574  3.0175
 5159TIP3    H237037   4.488   4.553   6.842  0.3380  0.4144  0.8714
 5160TIP3   OH237038   2.239   1.413   3.037 -0.5021 -0.1566 -0.0162
 5160TIP3    H137039   2.285   1.374   2.963 -2.7875  0.1752 -1.7132
 5160TIP3    H237040   2.289   1.384   3.114  0.6353 -2.4537 -1.5072
 5161TIP3   OH237041   0.780   6.208   7.690 -0.9392 -0.0367 -0.7831
 5161TIP3    H137042   0.783   6.153   7.611 -2.3817  0.0975 -0.9622
 5161TIP3    H237043   0.690   6.240   7.692 -0.6484  0.7249  0.4135
 5162TIP3   OH237044   5.118   2.977   7.148 -0.1144  0.1594  0.0192
 5162TIP3    H137045   5.151   2.991   7.236  0.5038 -0.1640 -0.1518
 5162TIP3    H237046   5.097   2.884   7.144  0.4670  0.0335 -0.3591
 5163TIP3   OH237047   3.132   5.887   0.798  0.5073 -0.0461  0.0890
 5163TIP3    H137048   3.045   5.848   0.790  0.9379 -0.6422 -3.6877
 5163TIP3    H237049   3.117   5.981   0.793 -0.0669  0.0442  2.6015
 5164TIP3   OH237050   3.617   6.312   2.100 -0.0060  0.1638 -0.1836
 5164TIP3    H137051   3.526   6.308   2.071  0.2324  0.1878 -0.9796
 5164TIP3    H237052   3.620   6.260   2.180 -0.9768  1.2251  0.5773
 5165TIP3   OH237053   0.348   1.693   0.159 -0.3757 -0.1067  0.4030
 5165TIP3    H137054   0.333   1.731   0.246 -0.4041  1.4078 -0.2451
 5165TIP3    H237055   0.441   1.705   0.142 -0.3753 -0.3745  0.1977
 5166TIP3   OH237056   1.958   1.937   8.318 -0.9957  0.4707 -0.1764
 5166TIP3    H137057   1.892   1.999   8.286 -1.0054  0.1544 -0.7783
 5166TIP3    H237058   1.939   1.927   8.411 -2.0794  0.0382 -0.4378
 5167TIP3   OH237059   0.098   5.196   7.781 -0.3549 -0.5966  0.2094
 5167TIP3    H137060   0.192   5.194   7.760 -0.6824 -1.3074 -1.3310
 5167TIP3    H237061   0.083   5.113   7.826 -0.0290  0.0830  1.6441
 5168TIP3   OH237062   6.156   2.210   0.255 -0.3662 -0.5843  0.0091
 5168TIP3    H137063   6.206   2.249   0.328 -0.7098 -0.1463  0.0166
 5168TIP3    H237064   6.140   2.283   0.196 -0.5459 -0.8327 -0.2486
 5169TIP3   OH237065   4.449   2.835   2.851 -0.0862  0.1199 -0.3173
 5169TIP3    H137066   4.524   2.776   2.843 -1.0427 -1.5791  1.9730
 5169TIP3    H237067   4.468   2.888   2.929 -1.3880 -0.6609  0.5821
 5170TIP3   OH237068   2.781   1.628   8.634  0.5824 -0.0172  0.2223
 5170TIP3    H137069   2.798   1.564   8.565  0.8124 -0.3089  0.5479
 5170TIP3    H237070   2.763   1.576   8.712 -1.8248  0.2480 -0.0715
 5171TIP3   OH237071   1.900   2.124   0.087 -0.0810  0.6470  0.3463
 5171TIP3    H137072   1.928   2.036   0.061  2.1455  0.9633  1.3816
 5171TIP3    H237073   1.956   2.182   0.036  1.3480  1.3403  2.5589
 5172TIP3   OH237074   4.487   6.225   7.451 -0.2877 -0.1617 -0.1155
 5172TIP3    H137075   4.557   6.289   7.440 -0.2424 -0.1854  0.0266
 5172TIP3    H237076   4.444   6.220   7.365 -0.8679  0.7287  0.1046
 5173TIP3   OH237077   1.075   1.135   2.942  0.3794 -0.2471  0.1949
 5173TIP3    H137078   1.004   1.138   2.877 -0.2177  0.3929  0.8598
 5173TIP3    H237079   1.036   1.091   3.017  1.0719 -0.9915  0.1173
 5174TIP3   OH237080   1.410   4.111   2.078  0.6205 -0.0596  0.5747
 5174TIP3    H137081   1.429   4.119   2.171  2.1521  0.9099  0.2180
 5174TIP3    H237082   1.327   4.158   2.066  2.2927  3.2689  0.9049
 5175TIP3   OH237083   6.086   0.230   6.812  0.1101 -0.0625 -0.2983
 5175TIP3    H137084   6.115   0.281   6.887  1.1049  0.6785 -1.1590
 5175TIP3    H237085   6.050   0.149   6.850  1.9299 -0.3545  0.9208
 5176TIP3   OH237086   4.873   6.295   2.650  0.2465 -0.3958 -0.0435
 5176TIP3    H137087   4.906   6.205   2.660 -1.0674 -0.8457  0.4903
 5176TIP3    H237088   4.811   6.290   2.577  2.0722  0.6608 -1.7426
 5177TIP3   OH237089   1.816   1.818   1.348 -0.4643  0.0234 -0.0215
 5177TIP3    H137090   1.819   1.839   1.255 -1.0755 -0.6225 -0.1937
 5177TIP3    H237091   1.854   1.895   1.391  3.0021 -0.9688 -0.9408
 5178TIP3   OH237092   6.283   1.199   1.956 -0.6765  0.0069  0.2652
 5178TIP3    H137093   6.217   1.157   1.901  0.0407  1.5448 -1.9112
 5178TIP3    H237094   6.286   1.289   1.924  0.7346  0.6232  1.9968
 5179TIP3   OH237095   4.308   3.697   0.238 -0.6373 -0.1344 -0.1136
 5179TIP3    H137096   4.333   3.662   0.153  0.0985  0.3117 -0.0900
 5179TIP3    H237097   4.327   3.627   0.300 -1.4770 -0.5753 -0.3510
 5180TIP3   OH237098   2.306   0.204   1.749  0.1077  0.2794  0.0442
 5180TIP3    H137099   2.313   0.281   1.693  0.1665  0.3290  0.1209
 5180TIP3    H237100   2.395   0.171   1.757  0.0853  0.2132  0.0263
 5181TIP3   OH237101   6.304   3.170   2.062  0.1680 -0.0168 -1.2131
 5181TIP3    H137102   6.322   3.262   2.081 -0.0259 -0.5274  1.8395
 5181TIP3    H237103   6.296   3.167   1.966 -0.3453  3.2100 -1.3867
 5182TIP3   OH237104   3.944   2.573   7.477 -0.2014 -0.2331  0.0212
 5182TIP3    H137105   3.923   2.650   7.530 -1.4374 -0.1480 -0.5456
 5182TIP3    H237106   3.978   2.509   7.539  1.2061  0.8772  0.4531
 5183TIP3   OH237107   0.322   5.784   1.987  0.6036  0.5099  0.4580
 5183TIP3    H137108   0.243   5.795   1.935 -1.5113  2.0983  3.7429
 5183TIP3    H237109   0.362   5.871   1.989  0.5374  0.5202  1.6308
 5184TIP3   OH237110   3.450   4.468   0.984  0.2088 -0.4708  0.2854
 5184TIP3    H137111   3.524   4.521   1.014 -0.8796  1.9086 -0.9592
 5184TIP3    H237112   3.381   4.531   0.963 -1.2919 -2.4063 -1.0813
 5185TIP3   OH237113   0.204   1.620   1.428 -0.4096  0.2429 -0.1461
 5185TIP3    H137114   0.183   1.705   1.390 -0.0953  0.1705 -0.4817
 5185TIP3    H237115   0.239   1.640   1.514 -0.2031  0.4631 -0.2794
 5186TIP3   OH237116   4.656   3.695   8.620 -0.1564 -0.2102  0.5233
 5186TIP3    H137117   4.625   3.667   8.534  0.8171  0.7077 -0.1483
 5186TIP3    H237118   4.635   3.788   8.625  1.8392  0.3023  0.2971
 5187TIP3   OH237119   1.501   3.778   8.187 -0.0627  0.1026  0.0454
 5187TIP3    H137120   1.468   3.795   8.275 -0.6285 -0.9984  0.0708
 5187TIP3    H237121   1.580   3.725   8.201 -1.0155 -1.4386 -0.1027
 5188TIP3   OH237122   2.222   5.382   1.625 -0.1025  0.3587 -0.5935
 5188TIP3    H137123   2.134   5.412   1.649  0.6190  1.5223  0.7368
 5188TIP3    H237124   2.233   5.410   1.534 -0.7967  0.9197 -0.5109
 5189TIP3   OH237125   2.165   5.569   8.371  0.3348  0.1075  0.6778
 5189TIP3    H137126   2.140   5.558   8.279  0.0651 -0.1298  0.7766
 5189TIP3    H237127   2.149   5.661   8.390 -0.3481 -0.0127  0.7030
 5190TIP3   OH237128   5.624   2.764   0.843  0.2095  0.5488 -0.1969
 5190TIP3    H137129   5.586   2.830   0.901 -1.3683  0.1954 -0.7693
 5190TIP3    H237130   5.615   2.682   0.892  2.6994  0.7589  0.7639
 5191TIP3   OH237131   0.872   6.037   1.439 -0.0509  0.0399 -0.0682
 5191TIP3    H137132   0.830   6.070   1.359  1.9527 -0.3692 -1.3896
 5191TIP3    H237133   0.802   5.993   1.487 -1.2505 -0.0990 -1.8353
 5192TIP3   OH237134   4.057   6.439   8.094  0.4764 -0.2482  0.4461
 5192TIP3    H137135   4.041   6.345   8.082  0.0952 -0.0303 -0.8813
 5192TIP3    H237136   3.974   6.481   8.072  0.7737  0.4319  0.6009
 5193TIP3   OH237137   4.178   0.727   1.105  0.0264 -0.2297  0.0022
 5193TIP3    H137138   4.254   0.678   1.073  0.0106 -0.9589  1.0323
 5193TIP3    H237139   4.111   0.713   1.038  0.8015  0.4899 -0.9587
 5194TIP3   OH237140   2.679   3.029   1.883  0.3232  0.4540 -0.2908
 5194TIP3    H137141   2.694   2.965   1.952  0.1339  1.3000  0.5611
 5194TIP3    H237142   2.687   3.114   1.926  0.9280  1.0250 -1.4649
 5195TIP3   OH237143   5.575   4.487   2.899 -0.1249  0.1799 -0.8577
 5195TIP3    H137144   5.547   4.546   2.828  1.5704  2.7438  0.4473
 5195TIP3    H237145   5.630   4.542   2.955 -0.8117 -1.9144  2.1065
 5196TIP3   OH237146   6.437   2.720   7.111 -0.5763  0.4821 -0.4513
 5196TIP3    H137147   6.512   2.725   7.052 -1.0140  0.2742 -1.0398
 5196TIP3    H237148   6.421   2.626   7.120 -1.5101  0.5365 -1.3148
 5197TIP3   OH237149   1.055   5.716   2.556 -0.6254  0.1336  0.1395
 5197TIP3    H137150   0.988   5.716   2.625  0.5185  0.0004  1.2908
 5197TIP3    H237151   1.120   5.653   2.587  2.4125  3.5661  1.4494
 5198TIP3   OH237152   5.643   5.784   8.262 -0.3463  0.5373 -0.1050
 5198TIP3    H137153   5.612   5.747   8.345 -0.7299  0.2795 -0.3559
 5198TIP3    H237154   5.737   5.772   8.264 -0.1815  1.7490  0.8820
 5199TIP3   OH237155   2.025   1.666   0.014 -0.1132 -0.0375  0.0369
 5199TIP3    H137156   2.009   1.674   0.108  0.9394 -2.9846  0.5414
 5199TIP3    H237157   2.106   1.616   0.007 -0.2078  0.0356 -2.4545
 5200TIP3   OH237158   1.484   4.482   8.040  0.4799 -0.3350  0.3582
 5200TIP3    H137159   1.436   4.562   8.060  1.6751  0.5285 -0.1219
 5200TIP3    H237160   1.416   4.415   8.029 -0.6265  0.8598 -0.3662
 5201TIP3   OH237161   2.781   0.832   0.962  0.3920  0.1954 -0.7250
 5201TIP3    H137162   2.703   0.782   0.985  1.9426 -2.2107 -0.2458
 5201TIP3    H237163   2.797   0.889   1.037 -0.4608  0.1149 -0.4806
 5202TIP3   OH237164   3.370   3.964   7.904 -0.3485 -0.0452  0.0615
 5202TIP3    H137165   3.283   3.935   7.876 -1.1350  2.8648 -0.8599
 5202TIP3    H237166   3.378   3.934   7.994 -2.7473  0.4895  0.5064
 5203TIP3   OH237167   2.707   0.305   2.493  0.0866 -0.6369 -0.1930
 5203TIP3    H137168   2.693   0.340   2.405 -2.7140 -0.4975  0.2417
 5203TIP3    H237169   2.719   0.383   2.548  1.8346 -0.7239 -0.3707
 5204TIP3   OH237170   2.647   6.201   7.427 -0.5816  0.1759  0.2547
 5204TIP3    H137171   2.719   6.233   7.480  2.8207  2.5557 -4.9632
 5204TIP3    H237172   2.680   6.120   7.387 -0.8292  1.0063 -1.7907
 5205TIP3   OH237173   2.188   2.924   6.995  0.0350  0.3308  0.0569
 5205TIP3    H137174   2.260   2.919   6.932 -0.3894  0.1568 -0.4148
 5205TIP3    H237175   2.110   2.901   6.945 -0.8007  3.1427 -0.1357
 5206TIP3   OH237176   4.997   4.906   0.707  0.1789  0.4752  0.3003
 5206TIP3    H137177   5.051   4.981   0.681  0.8475 -0.2807 -0.5756
 5206TIP3    H237178   5.058   4.832   0.707 -0.1107  0.1597  2.7098
 5207TIP3   OH237179   6.224   2.997   1.368  0.6652  0.0025  0.1639
 5207TIP3    H137180   6.228   2.935   1.441  0.2265  1.7450  1.7493
 5207TIP3    H237181   6.253   2.946   1.292  2.1007 -1.6467  1.7010
 5208TIP3   OH237182   3.089   3.895   1.791  0.0402 -0.3332 -0.3515
 5208TIP3    H137183   3.111   3.871   1.881 -0.1548  0.2404 -0.1463
 5208TIP3    H237184   3.032   3.825   1.760 -0.7016 -0.0449  0.3136
 5209TIP3   OH237185   2.729   5.638   1.372 -0.0240 -0.1482  0.6485
 5209TIP3    H137186   2.813   5.675   1.401  1.2585 -1.8646 -0.6293
 5209TIP3    H237187   2.743   5.618   1.280 -2.1549  0.2682  0.1962
 5210TIP3   OH237188   4.955   1.875   8.731 -0.5141 -0.5116 -0.1363
 5210TIP3    H137189   5.029   1.922   8.769 -1.4633 -0.1253  1.3212
 5210TIP3    H237190   4.993   1.820   8.663  0.7539  1.7731 -1.4102
 5211TIP3   OH237191   6.199   6.759   6.711  0.3730  0.3630  0.7125
 5211TIP3    H137192   6.138   6.745   6.639  2.2595 -1.5432 -0.6334
 5211TIP3    H237193   6.144   6.794   6.782 -1.6727  1.6741 -1.3618
 5212TIP3   OH237194   5.806   2.653   8.072  0.0971  0.0849  0.3089
 5212TIP3    H137195   5.763   2.659   7.987  0.5671  0.7424  0.1102
 5212TIP3    H237196   5.765   2.721   8.125 -0.2218 -0.3478  0.6245
 5213TIP3   OH237197   2.569   2.967   0.220  0.2914 -0.0384 -0.5360
 5213TIP3    H137198   2.656   3.003   0.199 -1.0346  3.4963 -0.6127
 5213TIP3    H237199   2.524   2.963   0.136 -0.8445  1.9547 -0.0846
 5214TIP3   OH237200   1.097   0.900   1.247  0.6017  0.1639 -0.2453
 5214TIP3    H137201   1.122   0.974   1.192  0.8886 -0.0884 -0.4585
 5214TIP3    H237202   1.055   0.940   1.323  2.8927  0.7156  0.8091
 5215TIP3   OH237203   3.749   5.960   8.089  0.1509  0.2828 -0.3891
 5215TIP3    H137204   3.809   5.912   8.146 -1.3438 -1.2130 -0.0122
 5215TIP3    H237205   3.779   5.939   8.000  0.6777  0.2366 -0.2041
 5216TIP3   OH237206   0.877   0.597   8.602 -0.0249 -0.0555 -0.6754
 5216TIP3    H137207   0.909   0.594   8.511  0.1626  0.8034 -0.6400
 5216TIP3    H237208   0.822   0.519   8.609  1.4223 -1.1525 -0.9656
 5217TIP3   OH237209   0.564   4.536   0.331  0.1834 -0.5237  0.0986
 5217TIP3    H137210   0.548   4.445   0.355 -0.4085 -0.0369  1.6575
 5217TIP3    H237211   0.659   4.547   0.343  0.1798 -0.8043  0.4029
 5218TIP3   OH237212   4.222   2.613   0.729  0.2556 -0.2713  0.2192
 5218TIP3    H137213   4.204   2.534   0.780  1.1281  0.3522  1.5585
 5218TIP3    H237214   4.271   2.669   0.789  1.2922  0.5268 -1.3079
 5219TIP3   OH237215   1.519   4.387   6.556  0.2743 -0.7870  0.3957
 5219TIP3    H137216   1.474   4.361   6.475  2.4413  0.3592 -1.2880
 5219TIP3    H237217   1.490   4.322   6.620 -2.5767 -0.9618 -0.8978
 5220TIP3   OH237218   5.037   5.428   2.623 -0.3169  0.5671 -0.2799
 5220TIP3    H137219   5.058   5.349   2.672 -0.2637 -1.7204 -3.6612
 5220TIP3    H237220   4.942   5.430   2.619 -0.4318  2.0290  1.6406
 5221TIP3   OH237221   1.917   2.197   7.648 -0.5761 -0.1564  0.0830
 5221TIP3    H137222   2.010   2.197   7.668 -1.0265 -0.4814  2.3794
 5221TIP3    H237223   1.885   2.112   7.678 -1.4088 -0.6809 -2.0408
 5222TIP3   OH237224   6.242   5.373   1.467  0.4970  0.3847 -0.0279
 5222TIP3    H137225   6.250   5.461   1.430  4.0629  0.1712 -0.1333
 5222TIP3    H237226   6.252   5.386   1.562  1.1262  0.1250 -0.0510
 5223TIP3   OH237227   4.262   5.149   0.807  0.5699 -0.2319  0.1428
 5223TIP3    H137228   4.335   5.087   0.807 -0.1877 -1.1460 -0.5849
 5223TIP3    H237229   4.191   5.103   0.851 -0.9239 -1.0803 -2.8675
 5224TIP3   OH237230   6.556   0.919   1.464  0.0647  0.1678  0.0300
 5224TIP3    H137231   6.639   0.964   1.450  0.7440 -0.7126  0.9874
 5224TIP3    H237232   6.544   0.865   1.386  0.9857 -0.5491  0.3638
 5225TIP3   OH237233   1.911   1.582   6.618  0.1500 -0.1968  0.3828
 5225TIP3    H137234   1.834   1.538   6.581 -0.8623  0.6452  1.4015
 5225TIP3    H237235   1.904   1.672   6.585 -0.6493  0.5111  2.3511
 5226TIP3   OH237236   0.688   1.380   1.036 -0.2889  0.2264 -0.1704
 5226TIP3    H137237   0.620   1.313   1.046  0.2852 -0.1533  1.5906
 5226TIP3    H237238   0.759   1.350   1.093  0.4518  1.7532 -0.2459
 5227TIP3   OH237239   1.973   5.769   7.788 -0.1328 -0.5715  0.0787
 5227TIP3    H137240   1.910   5.840   7.777  0.9389  0.6732  1.5278
 5227TIP3    H237241   2.031   5.799   7.858  3.4103 -0.6299 -2.5259
 5228TIP3   OH237242   3.668   3.159   8.621 -0.7438  0.5794 -0.1758
 5228TIP3    H137243   3.602   3.127   8.682 -0.7142  0.0947 -0.3904
 5228TIP3    H237244   3.718   3.080   8.596 -1.5327  0.5351 -1.7709
 5229TIP3   OH237245   4.658   0.904   0.982  0.6347  0.9935 -0.4109
 5229TIP3    H137246   4.736   0.849   0.981 -0.3382 -0.4255 -0.4027
 5229TIP3    H237247   4.599   0.861   1.044  0.0267  2.3268 -0.0262
 5230TIP3   OH237248   3.223   3.560   1.898 -0.1745 -0.3990 -0.0334
 5230TIP3    H137249   3.195   3.637   1.946  0.1067  0.0822 -0.6232
 5230TIP3    H237250   3.199   3.486   1.953 -0.5127  0.1107  0.5013
 5231TIP3   OH237251   5.812   6.102   2.225 -0.4156 -0.3034 -0.0882
 5231TIP3    H137252   5.732   6.113   2.276  0.1639  0.6375  0.6548
 5231TIP3    H237253   5.869   6.173   2.254  0.3759 -0.4451 -1.2197
 5232TIP3   OH237254   5.263   4.585   2.908 -0.0032 -0.2342 -0.1779
 5232TIP3    H137255   5.306   4.574   2.823 -0.3804 -0.7568 -0.3043
 5232TIP3    H237256   5.278   4.503   2.954  0.8972  0.3390  0.5929
 5233TIP3   OH237257   6.606   3.724   1.501 -0.5053  0.2706  0.6201
 5233TIP3    H137258   6.574   3.655   1.442  2.1810 -1.6590  1.2501
 5233TIP3    H237259   6.552   3.716   1.579  1.4470 -3.1341  1.8058
 5234TIP3   OH237260   1.939   2.600   2.186 -0.1370  0.4106 -0.4139
 5234TIP3    H137261   1.973   2.684   2.156  1.9051  0.0278  0.7187
 5234TIP3    H237262   1.942   2.605   2.282 -0.4297 -0.7970 -0.3264
 5235TIP3   OH237263   3.338   0.744   7.973  0.4688 -0.0149  1.1799
 5235TIP3    H137264   3.350   0.827   7.927 -1.3299  0.3329  1.2662
 5235TIP3    H237265   3.311   0.683   7.904  0.6192 -0.2388  1.3173
 5236TIP3   OH237266   4.139   4.214   0.931  0.5405 -0.3988 -0.3336
 5236TIP3    H137267   4.051   4.246   0.951  0.9268  0.2540  0.3450
 5236TIP3    H237268   4.147   4.224   0.836  1.3725  3.5885 -0.0132
 5237TIP3   OH237269   2.713   3.661   2.395 -0.2587 -0.7513 -0.2744
 5237TIP3    H137270   2.729   3.750   2.424 -1.7297 -0.7172  0.5605
 5237TIP3    H237271   2.618   3.649   2.404 -0.2319 -2.0833 -1.2902
 5238TIP3   OH237272   0.459   3.022   2.183 -0.0583  0.1719  0.1320
 5238TIP3    H137273   0.421   3.059   2.103 -0.5738 -0.6801 -0.0315
 5238TIP3    H237274   0.391   2.963   2.216  1.1470 -1.4837 -0.2352
 5239TIP3   OH237275   4.321   6.342   1.510 -0.3860  0.4736 -0.0729
 5239TIP3    H137276   4.261   6.394   1.564  0.1400 -0.7518  1.7953
 5239TIP3    H237277   4.270   6.264   1.487 -0.5867  0.9629 -1.3625
 5240TIP3   OH237278   3.675   2.084   0.896  0.0317  0.2605 -0.4493
 5240TIP3    H137279   3.669   2.115   0.987 -0.2987  1.9874 -1.0069
 5240TIP3    H237280   3.764   2.108   0.868 -0.0578  0.2498 -0.7512
 5241TIP3   OH237281   6.410   1.765   7.414  0.1043 -0.3709 -0.7088
 5241TIP3    H137282   6.407   1.825   7.488 -0.4649 -1.1992 -0.0319
 5241TIP3    H237283   6.496   1.778   7.375  1.0830 -1.0854  1.1218
 5242TIP3   OH237284   2.090   3.475   7.430  0.4065  0.1262 -0.4587
 5242TIP3    H137285   2.166   3.416   7.422  1.4893  1.5528 -1.0249
 5242TIP3    H237286   2.022   3.421   7.471  1.8547 -1.0674  0.4623
 5243TIP3   OH237287   4.199   1.489   8.437 -0.0388 -0.0718 -0.2620
 5243TIP3    H137288   4.272   1.476   8.376 -1.4090  1.1058 -2.2805
 5243TIP3    H237289   4.150   1.562   8.400 -1.1081  0.5543  2.1741
 5244TIP3   OH237290   4.433   4.333   7.636 -0.7211  0.1607 -0.2471
 5244TIP3    H137291   4.524   4.305   7.633 -0.5504  0.7512 -1.0750
 5244TIP3    H237292   4.383   4.252   7.645 -0.0560 -0.0570  2.9699
 5245TIP3   OH237293   0.410   0.105   8.032  0.1252 -0.0190  0.5290
 5245TIP3    H137294   0.414   0.018   8.070  0.0412 -0.6175 -0.7966
 5245TIP3    H237295   0.466   0.101   7.955 -0.6746  0.7903 -0.1274
 5246TIP3   OH237296   1.484   0.417   6.747 -0.2032 -0.0795 -1.0230
 5246TIP3    H137297   1.389   0.419   6.737 -0.2773 -0.4908 -0.4207
 5246TIP3    H237298   1.499   0.371   6.829  0.4171  2.9738  0.6936
 5247TIP3   OH237299   6.368   1.975   0.527 -0.0811 -0.3927 -0.0254
 5247TIP3    H137300   6.407   2.014   0.449 -0.1354 -0.0331  0.1243
 5247TIP3    H237301   6.443   1.949   0.580 -0.0131  0.8535  0.5401
 5248TIP3   OH237302   1.978   0.655   8.777 -0.0468  0.9430  0.3073
 5248TIP3    H137303   1.992   0.729   8.835  1.4190  1.3963 -0.5660
 5248TIP3    H237304   2.006   0.686   8.691 -0.2056 -0.3558 -0.2425
 5249TIP3   OH237305   6.198   2.917   8.702 -0.0441 -0.6013  0.1274
 5249TIP3    H137306   6.132   2.848   8.698 -0.1070 -0.5248 -0.1863
 5249TIP3    H237307   6.185   2.959   8.787 -0.9590 -0.0343 -0.2823
 5250TIP3   OH237308   4.944   0.859   8.821  0.1162 -0.0470 -0.7296
 5250TIP3    H137309   4.997   0.883   8.745  0.4350  1.1602 -0.1509
 5250TIP3    H237310   4.855   0.883   8.797 -0.0630 -1.3056 -1.3844
 5251TIP3   OH237311   3.639   5.586   2.008 -0.0625 -0.0001 -0.1538
 5251TIP3    H137312   3.643   5.581   1.913 -0.1787  0.3913 -0.1833
 5251TIP3    H237313   3.620   5.497   2.037 -0.5456 -0.0248 -0.5300
 5252TIP3   OH237314   4.304   4.404   0.418 -0.9507  0.1629  0.1220
 5252TIP3    H137315   4.237   4.335   0.424  0.7134 -1.4756  1.3959
 5252TIP3    H237316   4.291   4.457   0.497  0.4852 -1.4689  1.5523
 5253TIP3   OH237317   0.548   1.608   1.121 -0.4165 -0.5501  0.1177
 5253TIP3    H137318   0.625   1.615   1.178  0.6592  2.2960 -1.5060
 5253TIP3    H237319   0.554   1.520   1.084  1.2390 -0.9192  1.1380
 5254TIP3   OH237320   0.448   3.053   1.583 -0.4689  0.1833  0.1577
 5254TIP3    H137321   0.432   2.995   1.657 -0.6762  0.2595  0.1722
 5254TIP3    H237322   0.507   3.120   1.618  0.8233 -0.7234 -0.1867
 5255TIP3   OH237323   6.761   6.551   1.877  0.1459  0.5270 -0.4896
 5255TIP3    H137324   6.790   6.539   1.968  2.1480 -0.3125 -1.1898
 5255TIP3    H237325   6.757   6.646   1.866  1.0100  0.6513  0.1533
 5256TIP3   OH237326   4.437   2.023   1.633 -0.5308 -0.1088 -0.0220
 5256TIP3    H137327   4.394   1.957   1.688 -1.7325 -0.0353 -0.8491
 5256TIP3    H237328   4.522   2.038   1.676 -1.3574 -0.1877  1.7079
 5257TIP3   OH237329   4.874   5.203   0.635  0.1959  0.0286  0.6586
 5257TIP3    H137330   4.960   5.185   0.672  1.5005  1.9884 -1.1822
 5257TIP3    H237331   4.858   5.132   0.573  0.2628 -0.5654  1.3082
 5258TIP3   OH237332   4.488   2.597   0.975  0.8146  0.5485  0.0414
 5258TIP3    H137333   4.405   2.619   1.016  1.3977  2.1518  0.4414
 5258TIP3    H237334   4.475   2.509   0.939 -0.4646  0.0520  1.6211
 5259TIP3   OH237335   2.380   3.275   1.925  0.2577  0.1425 -0.3853
 5259TIP3    H137336   2.467   3.237   1.915  0.1703 -0.5975  1.3652
 5259TIP3    H237337   2.395   3.365   1.953  0.4989 -0.2692  0.8881
 5260TIP3   OH237338   5.334   5.926   0.296  0.5308  0.4882  0.6704
 5260TIP3    H137339   5.331   5.858   0.363 -2.1609 -1.9944 -1.6569
 5260TIP3    H237340   5.415   5.908   0.248  0.2349 -0.6720  0.5644
 5261TIP3   OH237341   6.125   0.306   1.550 -0.1096 -0.0536  0.8602
 5261TIP3    H137342   6.166   0.351   1.624 -0.4573  1.6387  0.0791
 5261TIP3    H237343   6.119   0.215   1.578  0.1631  0.4532  2.7443
 5262TIP3   OH237344   3.281   6.619   1.859 -0.3522 -0.3803 -0.2446
 5262TIP3    H137345   3.237   6.637   1.942 -0.0915 -0.5197 -0.0719
 5262TIP3    H237346   3.225   6.658   1.793 -0.2637  0.2590  0.0449
 5263TIP3   OH237347   6.516   0.287   8.744  0.1959 -0.5091 -0.6040
 5263TIP3    H137348   6.585   0.238   8.698  1.2004 -0.3279  0.6668
 5263TIP3    H237349   6.531   0.268   8.837 -1.1533 -0.0312 -0.2697
 5264TIP3   OH237350   0.679   5.671   7.915  0.1870 -0.1216 -0.7646
 5264TIP3    H137351   0.704   5.750   7.964  0.7555 -0.3546 -0.6758
 5264TIP3    H237352   0.746   5.607   7.937 -0.6032 -0.8241 -0.3732
 5265TIP3   OH237353   3.932   2.737   8.011  0.0411 -0.5895 -0.1042
 5265TIP3    H137354   3.911   2.828   7.990  0.9197 -0.4582 -0.4646
 5265TIP3    H237355   4.005   2.716   7.953 -0.8419 -1.8751 -0.8059
 5266TIP3   OH237356   3.275   1.429   8.290  0.0182 -0.4969 -0.2134
 5266TIP3    H137357   3.256   1.522   8.302 -0.9796 -0.5228 -1.3919
 5266TIP3    H237358   3.241   1.387   8.368  0.2102  0.0922  0.1904
 5267TIP3   OH237359   3.690   4.514   7.378  0.7155  0.4453 -0.2271
 5267TIP3    H137360   3.722   4.435   7.334  0.2737  0.1017  0.0660
 5267TIP3    H237361   3.713   4.585   7.318  1.4384  0.1409 -0.3267
 5268TIP3   OH237362   2.581   5.925   1.951  0.2355 -0.2485  0.1723
 5268TIP3    H137363   2.609   5.997   2.008  0.6301 -0.6610  0.5099
 5268TIP3    H237364   2.616   5.846   1.993 -0.1296 -0.6322 -0.2315
 5269TIP3   OH237365   1.971   5.495   1.682  0.0690  0.0838  0.4000
 5269TIP3    H137366   1.985   5.557   1.754 -2.0910  1.6723 -0.4219
 5269TIP3    H237367   1.908   5.539   1.625 -0.9155 -2.5408 -0.7004
 5270TIP3   OH237368   6.685   3.861   8.739  0.0880  0.9849  0.6082
 5270TIP3    H137369   6.745   3.871   8.813 -1.7826  1.2217  2.1759
 5270TIP3    H237370   6.719   3.785   8.691  1.8597  1.3685  1.1573
 5271TIP3   OH237371   5.939   2.732   1.822 -0.1530 -0.5438 -0.0905
 5271TIP3    H137372   6.030   2.758   1.805  0.0046 -1.5375 -0.8742
 5271TIP3    H237373   5.908   2.795   1.887  0.7722  0.4304 -0.5552
 5272TIP3   OH237374   6.406   5.296   8.644  0.1643 -0.0731 -0.4934
 5272TIP3    H137375   6.501   5.290   8.632 -0.0932 -2.5896 -2.0459
 5272TIP3    H237376   6.372   5.324   8.559 -0.4968  1.6609  0.2873
 5273TIP3   OH237377   4.428   0.915   8.108  0.6360 -0.5270 -0.6079
 5273TIP3    H137378   4.499   0.976   8.090 -0.6220  0.8869 -0.9096
 5273TIP3    H237379   4.350   0.957   8.073 -0.1579 -2.7463 -1.7160
 5274TIP3   OH237380   1.499   2.966   0.809 -0.8397 -0.0190 -0.3218
 5274TIP3    H137381   1.478   2.877   0.835 -0.4271  0.7646  3.1293
 5274TIP3    H237382   1.433   3.021   0.851  0.5906  1.5035  0.0725
 5275TIP3   OH237383   4.539   6.116   1.789 -0.4931  0.0506  0.1102
 5275TIP3    H137384   4.503   6.064   1.717 -0.3777  0.0492  0.0546
 5275TIP3    H237385   4.522   6.062   1.867  0.4160 -0.4777 -0.0493
 5276TIP3   OH237386   2.257   4.714   7.536 -0.2362  0.0934  0.0832
 5276TIP3    H137387   2.238   4.722   7.443  0.7323  0.8838 -0.0687
 5276TIP3    H237388   2.344   4.676   7.540 -0.6276 -0.7768  0.6971
 5277TIP3   OH237389   3.299   6.096   1.839 -0.2437 -0.0671 -0.3612
 5277TIP3    H137390   3.257   6.128   1.759 -0.2985  2.4980  0.6030
 5277TIP3    H237391   3.371   6.041   1.808 -0.7978  0.1463 -2.1469
 5278TIP3   OH237392   5.281   0.641   7.803 -0.5004 -0.0761 -0.2434
 5278TIP3    H137393   5.372   0.628   7.775 -0.3590  1.6935 -0.6883
 5278TIP3    H237394   5.251   0.553   7.828  1.0694 -0.8168 -0.8484
 5279TIP3   OH237395   5.987   4.576   2.780  0.3897  0.1443 -0.4008
 5279TIP3    H137396   5.912   4.521   2.801 -0.1403  0.8799 -0.3062
 5279TIP3    H237397   5.974   4.655   2.832  2.3545 -0.5610  1.2843
 5280TIP3   OH237398   3.875   6.525   1.021 -0.0370 -0.0280  0.6277
 5280TIP3    H137399   3.785   6.536   1.050  0.2392  2.5684  0.7800
 5280TIP3    H237400   3.878   6.568   0.935  1.0137 -0.2396  0.5415
 5281TIP3   OH237401   0.025   4.654   2.778 -0.2954  0.1270 -0.3673
 5281TIP3    H137402   0.083   4.689   2.845  0.1746 -0.6581 -0.3523
 5281TIP3    H237403  -0.040   4.723   2.764 -0.4422  0.2807  0.9289
 5282TIP3   OH237404   2.380   2.235   8.352 -0.1103 -0.3403 -0.2084
 5282TIP3    H137405   2.337   2.166   8.300  0.0137  0.4502 -1.3879
 5282TIP3    H237406   2.331   2.314   8.331  2.1789  0.7081 -2.0040
 5283TIP3   OH237407   5.941   0.798   0.373 -0.1633  0.2196  0.0049
 5283TIP3    H137408   5.853   0.809   0.410 -0.7037  1.2022 -1.4760
 5283TIP3    H237409   5.925   0.765   0.284  0.9078  1.4213 -0.6630
 5284TIP3   OH237410   1.151   3.552   0.476 -0.3967 -0.4699 -0.1198
 5284TIP3    H137411   1.151   3.461   0.446  0.8076 -0.5612  0.0775
 5284TIP3    H237412   1.168   3.603   0.398  3.5223 -0.7546  0.3135
 5285TIP3   OH237413   5.689   2.610   1.797 -0.1017  0.1065  0.2852
 5285TIP3    H137414   5.773   2.653   1.781 -0.7413  0.7820 -1.5547
 5285TIP3    H237415   5.712   2.522   1.827  1.2334  1.0036  2.1271
 5286TIP3   OH237416   6.166   0.123   1.051  0.2683 -0.2245  0.1094
 5286TIP3    H137417   6.116   0.089   0.977 -0.4623 -1.1561  1.0124
 5286TIP3    H237418   6.254   0.137   1.015 -0.1334 -0.3873 -0.9958
 5287TIP3   OH237419   3.795   0.678   8.208  0.4625 -0.2494 -0.5844
 5287TIP3    H137420   3.788   0.650   8.116 -0.2106  1.5076 -1.0971
 5287TIP3    H237421   3.789   0.773   8.205  0.0399 -0.1765  1.3286
 5288TIP3   OH237422   6.451   2.777   0.097 -0.0991  0.0362  0.4973
 5288TIP3    H137423   6.463   2.831   0.175 -1.0454 -0.4015  0.9587
 5288TIP3    H237424   6.413   2.837   0.032  0.7680  0.4215  0.3374
 5289TIP3   OH237425   0.458   0.410   8.816 -0.3090 -0.1779 -0.5814
 5289TIP3    H137426   0.477   0.502   8.837  1.1642 -0.1498 -1.8467
 5289TIP3    H237427   0.363   0.404   8.815 -0.4250  1.4230 -0.8435
 5290TIP3   OH237428   4.474   2.948   7.187 -0.1154 -0.2165 -0.7044
 5290TIP3    H137429   4.500   2.902   7.108 -1.7805 -1.1543 -0.7464
 5290TIP3    H237430   4.519   2.902   7.258  0.8661  0.2258 -1.0165
 5291TIP3   OH237431   2.114   2.633   1.194 -0.0851  0.0361  0.0460
 5291TIP3    H137432   2.181   2.570   1.222 -0.6136 -0.5517  0.0135
 5291TIP3    H237433   2.095   2.685   1.271 -0.0800 -0.2505  0.2414
 5292TIP3   OH237434   0.507   4.312   8.372 -0.7000  0.1876 -0.7492
 5292TIP3    H137435   0.503   4.386   8.433 -0.3854 -0.0275 -0.4637
 5292TIP3    H237436   0.588   4.325   8.324 -0.4463 -0.1792 -0.4268
 5293TIP3   OH237437   0.153   4.058   8.316  0.3862 -0.1435  0.3101
 5293TIP3    H137438   0.116   4.076   8.402  1.6474  0.0580  0.8279
 5293TIP3    H237439   0.085   4.009   8.270 -0.1764 -0.5451  1.5423
 5294TIP3   OH237440   6.167   0.659   8.731 -0.1811  0.3825 -0.1708
 5294TIP3    H137441   6.140   0.607   8.656  0.3634 -0.8113  0.4304
 5294TIP3    H237442   6.169   0.597   8.804  2.9652  0.6354  0.0694
 5295TIP3   OH237443   5.129   2.799   7.766 -0.7184 -0.1767 -0.4074
 5295TIP3    H137444   5.097   2.716   7.801 -0.9350 -1.4061 -3.2990
 5295TIP3    H237445   5.079   2.813   7.686  0.0845  2.2135 -0.5812
 5296TIP3   OH237446   0.403   0.253   0.306  0.7326 -0.0844  0.3081
 5296TIP3    H137447   0.462   0.275   0.234  1.3296  1.5074  1.2471
 5296TIP3    H237448   0.352   0.179   0.272  0.8579  0.7220 -1.8197
 5297TIP3   OH237449   3.037   5.494   0.869 -0.6016 -0.3302  0.4295
 5297TIP3    H137450   3.022   5.438   0.792  0.1606 -1.1347  0.8510
 5297TIP3    H237451   3.063   5.434   0.938 -0.4135  0.4856  1.0867
 5298TIP3   OH237452   3.786   0.752   8.476  0.1207  0.1839 -0.6141
 5298TIP3    H137453   3.691   0.757   8.487  0.1931 -0.0237  0.1480
 5298TIP3    H237454   3.798   0.712   8.389 -0.4891 -0.7364 -0.2926
 5299TIP3   OH237455   3.970   6.793   8.113  0.0758 -0.1623 -0.3284
 5299TIP3    H137456   3.935   6.882   8.116  0.9324  0.1546  1.0853
 5299TIP3    H237457   4.056   6.803   8.071  0.5748 -0.1610  0.6722
 5300TIP3   OH237458   5.609   2.302   1.290  0.0880  0.1862  1.1594
 5300TIP3    H137459   5.674   2.372   1.291  0.1668  0.1446 -0.0481
 5300TIP3    H237460   5.660   2.221   1.284 -0.0661  0.1376  0.4888
 5301TIP3   OH237461   5.080   2.249   1.869 -0.4842  0.0954  1.0534
 5301TIP3    H137462   4.991   2.281   1.854 -1.0253 -0.8801  2.0589
 5301TIP3    H237463   5.127   2.325   1.906 -1.2948  0.2125  1.8682
 5302TIP3   OH237464   5.046   4.548   7.493 -0.6688  0.0574  0.0096
 5302TIP3    H137465   4.983   4.513   7.430  0.7490  0.5382 -1.7683
 5302TIP3    H237466   5.039   4.643   7.485  1.1316  0.1446 -1.2135
 5303TIP3   OH237467   4.118   0.022   1.758  0.4513 -0.0642  0.3359
 5303TIP3    H137468   4.108   0.058   1.846  0.0039 -1.1406  0.7386
 5303TIP3    H237469   4.049  -0.044   1.751  0.6139 -0.1366 -0.7490
 5304TIP3   OH237470   4.128   1.477   2.849  0.2178 -0.5099 -0.2528
 5304TIP3    H137471   4.163   1.436   2.928  0.8161 -1.7408 -1.1272
 5304TIP3    H237472   4.075   1.409   2.808  0.8229 -0.2674 -1.4923
 5305TIP3   OH237473   3.949   1.488   2.208 -0.3607  0.4379 -0.0594
 5305TIP3    H137474   3.970   1.573   2.246  0.5709 -0.2110  0.9476
 5305TIP3    H237475   3.854   1.481   2.217 -0.1672  0.1173  2.7329
 5306TIP3   OH237476   2.318   5.701   0.819 -0.0808  0.1391 -0.7598
 5306TIP3    H137477   2.235   5.719   0.774 -1.3605  0.1045  1.4475
 5306TIP3    H237478   2.350   5.787   0.846 -1.8113 -0.0301  2.3113
 5307TIP3   OH237479   4.757   2.423   7.763 -0.1475 -0.3668  0.2822
 5307TIP3    H137480   4.800   2.395   7.682 -3.8637 -4.0492 -0.8077
 5307TIP3    H237481   4.707   2.501   7.738 -2.0251 -2.0012 -1.4702
 5308TIP3   OH237482   4.196   6.219   1.865  0.5571  0.3759  0.4166
 5308TIP3    H137483   4.191   6.307   1.828  1.4735  0.0138 -0.6099
 5308TIP3    H237484   4.254   6.229   1.941 -3.1711  1.6031  3.4038
 5309TIP3   OH237485   4.787   3.057   7.342 -0.1084  0.4530 -0.5504
 5309TIP3    H137486   4.841   3.114   7.287 -1.0615 -0.0812 -2.1121
 5309TIP3    H237487   4.806   2.968   7.310 -1.0010  0.1728 -0.3315
 5310TIP3   OH237488   3.570   1.620   2.827 -0.0254  0.2970 -0.2015
 5310TIP3    H137489   3.622   1.691   2.789 -0.2215 -0.0647 -1.1804
 5310TIP3    H237490   3.488   1.661   2.852 -0.4586  0.2914 -1.5137
 5311TIP3   OH237491   0.914   1.187   7.510  0.3105 -0.1474  0.3835
 5311TIP3    H137492   0.972   1.233   7.571  0.0013  0.0348  0.5459
 5311TIP3    H237493   0.916   1.096   7.538  1.4307 -0.3552 -0.3350
 5312TIP3   OH237494   1.882   1.974   8.647 -0.5962 -0.1231 -0.1460
 5312TIP3    H137495   1.844   1.889   8.624  1.7310 -1.3103  0.1334
 5312TIP3    H237496   1.958   1.952   8.701 -0.6945  2.2197  1.0331
 5313TIP3   OH237497   5.499   3.850   0.197  0.0017 -0.1920 -0.1618
 5313TIP3    H137498   5.446   3.905   0.140  0.2536  0.9623  0.6819
 5313TIP3    H237499   5.470   3.761   0.178 -1.1654  0.2980 -0.8007
 5314TIP3   OH237500   4.031   3.086   1.297 -0.0846 -0.4395 -0.9037
 5314TIP3    H137501   3.947   3.042   1.305  0.2835 -1.1863 -1.0425
 5314TIP3    H237502   4.017   3.152   1.228 -1.0639  0.7345  0.3676
 5315TIP3   OH237503   2.547   5.395   8.410 -0.2737  0.0564  0.2803
 5315TIP3    H137504   2.642   5.398   8.420 -0.3882 -0.5330  1.7115
 5315TIP3    H237505   2.518   5.327   8.471 -1.6045  0.0952 -0.2627
 5316TIP3   OH237506   4.333   5.660   0.597  0.3868 -0.0889  0.3260
 5316TIP3    H137507   4.359   5.602   0.526  1.3337 -0.4740  0.9565
 5316TIP3    H237508   4.240   5.642   0.611  0.6274 -1.3618  0.4106
 5317TIP3   OH237509   3.211   5.861   0.243 -0.3074  0.0841  0.4172
 5317TIP3    H137510   3.158   5.927   0.200 -1.6839 -0.7264  0.8157
 5317TIP3    H237511   3.218   5.891   0.334  0.9425  0.7835  0.1199
 5318TIP3   OH237512   0.089   2.613   8.061 -0.0818 -0.3870 -0.0182
 5318TIP3    H137513  -0.002   2.584   8.055  0.2435 -2.0420  1.9979
 5318TIP3    H237514   0.129   2.583   7.979  0.0052 -5.2038  1.4862
 5319TIP3   OH237515   5.984   3.102   1.200  0.1476 -0.0718  0.3265
 5319TIP3    H137516   6.019   3.166   1.262  1.9549  0.7869 -1.4558
 5319TIP3    H237517   5.958   3.028   1.254 -0.6819  1.5750  2.3302
 5320TIP3   OH237518   6.356   1.945   3.072 -0.4225 -0.4948  0.3344
 5320TIP3    H137519   6.271   1.973   3.038 -0.6965  0.3883  1.6799
 5320TIP3    H237520   6.336   1.896   3.151  0.2967 -0.9408  0.2525
 5321TIP3   OH237521   1.825   4.002   8.630 -0.2988 -0.2514 -0.6080
 5321TIP3    H137522   1.773   4.039   8.558 -0.5647 -1.5694 -1.1241
 5321TIP3    H237523   1.760   3.974   8.694 -0.4291 -3.1803 -1.8550
 5322TIP3   OH237524   3.086   4.718   2.662 -0.3110  0.1296 -0.0109
 5322TIP3    H137525   3.109   4.706   2.754 -0.6755 -1.6200 -0.1199
 5322TIP3    H237526   3.031   4.643   2.641  0.5528 -0.0372 -1.9163
 5323TIP3   OH237527   2.326   1.567   1.199 -0.6373  0.0516 -0.0625
 5323TIP3    H137528   2.260   1.508   1.237 -1.3564  0.6328 -0.3730
 5323TIP3    H237529   2.322   1.646   1.252  0.2606 -0.1412  0.2967
 5324TIP3   OH237530   0.149   6.671   8.019 -0.0572  0.0645 -0.4146
 5324TIP3    H137531   0.195   6.731   7.960  0.7662 -1.4280 -1.3418
 5324TIP3    H237532   0.083   6.629   7.964 -0.5870  0.0595  0.2125
 5325TIP3   OH237533   2.816   1.107   7.435 -0.2674  0.5581 -0.3140
 5325TIP3    H137534   2.906   1.138   7.429 -0.0616  0.1055  0.3448
 5325TIP3    H237535   2.776   1.134   7.352  0.3447  1.1545 -0.4203
 5326TIP3   OH237536   4.183   1.618   7.110 -0.3467  0.6956 -0.5574
 5326TIP3    H137537   4.225   1.695   7.071  0.1429  1.1443  0.7936
 5326TIP3    H237538   4.104   1.652   7.151 -0.0902  0.5123  0.1126
 5327TIP3   OH237539   5.320   1.085   1.358 -0.6063  0.8964 -0.4885
 5327TIP3    H137540   5.321   1.160   1.299  0.1763  0.0494 -1.6099
 5327TIP3    H237541   5.238   1.040   1.339  0.6290 -0.6683 -2.7543
 5328TIP3   OH237542   4.225   5.630   7.485 -0.3124  0.0793  0.4699
 5328TIP3    H137543   4.281   5.659   7.414  1.0790 -0.1773  1.4208
 5328TIP3    H237544   4.284   5.583   7.545 -1.8462 -1.7006  0.6782
 5329TIP3   OH237545   1.397   6.583   2.555 -0.3155  0.0841  0.1596
 5329TIP3    H137546   1.473   6.533   2.527 -0.9222 -1.4805  1.2070
 5329TIP3    H237547   1.416   6.606   2.647 -0.8622  0.1766  0.2521
 5330TIP3   OH237548   0.551   3.822   1.065 -0.0162  0.0137  0.2646
 5330TIP3    H137549   0.470   3.873   1.068 -0.0356  0.0850 -0.9252
 5330TIP3    H237550   0.522   3.732   1.051  0.1189  0.2099 -1.5037
 5331TIP3   OH237551   0.956   3.663   7.320 -0.3253  0.6193 -0.1609
 5331TIP3    H137552   0.909   3.630   7.244  1.1928 -1.2935 -0.3495
 5331TIP3    H237553   0.888   3.676   7.386 -1.3708 -0.1031 -1.0571
 5332TIP3   OH237554   4.873   5.473   0.695  0.2753  0.4719  0.0681
 5332TIP3    H137555   4.862   5.378   0.689 -0.8474  0.6121 -0.4451
 5332TIP3    H237556   4.961   5.489   0.661 -0.3132 -0.1977 -1.9313
 5333TIP3   OH237557   0.676   2.956   1.875  0.0277 -0.2702 -0.3985
 5333TIP3    H137558   0.733   2.913   1.938  1.7113 -1.9841 -2.9107
 5333TIP3    H237559   0.605   2.893   1.860 -0.7818  0.4519  0.2842
 5334TIP3   OH237560   1.128   1.512   8.663 -0.6124  0.3618 -0.4491
 5334TIP3    H137561   1.130   1.451   8.736 -0.3754  0.4473 -0.3855
 5334TIP3    H237562   1.034   1.530   8.649 -0.6350  0.7113  0.1345
 5335TIP3   OH237563   0.960   4.250   0.302 -0.3906 -0.6038 -0.2640
 5335TIP3    H137564   0.923   4.239   0.389  0.3713 -0.8868  0.0257
 5335TIP3    H237565   0.904   4.197   0.246 -2.0282  1.0229 -0.2829
 5336TIP3   OH237566   2.024   6.153   1.092  0.2739 -0.2370  0.2306
 5336TIP3    H137567   2.058   6.125   1.177  2.2532 -0.1062 -0.4567
 5336TIP3    H237568   2.046   6.246   1.087 -4.1475  1.1075  1.5120
 5337TIP3   OH237569   4.386   1.441   0.893 -0.2380  0.3827  0.1528
 5337TIP3    H137570   4.383   1.469   0.802  0.0895  2.6742  0.8030
 5337TIP3    H237571   4.480   1.428   0.911  0.0093  2.7170  0.8913
 5338TIP3   OH237572   0.836   0.828   6.596 -0.0524 -0.3996 -0.0644
 5338TIP3    H137573   0.841   0.737   6.624 -0.5982 -0.4119  0.0031
 5338TIP3    H237574   0.927   0.856   6.587  0.1277 -1.2482 -1.0679
 5339TIP3   OH237575   0.055   4.115   0.009  0.3845  0.1385 -0.5199
 5339TIP3    H137576   0.070   4.084   0.098 -2.3122  0.1788  0.0139
 5339TIP3    H237577   0.031   4.207   0.019  0.9441  0.3861 -1.3817
 5340TIP3   OH237578   1.272   5.865   7.341  0.2961 -0.3097 -0.1136
 5340TIP3    H137579   1.366   5.880   7.326  0.3818  0.4063  0.9817
 5340TIP3    H237580   1.230   5.894   7.260  1.0063 -0.4008 -0.5241
 5341TIP3   OH237581   6.683   2.678   7.012 -0.2283 -0.2446  0.0819
 5341TIP3    H137582   6.719   2.753   6.965 -1.7924  1.6115  1.6633
 5341TIP3    H237583   6.757   2.640   7.058  0.3278  1.3876  0.5828
 5342TIP3   OH237584   4.810   5.042   0.437  0.3406 -0.3973 -0.0649
 5342TIP3    H137585   4.850   5.045   0.350  0.3699 -0.1659 -0.0459
 5342TIP3    H237586   4.792   4.949   0.453 -3.3278 -0.1821 -1.9620
 5343TIP3   OH237587   5.118   0.833   7.696 -0.8307  0.0963 -0.1915
 5343TIP3    H137588   5.140   0.926   7.703 -1.6383  0.2004  1.5410
 5343TIP3    H237589   5.197   0.787   7.722 -0.3069  0.2628 -1.4154
 5344TIP3   OH237590   2.172   2.559   8.584  0.2079  0.6377  0.1294
 5344TIP3    H137591   2.217   2.616   8.521 -0.6874  0.1040 -1.0317
 5344TIP3    H237592   2.103   2.614   8.620  0.7000  0.9336  0.6453
 5345TIP3   OH237593   2.537   4.655   1.570 -0.2383  0.6896  0.3339
 5345TIP3    H137594   2.458   4.604   1.585  0.4455 -0.5243 -0.1114
 5345TIP3    H237595   2.596   4.631   1.641 -0.3956  1.9185  0.9181
 5346TIP3   OH237596   3.172   0.091   2.702 -0.0128 -0.1682  0.7163
 5346TIP3    H137597   3.165   0.111   2.795 -0.2506  1.0389  0.4483
 5346TIP3    H237598   3.264   0.068   2.689  0.0094 -0.3874  1.2494
 5347TIP3   OH237599   4.238   0.197   1.071  0.4217 -0.5584 -0.3640
 5347TIP3    H137600   4.271   0.138   1.004  1.1956 -0.9337  0.3269
 5347TIP3    H237601   4.298   0.272   1.069 -1.2291  0.8069 -2.0391
 5348TIP3   OH237602   4.761   4.915   1.313 -0.8369  0.6203 -0.4007
 5348TIP3    H137603   4.695   4.960   1.365 -1.6264 -0.5426 -0.3573
 5348TIP3    H237604   4.722   4.908   1.226 -0.5973  0.3116 -0.4849
 5349TIP3   OH237605   5.859   6.037   7.818  0.0379  0.0719 -0.4257
 5349TIP3    H137606   5.826   6.081   7.896 -0.3875 -0.0701 -0.5232
 5349TIP3    H237607   5.840   6.096   7.746  2.5039  1.2858 -0.1870
 5350TIP3   OH237608   5.828   1.291   1.999  0.1843 -0.1196  0.0732
 5350TIP3    H137609   5.788   1.347   2.065  0.1124  0.6630 -0.6098
 5350TIP3    H237610   5.830   1.345   1.920  1.4954 -0.5565 -0.2207
 5351TIP3   OH237611   2.203   4.536   1.237  0.5243  0.0697 -0.3215
 5351TIP3    H137612   2.134   4.599   1.216  0.6879  0.5036  0.4085
 5351TIP3    H237613   2.285   4.585   1.223  0.6405  0.6995  2.1578
 5352TIP3   OH237614   6.483   3.035   1.673 -0.5590  0.1797 -0.2635
 5352TIP3    H137615   6.467   2.964   1.735 -0.4989  2.4258  2.5882
 5352TIP3    H237616   6.572   3.019   1.640 -0.0361 -0.4253  1.3315
 5353TIP3   OH237617   2.216   6.632   7.559 -0.2427 -0.1623 -0.2239
 5353TIP3    H137618   2.213   6.680   7.476 -0.8225 -0.9559 -0.6627
 5353TIP3    H237619   2.261   6.550   7.538 -2.4421 -1.4224 -0.3176
 5354TIP3   OH237620   5.617   4.744   8.671  0.8607 -0.2590  0.4735
 5354TIP3    H137621   5.560   4.732   8.747 -1.4392  0.2259 -1.0774
 5354TIP3    H237622   5.655   4.831   8.682 -1.6844  1.0387 -0.2293
 5355TIP3   OH237623   0.849   1.164   7.941 -0.1431 -0.5091  0.2703
 5355TIP3    H137624   0.809   1.157   7.855  0.7801 -1.7316 -0.0917
 5355TIP3    H237625   0.811   1.092   7.991 -3.6586  2.3782  2.2553
 5356TIP3   OH237626   1.867   5.856   1.061 -0.4820 -0.0489  0.2123
 5356TIP3    H137627   1.802   5.798   1.102  1.6706 -3.7702 -1.0848
 5356TIP3    H237628   1.934   5.867   1.128 -1.4340  2.1857  0.8847
 5357TIP3   OH237629   1.800   4.535   0.983  0.4193 -0.3222  0.3236
 5357TIP3    H137630   1.728   4.503   0.927  2.5058 -0.9046 -2.2465
 5357TIP3    H237631   1.774   4.624   1.006 -1.4444 -0.7543  0.0575
 5358TIP3   OH237632   3.633   1.779   8.275 -0.1137  0.2567  0.1729
 5358TIP3    H137633   3.633   1.867   8.238  1.2007  0.9495  1.6770
 5358TIP3    H237634   3.669   1.724   8.206  0.3587  1.1381 -0.3067
 5359TIP3   OH237635   5.043   5.653   8.625 -0.3451  0.2490  0.0303
 5359TIP3    H137636   5.126   5.605   8.619 -1.1651 -1.0845 -1.6646
 5359TIP3    H237637   4.996   5.612   8.697 -0.6920 -1.0132 -0.8745
 5360TIP3   OH237638   6.047   1.162   8.559  0.2556 -0.0072 -0.3978
 5360TIP3    H137639   5.957   1.177   8.529  0.0946  0.9385  0.5023
 5360TIP3    H237640   6.042   1.082   8.611 -0.0412 -0.0281 -0.4567
 5361TIP3   OH237641   2.349   2.613   6.926  0.1931 -0.5455 -0.3537
 5361TIP3    H137642   2.412   2.618   6.855 -0.4198 -0.8875 -0.9276
 5361TIP3    H237643   2.331   2.520   6.936 -0.0890 -0.4621 -0.0785
 5362TIP3   OH237644   3.411   1.169   8.607  0.1694 -0.5263 -0.0952
 5362TIP3    H137645   3.487   1.228   8.602 -0.3539  0.1845  0.2565
 5362TIP3    H237646   3.435   1.095   8.551  1.0099 -0.1770 -0.2117
 5363TIP3   OH237647   0.625   4.242   0.811 -0.2908  0.0442 -0.1439
 5363TIP3    H137648   0.650   4.209   0.897 -0.3074  0.7713  0.1498
 5363TIP3    H237649   0.585   4.167   0.767 -1.2651 -0.0644  0.8797
 5364TIP3   OH237650   4.728   3.434   8.830 -0.0764 -0.3016 -0.3028
 5364TIP3    H137651   4.749   3.511   8.882  1.9511 -0.2233 -1.1165
 5364TIP3    H237652   4.792   3.368   8.858  1.4753 -0.0835 -2.9433
 5365TIP3   OH237653   1.064   6.257   2.488 -0.4736  0.7181  0.2650
 5365TIP3    H137654   1.046   6.166   2.514 -2.6356  0.5335 -1.5111
 5365TIP3    H237655   1.151   6.253   2.448  0.2546 -0.1680  1.8489
 5366TIP3   OH237656   2.863   3.386   1.643 -0.2910  0.0946  0.3092
 5366TIP3    H137657   2.952   3.356   1.623 -1.0249 -0.5951 -2.2603
 5366TIP3    H237658   2.821   3.309   1.683  0.2596  0.4696  1.6747
 5367TIP3   OH237659   0.093   0.653   2.669  0.6539 -0.2807 -0.1779
 5367TIP3    H137660   0.039   0.732   2.668  1.0698  0.0147 -1.5020
 5367TIP3    H237661   0.039   0.587   2.712 -0.0133  0.5077  0.2208
 5368TIP3   OH237662   3.139   3.670   7.520 -0.7454 -0.6592 -0.2414
 5368TIP3    H137663   3.167   3.579   7.517  0.7292 -0.2357  0.1305
 5368TIP3    H237664   3.106   3.688   7.432 -0.6943 -1.4397 -0.4228
 5369TIP3   OH237665   5.814   2.121   1.608  0.4679  0.2101  0.1683
 5369TIP3    H137666   5.835   2.027   1.611  0.8553  0.2945  0.1093
 5369TIP3    H237667   5.899   2.164   1.602  0.2853  0.5646  0.1408
 5370TIP3   OH237668   0.428   1.003   7.447  0.0458 -0.2528 -0.0837
 5370TIP3    H137669   0.500   1.059   7.418  0.3363  0.6839  2.2737
 5370TIP3    H237670   0.465   0.915   7.448  0.6819  0.0072 -0.3775
 5371TIP3   OH237671   1.843   6.469   0.138  0.4470  0.1374  0.2071
 5371TIP3    H137672   1.894   6.389   0.133  2.0594  1.1625 -0.5734
 5371TIP3    H237673   1.766   6.445   0.191  0.8938 -1.8756  0.0335
 5372TIP3   OH237674   1.891   0.143   1.577 -0.1063 -0.3027  0.3956
 5372TIP3    H137675   1.805   0.167   1.542  0.0957  0.0359  0.1279
 5372TIP3    H237676   1.935   0.227   1.591  0.2143 -0.4804  0.4525
 5373TIP3   OH237677   5.442   5.029   7.916  0.6239 -0.2378  0.6062
 5373TIP3    H137678   5.473   4.972   7.846  0.1281  0.5652 -0.2957
 5373TIP3    H237679   5.346   5.024   7.911  0.5496  1.1361  0.0783
 5374TIP3   OH237680   0.570   3.833   8.111  0.2346 -0.0182  0.4388
 5374TIP3    H137681   0.545   3.920   8.143 -1.6273  0.3237 -1.6880
 5374TIP3    H237682   0.500   3.775   8.142  1.2495 -0.7338  1.4866
 5375TIP3   OH237683   1.437   6.445   1.520  0.2604 -0.2185  0.5377
 5375TIP3    H137684   1.506   6.462   1.456  0.2089 -1.3719  0.1599
 5375TIP3    H237685   1.471   6.481   1.602  0.9506 -0.0397  0.1768
 5376TIP3   OH237686   6.167   3.815   8.427 -0.5247 -0.3140  0.4092
 5376TIP3    H137687   6.084   3.787   8.388  0.1338 -1.7209 -0.0017
 5376TIP3    H237688   6.140   3.860   8.508 -1.7730  0.7554 -0.5513
 5377TIP3   OH237689   5.525   2.981   2.138  0.1919  0.0913 -0.0488
 5377TIP3    H137690   5.452   3.042   2.147  1.3233  1.2846  1.7556
 5377TIP3    H237691   5.534   2.942   2.225  0.4869 -1.5143 -0.7707
 5378TIP3   OH237692   6.606   6.750   7.423  0.1311 -0.1655  0.1739
 5378TIP3    H137693   6.659   6.700   7.362  0.1242 -0.7160  0.6047
 5378TIP3    H237694   6.616   6.841   7.396 -0.3133 -0.4493 -0.9734
 5379TIP3   OH237695   3.281   5.123   0.999 -0.0343  0.7067  0.0270
 5379TIP3    H137696   3.351   5.095   1.058  0.8229 -0.9823 -1.6915
 5379TIP3    H237697   3.239   5.197   1.045  2.6565  1.5983  1.2527
 5380TIP3   OH237698   6.664   3.609   1.885  0.2129 -0.0489 -0.9252
 5380TIP3    H137699   6.652   3.562   1.967 -0.6453 -0.4911 -1.2955
 5380TIP3    H237700   6.718   3.551   1.832  0.1100 -0.1100 -0.9628
 5381TIP3   OH237701   6.544   4.632   0.587  0.1926 -0.3217 -0.4072
 5381TIP3    H137702   6.484   4.592   0.524 -1.3193 -0.5094  1.0513
 5381TIP3    H237703   6.567   4.561   0.647 -1.9139  0.6431  1.7601
 5382TIP3   OH237704   4.857   2.371   7.523  0.2986 -0.1998 -0.2828
 5382TIP3    H137705   4.887   2.285   7.494  0.5655 -1.0137  2.1758
 5382TIP3    H237706   4.937   2.421   7.535  0.1468  0.4191 -1.6347
 5383TIP3   OH237707   4.421   0.346   7.252 -1.4863  0.0958 -0.4158
 5383TIP3    H137708   4.439   0.277   7.316 -0.1905 -0.7949 -1.6692
 5383TIP3    H237709   4.353   0.309   7.196 -0.4781 -0.4052 -1.3603
 5384TIP3   OH237710   1.776   5.706   0.091  0.2606 -0.2481  0.1960
 5384TIP3    H137711   1.721   5.669   0.023 -0.8324  1.3279  0.1946
 5384TIP3    H237712   1.813   5.629   0.135 -0.6737 -1.3128 -0.8055
 5385TIP3   OH237713   4.409   3.135   3.124  0.0769 -0.1625 -0.1646
 5385TIP3    H137714   4.321   3.096   3.121  0.3206 -0.7214 -3.0981
 5385TIP3    H237715   4.394   3.223   3.159 -1.6914 -0.2047 -0.6785
 5386TIP3   OH237716   1.977   3.719   7.506  0.3020  0.1767  0.3013
 5386TIP3    H137717   1.924   3.709   7.427  1.4322  0.2121 -0.4668
 5386TIP3    H237718   2.021   3.635   7.516 -0.0756  0.0599  1.0925
 5387TIP3   OH237719   6.761   0.434   0.929  0.6283  0.8690 -0.2910
 5387TIP3    H137720   6.753   0.469   0.840 -0.9933 -1.0857 -1.0000
 5387TIP3    H237721   6.847   0.393   0.932  0.6974  0.9609 -0.9396
 5388TIP3   OH237722   4.051   6.012   0.408  0.1280 -0.1987  0.6605
 5388TIP3    H137723   4.135   6.057   0.400  0.6982 -1.5672 -2.6351
 5388TIP3    H237724   4.072   5.928   0.448  1.0283 -1.7578 -2.7130
 5389TIP3   OH237725   2.650   6.008   0.715  0.3009  0.3294  0.0345
 5389TIP3    H137726   2.620   6.090   0.676 -0.9135 -0.9357 -1.8536
 5389TIP3    H237727   2.574   5.974   0.761  0.7055  0.0866  0.5380
 5390TIP3   OH237728   4.571   1.938   0.020  0.6139 -0.0718 -0.4436
 5390TIP3    H137729   4.521   2.014   0.051 -1.5996 -1.4202 -0.4508
 5390TIP3    H237730   4.602   1.963  -0.067 -1.8432  0.1875 -1.3434
 5391TIP3   OH237731   2.347   0.485   7.053  0.1018  0.2687  0.3360
 5391TIP3    H137732   2.392   0.540   7.116 -0.0612 -1.1931  1.7886
 5391TIP3    H237733   2.396   0.402   7.053 -0.7545 -0.2591 -0.3646
 5392TIP3   OH237734   1.913   2.485   6.278 -0.5447  0.1503  0.5166
 5392TIP3    H137735   1.886   2.394   6.263  1.6825 -0.6350  0.8449
 5392TIP3    H237736   1.836   2.527   6.316 -1.9439 -1.3341 -0.5489
 5393TIP3   OH237737   6.801   2.162   6.909  0.0573 -0.1413 -0.2082
 5393TIP3    H137738   6.804   2.087   6.968 -0.2750 -1.1673 -1.4570
 5393TIP3    H237739   6.714   2.158   6.870  0.2258  0.6079 -0.6796
 5394TIP3   OH237740   0.781   5.965   7.553 -0.3177  0.1921  0.2615
 5394TIP3    H137741   0.769   5.991   7.461  2.5661  0.6710 -0.0646
 5394TIP3    H237742   0.692   5.945   7.583 -1.6122  1.8807 -2.0505
 5395TIP3   OH237743   4.251   4.788   1.914 -0.1659  0.5086 -0.3381
 5395TIP3    H137744   4.221   4.740   1.837  1.0150  0.3462 -0.7249
 5395TIP3    H237745   4.175   4.793   1.972 -1.3226  1.3449 -1.8593
 5396TIP3   OH237746   2.282   2.545   0.505  0.0427 -0.0183 -0.1085
 5396TIP3    H137747   2.345   2.494   0.555 -1.8045 -0.2963  2.1462
 5396TIP3    H237748   2.204   2.489   0.501 -1.4059  1.8001  0.8173
 5397TIP3   OH237749   1.729   0.838   1.007 -0.1373  0.3092  0.2805
 5397TIP3    H137750   1.804   0.898   1.014  1.4169 -1.2849 -1.3705
 5397TIP3    H237751   1.653   0.895   0.998  0.9382  2.0013  1.4219
 5398TIP3   OH237752   2.180   2.209   7.702 -0.3321 -0.0669 -0.4764
 5398TIP3    H137753   2.211   2.124   7.733 -2.1356 -0.4008  0.5471
 5398TIP3    H237754   2.258   2.265   7.704 -0.0002 -0.2967  3.9219
 5399TIP3   OH237755   4.975   4.269   0.093  0.1255  0.2228 -0.8024
 5399TIP3    H137756   5.066   4.297   0.083 -0.0012  0.5896 -0.9652
 5399TIP3    H237757   4.980   4.184   0.136  0.5744 -0.0278 -1.3371
 5400TIP3   OH237758   4.221   3.893   2.887 -0.0218 -0.4530  0.1848
 5400TIP3    H137759   4.290   3.863   2.827  1.9111 -0.4367  2.2635
 5400TIP3    H237760   4.203   3.816   2.942 -1.2700 -0.2744  0.0435
 5401TIP3   OH237761   4.956   1.847   1.896  0.0157 -0.2112  0.0475
 5401TIP3    H137762   4.921   1.792   1.826  0.0519  0.2758 -0.3544
 5401TIP3    H237763   4.907   1.820   1.974 -0.1264 -0.6549 -0.1913
 5402TIP3   OH237764   5.576   2.744   1.588 -0.2583 -0.1371  0.0169
 5402TIP3    H137765   5.484   2.719   1.581 -0.3907  0.7420 -2.4969
 5402TIP3    H237766   5.612   2.686   1.655 -2.6449 -0.4094  1.1620
 5403TIP3   OH237767   2.841   2.575   8.611 -0.0290  0.1263 -0.0541
 5403TIP3    H137768   2.786   2.594   8.536 -1.8339 -0.2198  1.1155
 5403TIP3    H237769   2.926   2.613   8.589 -0.8925  1.2160 -1.6766
 5404TIP3   OH237770   5.901   3.312   8.061  0.1081 -0.3257 -0.1430
 5404TIP3    H137771   5.830   3.249   8.057  1.4237 -1.8406 -2.2163
 5404TIP3    H237772   5.965   3.273   8.121 -0.0832  0.2295  0.4332
 5405TIP3   OH237773   6.265   3.789   1.965  0.0203  0.3924  0.1282
 5405TIP3    H137774   6.239   3.881   1.960  2.3509  1.3085  2.6513
 5405TIP3    H237775   6.215   3.755   2.039 -0.1785 -0.1512 -0.2529
 5406TIP3   OH237776   5.988   0.686   6.875 -0.1260 -0.0907  0.2830
 5406TIP3    H137777   5.947   0.607   6.839  0.4637 -0.0852 -0.4285
 5406TIP3    H237778   5.924   0.720   6.937 -1.2343 -0.0485 -0.8366
 5407TIP3   OH237779   4.912   2.953   0.246  0.4337 -0.3135  0.5980
 5407TIP3    H137780   4.918   2.978   0.339  1.3085  1.3417  0.1416
 5407TIP3    H237781   5.000   2.967   0.212  0.6191 -2.7819 -0.0896
 5408TIP3   OH237782   3.313   4.231   1.003 -0.2600 -0.2058  0.3694
 5408TIP3    H137783   3.231   4.266   1.037 -0.6541  0.8932 -1.5319
 5408TIP3    H237784   3.361   4.307   0.971  0.0850 -1.0870 -1.4021
 5409TIP3   OH237785   2.214   4.419   7.082 -0.1070  0.3785  0.0655
 5409TIP3    H137786   2.156   4.474   7.029  0.5266  2.0271  1.0009
 5409TIP3    H237787   2.155   4.372   7.141 -0.6880 -0.2787 -1.0068
 5410TIP3   OH237788   5.046   6.667   0.156  0.1100 -0.1719  0.3347
 5410TIP3    H137789   4.991   6.633   0.227 -1.1348  0.8180 -0.1253
 5410TIP3    H237790   5.025   6.760   0.152  2.2436  0.3636  0.4940
 5411TIP3   OH237791   2.768   2.826   1.629  0.3086  0.0471  0.5372
 5411TIP3    H137792   2.674   2.814   1.613 -0.0278  1.8904  0.9136
 5411TIP3    H237793   2.808   2.817   1.543 -0.5136  1.5140 -0.0471
 5412TIP3   OH237794   6.248   2.064   1.718 -0.5687  0.5376 -0.5207
 5412TIP3    H137795   6.169   2.012   1.735  0.2667 -1.6093 -2.6832
 5412TIP3    H237796   6.297   2.061   1.801 -2.3013  1.2212  0.5944
 5413TIP3   OH237797   0.052   1.149   7.916  0.1198  0.2769 -0.2429
 5413TIP3    H137798   0.072   1.234   7.877  2.0403 -0.0338 -0.0567
 5413TIP3    H237799   0.068   1.086   7.846 -0.1561 -0.0121 -0.0468
 5414TIP3   OH237800   5.565   6.288   7.057  0.0977 -0.1787 -0.5475
 5414TIP3    H137801   5.505   6.266   7.128  0.6404  0.4337  0.1174
 5414TIP3    H237802   5.553   6.382   7.044 -0.1164 -0.3119 -1.3893
 5415TIP3   OH237803   1.932   6.426   1.848 -0.9019 -0.4679  0.1018
 5415TIP3    H137804   1.914   6.518   1.867 -3.3582 -0.5285 -1.4106
 5415TIP3    H237805   2.002   6.401   1.908  1.6734  3.0322 -1.1355
 5416TIP3   OH237806   1.458   3.672   7.408 -0.1398  0.0508  0.0259
 5416TIP3    H137807   1.406   3.632   7.339 -0.9133  1.5472 -0.3055
 5416TIP3    H237808   1.396   3.689   7.479  0.2929  0.1154  0.3997
 5417TIP3   OH237809   4.583   2.558   1.406  0.1360  0.1683 -0.4119
 5417TIP3    H137810   4.521   2.504   1.358  1.4490 -3.1947  1.3253
 5417TIP3    H237811   4.552   2.557   1.496  1.3987  0.4273  0.0518
 5418TIP3   OH237812   5.325   6.398   1.078 -0.0658  0.3553  0.2641
 5418TIP3    H137813   5.346   6.461   1.009  1.2454  0.5096  0.7798
 5418TIP3    H237814   5.257   6.442   1.129  1.0424  1.5210  0.7936
 5419TIP3   OH237815   0.463   3.567   1.326  0.0526 -0.1981 -0.5263
 5419TIP3    H137816   0.432   3.599   1.241 -0.7368  3.8463  1.0422
 5419TIP3    H237817   0.558   3.572   1.320  0.0669 -1.2463 -1.5513
 5420TIP3   OH237818   1.576   5.202   7.586 -0.4588 -0.8792 -0.7010
 5420TIP3    H137819   1.580   5.293   7.554  0.0760 -0.9935 -0.9683
 5420TIP3    H237820   1.494   5.198   7.634  0.1536  0.1247  0.4860
 5421TIP3   OH237821   5.386   2.522   2.422  0.6535  0.1872 -0.0315
 5421TIP3    H137822   5.405   2.529   2.328 -2.5514  0.9748 -0.7520
 5421TIP3    H237823   5.375   2.428   2.437  0.7335  0.0892 -0.5702
 5422TIP3   OH237824   4.722   0.075   2.202  0.1077 -0.1326 -0.2795
 5422TIP3    H137825   4.708   0.158   2.245  1.0860  0.7130 -1.5140
 5422TIP3    H237826   4.653   0.070   2.135  1.1453  0.6023 -1.4548
 5423TIP3   OH237827   3.380   5.331   7.042 -0.1774  0.1272  0.0489
 5423TIP3    H137828   3.411   5.408   7.089  0.0515 -1.4179  2.6545
 5423TIP3    H237829   3.456   5.300   6.992 -0.6573  2.2758 -2.1892
 5424TIP3   OH237830   3.941   0.139   2.323 -0.3281  0.1196 -0.2527
 5424TIP3    H137831   3.930   0.046   2.343  0.2035 -0.2472 -1.5087
 5424TIP3    H237832   3.853   0.175   2.325 -0.3613  0.0620  2.2038
 5425TIP3   OH237833   3.940   2.083   0.336 -0.1518 -0.4878 -0.2227
 5425TIP3    H137834   3.920   1.993   0.362  0.0153 -0.4723 -0.0385
 5425TIP3    H237835   4.020   2.105   0.385 -0.9836  0.2531  0.8616
 5426TIP3   OH237836   4.425   1.386   8.071 -0.2881  0.7358  0.0890
 5426TIP3    H137837   4.330   1.377   8.076 -0.3313  0.7511 -0.5484
 5426TIP3    H237838   4.448   1.445   8.143 -0.4131 -1.5282  2.0901
 5427TIP3   OH237839   5.631   5.640   0.094  0.5660  0.0548  0.0109
 5427TIP3    H137840   5.587   5.725   0.090 -1.7333 -1.1188 -2.1521
 5427TIP3    H237841   5.724   5.661   0.081  0.1652  2.2650  0.2693
 5428TIP3   OH237842   6.638   3.970   1.723  0.4144  0.2595 -0.0085
 5428TIP3    H137843   6.573   3.923   1.775  0.9645  0.0408  0.5020
 5428TIP3    H237844   6.646   3.918   1.642 -0.5389  0.6740 -0.3802
 5429TIP3   OH237845   1.718   6.292   8.402 -0.3707  0.3515  1.3188
 5429TIP3    H137846   1.663   6.313   8.478 -0.6854 -1.8937  1.7920
 5429TIP3    H237847   1.674   6.333   8.328 -1.1830  0.8706  2.0681
 5430TIP3   OH237848   4.443   2.808   7.806  0.2772  0.1299  0.2032
 5430TIP3    H137849   4.430   2.878   7.742  0.2180  0.0132  0.0854
 5430TIP3    H237850   4.476   2.852   7.884  0.2120  0.2922  0.1396
 5431TIP3   OH237851   0.370   3.474   0.642 -0.0322 -0.3746 -0.5216
 5431TIP3    H137852   0.371   3.389   0.685 -1.6621 -0.1381  0.0670
 5431TIP3    H237853   0.341   3.456   0.553 -0.6181 -0.4343 -0.3270
 5432TIP3   OH237854   2.041   3.653   7.910  0.0839 -0.1531 -0.4041
 5432TIP3    H137855   2.007   3.669   7.822  1.6171 -2.6367 -1.5806
 5432TIP3    H237856   2.127   3.695   7.910  0.4344 -0.8481 -0.4294
 5433TIP3   OH237857   5.979   5.939   2.465 -0.0467  0.6982  0.3545
 5433TIP3    H137858   5.941   5.853   2.449  0.1495  0.5760  0.5377
 5433TIP3    H237859   5.905   6.000   2.456 -0.0228  0.6013 -0.5826
 5434TIP3   OH237860   5.021   6.438   8.830  0.2309 -0.3296  0.0288
 5434TIP3    H137861   5.001   6.525   8.866 -0.9111  0.5367 -2.4328
 5434TIP3    H237862   5.023   6.452   8.735  1.4150 -2.7498 -0.3708
 5435TIP3   OH237863   0.650   5.724   1.729  0.2896 -0.0905 -0.4562
 5435TIP3    H137864   0.684   5.736   1.641 -0.1093  0.8815 -0.4890
 5435TIP3    H237865   0.670   5.806   1.774 -0.6342 -0.0837 -0.0316
 5436TIP3   OH237866   0.490   3.842   0.221 -0.1443 -0.0531 -0.1246
 5436TIP3    H137867   0.493   3.841   0.125 -0.9636 -0.2978 -0.1523
 5436TIP3    H237868   0.520   3.755   0.247 -0.8307 -0.3146 -0.1940
 5437TIP3   OH237869   2.795   3.127   0.718 -0.1922  0.2422 -0.0121
 5437TIP3    H137870   2.783   3.042   0.759 -0.7398 -0.1240 -0.9230
 5437TIP3    H237871   2.767   3.190   0.785 -0.0645 -0.3016  0.5558
 5438TIP3   OH237872   0.529   1.964   2.168 -0.3052  0.3581 -0.5823
 5438TIP3    H137873   0.525   2.059   2.183  3.3854  0.2893  2.5204
 5438TIP3    H237874   0.454   1.929   2.216 -1.1978  1.6218 -1.0105
 5439TIP3   OH237875   0.940   1.843   2.380 -0.5806 -0.1801 -0.5412
 5439TIP3    H137876   0.868   1.890   2.423 -0.4607 -0.8668  0.4311
 5439TIP3    H237877   0.955   1.767   2.436 -0.1727 -0.8995 -1.6137
 5440TIP3   OH237878   2.106   0.020   1.714  0.3093  0.0583  0.5616
 5440TIP3    H137879   2.165   0.090   1.744  1.1244 -0.8056  1.0051
 5440TIP3    H237880   2.054   0.062   1.645 -0.3453  1.5710  1.9057
 5441TIP3   OH237881   1.324   1.044   1.499 -0.0394  0.4311  0.2765
 5441TIP3    H137882   1.296   1.054   1.590 -0.2223 -0.4318  0.3253
 5441TIP3    H237883   1.242   1.027   1.451  0.0433  0.9928 -0.0651
 5442TIP3   OH237884   2.000   6.148   1.732 -0.4245  0.3405 -0.2230
 5442TIP3    H137885   2.066   6.214   1.709 -0.7427  1.0094  0.7213
 5442TIP3    H237886   1.969   6.174   1.819 -1.0539 -0.6691 -0.1268
 5443TIP3   OH237887   1.631   6.081   0.461  0.4752  0.2606 -0.0552
 5443TIP3    H137888   1.593   6.005   0.416  1.7189 -0.1275 -0.5019
 5443TIP3    H237889   1.707   6.105   0.408  0.4876  1.4162  0.4487
 5444TIP3   OH237890   1.001   2.629   1.665 -0.1663 -0.1183  0.2844
 5444TIP3    H137891   1.096   2.621   1.670 -0.2372 -1.4302 -0.0781
 5444TIP3    H237892   0.975   2.664   1.750  0.4563 -1.8571  1.2269
 5445TIP3   OH237893   5.745   3.078   7.970  0.1645  0.5355  0.4147
 5445TIP3    H137894   5.820   3.103   7.916 -0.3596 -0.1627 -0.6694
 5445TIP3    H237895   5.669   3.111   7.921 -0.2999  0.1888  0.8968
 5446TIP3   OH237896   1.269   0.832   3.145 -0.7442 -0.1857 -0.2910
 5446TIP3    H137897   1.268   0.736   3.150 -0.0237 -0.3615 -2.3432
 5446TIP3    H237898   1.350   0.857   3.188 -0.5606 -0.5754 -0.3977
 5447TIP3   OH237899   4.874   5.819   1.078 -0.5346  0.2867 -0.0929
 5447TIP3    H137900   4.967   5.803   1.096 -0.6827 -0.6829 -0.1442
 5447TIP3    H237901   4.835   5.830   1.165 -0.4012  0.5377 -0.0632
 5448TIP3   OH237902   2.402   2.943   6.834 -0.3429 -0.3836 -0.3386
 5448TIP3    H137903   2.453   3.004   6.781 -1.2955 -0.6072 -1.5394
 5448TIP3    H237904   2.463   2.872   6.854  1.2750  1.5557  2.3733
 5449TIP3   OH237905   1.150   2.764   0.045  0.3042 -0.0330  0.4026
 5449TIP3    H137906   1.194   2.824  -0.015  1.2083 -0.2208  0.8671
 5449TIP3    H237907   1.211   2.692   0.057 -1.0517 -1.4302 -0.6969
 5450TIP3   OH237908   2.459   5.627   1.506 -0.1234  0.7275  0.1582
 5450TIP3    H137909   2.535   5.643   1.451  0.5360  3.0581  1.5610
 5450TIP3    H237910   2.482   5.666   1.590 -0.9593 -2.8803  2.2679
 5451TIP3   OH237911   4.578   3.255   0.929  0.1243 -0.0025  0.2273
 5451TIP3    H137912   4.506   3.260   0.866  1.0468  1.2235 -0.7677
 5451TIP3    H237913   4.573   3.337   0.979  1.2980  0.4746 -0.4011
 5452TIP3   OH237914   5.535   3.631   2.562 -0.2818 -0.5578  0.9418
 5452TIP3    H137915   5.623   3.668   2.553 -0.9514  0.9441  0.2882
 5452TIP3    H237916   5.528   3.569   2.490  0.0054 -0.1803  0.5807
 5453TIP3   OH237917   4.700   2.518   0.384  0.2459  0.1721 -0.1893
 5453TIP3    H137918   4.786   2.496   0.419  0.4691 -1.7337 -1.6898
 5453TIP3    H237919   4.689   2.457   0.310 -2.9128 -0.5479  0.7305
 5454TIP3   OH237920   1.752   1.561   7.709  0.4060 -0.6934 -0.2810
 5454TIP3    H137921   1.814   1.629   7.737 -0.8988  1.6155 -2.5741
 5454TIP3    H237922   1.715   1.528   7.791  0.1842  2.3172  0.9710
 5455TIP3   OH237923   0.500   6.664   8.613  0.2953  0.1460 -0.3516
 5455TIP3    H137924   0.548   6.583   8.631 -2.2255 -1.2795  0.4002
 5455TIP3    H237925   0.501   6.712   8.696 -0.7575 -0.5801  0.1037
 5456TIP3   OH237926   5.162   4.813   0.052 -0.2769  0.7288 -0.0321
 5456TIP3    H137927   5.100   4.787   0.121 -1.9203  2.6456 -0.6959
 5456TIP3    H237928   5.170   4.736  -0.004 -0.8192 -0.0620  0.9451
 5457TIP3   OH237929   4.868   4.352   7.868 -0.0780 -0.5571 -0.3013
 5457TIP3    H137930   4.939   4.314   7.815 -0.6929 -1.5966 -0.4158
 5457TIP3    H237931   4.910   4.421   7.919  0.8443 -0.5844 -0.9965
 5458TIP3   OH237932   6.511   3.341   0.379  0.0479  0.1053  0.2071
 5458TIP3    H137933   6.556   3.347   0.295 -2.0227 -1.6040 -1.1543
 5458TIP3    H237934   6.580   3.323   0.442  1.4390 -1.1986 -1.5673
 5459TIP3   OH237935   1.998   0.882   2.840  0.0680  0.4625 -0.4779
 5459TIP3    H137936   1.926   0.820   2.856 -1.0302  1.8202  0.0322
 5459TIP3    H237937   1.958   0.968   2.853  1.1196  1.3670 -2.8737
 5460TIP3   OH237938   4.609   2.961   3.048  0.3660  0.1582  0.6448
 5460TIP3    H137939   4.533   3.012   3.079  0.0398 -0.4239  0.8086
 5460TIP3    H237940   4.675   3.028   3.028  0.6417  0.5696  2.6913
 5461TIP3   OH237941   0.286   6.530   0.718 -0.6290 -0.5934 -0.1657
 5461TIP3    H137942   0.257   6.569   0.800 -2.0763  1.0504 -1.3697
 5461TIP3    H237943   0.207   6.493   0.680  0.2877 -2.6569 -0.1885
 5462TIP3   OH237944   6.016   0.441   0.325  0.7184 -0.7748  0.2249
 5462TIP3    H137945   6.051   0.470   0.409 -1.4137  1.6582  0.4050
 5462TIP3    H237946   5.928   0.479   0.322 -1.3404 -5.0528 -0.8887
 5463TIP3   OH237947   3.663   5.597   8.834 -0.1972  0.2672 -0.1828
 5463TIP3    H137948   3.729   5.652   8.792  0.0490 -0.6849 -1.0815
 5463TIP3    H237949   3.579   5.635   8.806 -0.0618  1.3923  0.8502
 5464TIP3   OH237950   2.981   3.588   8.635 -0.4407 -0.0073  0.5159
 5464TIP3    H137951   3.031   3.557   8.711  1.3954 -0.5802 -0.8367
 5464TIP3    H237952   3.028   3.666   8.606 -1.0558  0.1327 -0.1119
 5465TIP3   OH237953   1.801   6.233   1.568 -0.0538 -0.0784 -0.1529
 5465TIP3    H137954   1.758   6.254   1.652  0.5342  1.1771 -0.1522
 5465TIP3    H237955   1.889   6.206   1.592  2.2617  5.8190 -0.4992
 5466TIP3   OH237956   5.728   3.657   2.077  0.2873 -0.5371  0.5641
 5466TIP3    H137957   5.773   3.730   2.035 -0.7477 -0.1216  0.1575
 5466TIP3    H237958   5.759   3.580   2.030 -1.5610 -0.0195 -1.7106
 5467TIP3   OH237959   1.617   1.806   7.783  0.0725  0.1080 -0.2788
 5467TIP3    H137960   1.607   1.746   7.857 -1.3583  0.2449 -0.3501
 5467TIP3    H237961   1.600   1.752   7.706  0.5386  0.2056 -0.4547
 5468TIP3   OH237962   0.594   0.322   1.596  0.3879  0.3726  0.7587
 5468TIP3    H137963   0.595   0.381   1.671 -1.1179  0.6647  0.5743
 5468TIP3    H237964   0.501   0.313   1.573  0.7514 -0.4117 -0.5196
 5469TIP3   OH237965   0.540   0.900   1.483  0.7530  0.1507  0.5948
 5469TIP3    H137966   0.519   0.874   1.573  1.6438  1.4325  1.1894
 5469TIP3    H237967   0.510   0.826   1.430  0.4495 -0.7433  1.9580
 5470TIP3   OH237968   1.646   0.900   2.990  0.7100  0.4861 -0.3147
 5470TIP3    H137969   1.704   0.857   3.053  0.2544  0.8129  0.3376
 5470TIP3    H237970   1.662   0.994   3.002 -0.6028  0.6205  0.5186
 5471TIP3   OH237971   3.348   0.121   8.132  0.1966  0.4653  0.2262
 5471TIP3    H137972   3.321   0.165   8.212  1.1073  0.0043  0.8070
 5471TIP3    H237973   3.294   0.042   8.128  0.4447  0.2708  0.6238
 5472TIP3   OH237974   3.193   2.312   0.214 -0.4397  0.3570  0.4614
 5472TIP3    H137975   3.162   2.322   0.124 -1.2129 -0.7799  0.5914
 5472TIP3    H237976   3.248   2.234   0.212  0.8770  1.2482  0.6509
 5473TIP3   OH237977   1.020   0.034   7.365  0.7169 -0.2513 -0.2149
 5473TIP3    H137978   1.017   0.030   7.461 -0.2049 -0.0002 -0.2261
 5473TIP3    H237979   1.100   0.082   7.346  0.1929  0.9610  0.4825
 5474TIP3   OH237980   4.633   4.275   1.805 -0.2884  0.9069  0.4628
 5474TIP3    H137981   4.705   4.215   1.822 -1.4667 -0.4576  0.8812
 5474TIP3    H237982   4.666   4.361   1.829  0.6415  0.0794  2.3196
 5475TIP3   OH237983   3.639   0.492   8.407 -0.3731 -0.1491 -0.1684
 5475TIP3    H137984   3.710   0.528   8.354 -2.7740  0.2610 -3.4801
 5475TIP3    H237985   3.593   0.568   8.442  0.7466 -0.4103  2.0529
 5476TIP3   OH237986   6.450   3.004   7.464 -0.1145 -0.0911 -0.1126
 5476TIP3    H137987   6.537   3.044   7.476  1.0126 -1.9139 -1.8051
 5476TIP3    H237988   6.408   3.058   7.398  0.4419 -0.2548 -0.6051
 5477TIP3   OH237989   1.952   5.437   2.012 -0.1323 -0.2664  0.2686
 5477TIP3    H137990   1.966   5.510   1.952 -0.9284 -0.0274  0.3571
 5477TIP3    H237991   1.911   5.369   1.958  0.8556 -0.7633  0.1226
 5478TIP3   OH237992   2.427   4.255   7.791  0.2704  0.0535 -0.4395
 5478TIP3    H137993   2.366   4.181   7.796 -0.7809  0.9638  1.1445
 5478TIP3    H237994   2.452   4.259   7.699  0.6231 -2.4571 -0.5186
 5479TIP3   OH237995   6.738   2.096   7.315 -0.0879  0.3720  0.7406
 5479TIP3    H137996   6.651   2.097   7.353  0.2068 -1.4921  1.5728
 5479TIP3    H237997   6.724   2.116   7.222 -1.3772  0.2608  0.8981
 5480TIP3   OH237998   1.298   1.712   1.496  0.1956 -0.1357  0.1995
 5480TIP3    H137999   1.326   1.621   1.495  1.6606  0.2877 -0.8540
 5480TIP3    H238000   1.359   1.757   1.436 -0.8678  1.4167  0.2124
 5481TIP3   OH238001   0.424   2.328   8.469  0.0445  0.4778  0.3089
 5481TIP3    H138002   0.366   2.330   8.393  1.4152  0.7166 -0.7659
 5481TIP3    H238003   0.451   2.419   8.481 -0.7353  0.5679  1.5701
 5482TIP3   OH238004   4.380   3.784   1.053 -0.1046 -0.1362 -0.4968
 5482TIP3    H138005   4.391   3.695   1.019  0.1887 -0.0201 -0.7091
 5482TIP3    H238006   4.412   3.841   0.983  0.2462  0.1155 -0.1353
 5483TIP3   OH238007   2.562   3.900   0.485  0.3429 -0.4821 -0.2366
 5483TIP3    H138008   2.486   3.842   0.489  0.4137 -0.6344 -0.9509
 5483TIP3    H238009   2.567   3.927   0.393 -0.1763  1.3031  0.2243
 5484TIP3   OH238010   6.624   4.634   8.817  0.6302  0.2814  0.4489
 5484TIP3    H138011   6.550   4.646   8.877  0.1551 -1.0935  0.1755
 5484TIP3    H238012   6.654   4.723   8.797 -0.3231  0.8187  1.3287
 5485TIP3   OH238013   0.604   3.952   0.842 -0.4134  0.1073  0.2978
 5485TIP3    H138014   0.546   3.921   0.773  0.9045 -0.5557 -0.5623
 5485TIP3    H238015   0.602   3.882   0.908 -2.2841  1.0944  1.3632
 5486TIP3   OH238016   0.125   3.284   8.607  0.4806 -0.0384 -0.3900
 5486TIP3    H138017   0.101   3.298   8.699 -2.6832  0.0137 -1.1099
 5486TIP3    H238018   0.112   3.369   8.565 -0.2566 -0.5554 -1.2573
 5487TIP3   OH238019   2.277   3.278   7.380  0.0705  0.2435 -0.2505
 5487TIP3    H138020   2.334   3.245   7.450  1.7320  1.3072 -1.0389
 5487TIP3    H238021   2.275   3.207   7.316  0.7576  0.3048 -0.3469
 5488TIP3   OH238022   4.891   0.100   2.966  0.2579  0.2072  0.2786
 5488TIP3    H138023   4.908   0.006   2.977  0.3848  0.1813 -0.1053
 5488TIP3    H238024   4.971   0.134   2.927  0.2346  0.4885  0.4762
 5489TIP3   OH238025   3.741   0.711   2.200  0.1568  0.6321 -0.8255
 5489TIP3    H138026   3.689   0.722   2.280  0.6953  1.4127 -0.5759
 5489TIP3    H238027   3.677   0.683   2.134 -0.1347 -1.0501  0.1071
 5490TIP3   OH238028   1.929   3.493   8.639  0.0914 -0.9329 -0.2473
 5490TIP3    H138029   1.995   3.425   8.656  1.1542 -0.0371 -0.6311
 5490TIP3    H238030   1.977   3.561   8.590 -0.4799  0.8671  1.5404
 5491TIP3   OH238031   0.404   3.959   1.449 -0.0244  0.4417  0.2267
 5491TIP3    H138032   0.377   3.979   1.359 -2.4270  2.3102  1.2488
 5491TIP3    H238033   0.378   4.037   1.500  0.6913 -0.7929  2.6330
 5492TIP3   OH238034   5.167   0.176   1.796 -0.2874 -0.0557  0.0775
 5492TIP3    H138035   5.091   0.220   1.758  1.2217  2.5643 -0.2115
 5492TIP3    H238036   5.236   0.189   1.731  0.8349 -0.8766  1.0661
 5493TIP3   OH238037   0.647   6.667   7.920 -0.3467  0.1040 -0.0212
 5493TIP3    H138038   0.702   6.716   7.981 -2.6469  0.9642  1.5139
 5493TIP3    H238039   0.671   6.702   7.834 -1.1183  3.3339  0.9065
 5494TIP3   OH238040   5.313   6.646   0.556  0.1441  0.2085  0.0162
 5494TIP3    H138041   5.255   6.571   0.561 -0.8672  1.0559  2.0209
 5494TIP3    H238042   5.258   6.721   0.577  1.3851  1.3802 -0.7192
 5495TIP3   OH238043   4.108   4.498   2.798 -0.5421  0.2710 -0.7357
 5495TIP3    H138044   4.171   4.541   2.856 -0.1794 -0.3577 -0.6517
 5495TIP3    H238045   4.158   4.481   2.718 -0.8698  0.5916 -1.0102
 5496TIP3   OH238046   4.325   4.900   1.569  0.2730 -0.4218  0.2226
 5496TIP3    H138047   4.296   4.822   1.617 -0.7304  0.6560  1.4179
 5496TIP3    H238048   4.419   4.887   1.558 -0.0731 -2.4703 -0.8962
 5497TIP3   OH238049   4.074   0.114   2.022 -0.1781 -0.5236  0.0204
 5497TIP3    H138050   4.115   0.198   2.004 -1.6827  0.1742 -0.3290
 5497TIP3    H238051   4.044   0.121   2.113 -0.7964 -0.4479 -0.1813
 5498TIP3   OH238052   1.123   3.546   8.656 -0.1416 -0.4032 -0.3715
 5498TIP3    H138053   1.154   3.455   8.650 -0.4337 -0.5856  0.6837
 5498TIP3    H238054   1.029   3.541   8.636 -0.0820 -0.2641 -0.7043
 5499TIP3   OH238055   4.133   0.383   1.997 -0.0556  0.0266  0.1988
 5499TIP3    H138056   4.183   0.464   1.990 -0.4832  0.5261  2.3077
 5499TIP3    H238057   4.098   0.368   1.909  1.2010  1.3351 -0.5633
 5500TIP3   OH238058   4.546   1.263   7.254  0.0395 -0.1317 -0.1425
 5500TIP3    H138059   4.499   1.279   7.172  1.8898  0.8926 -1.0686
 5500TIP3    H238060   4.592   1.180   7.240 -1.1837 -0.9801  0.6500
 5501TIP3   OH238061   4.064   5.262   8.609 -0.1464 -0.2503  0.2383
 5501TIP3    H138062   3.990   5.228   8.559 -0.3031 -0.7226  0.7820
 5501TIP3    H238063   4.035   5.348   8.641 -0.3232 -0.2777  0.1465
 5502TIP3   OH238064   3.084   3.804   0.815 -0.0842 -0.4068 -0.2099
 5502TIP3    H138065   3.140   3.880   0.827  0.8740 -1.3215  1.5265
 5502TIP3    H238066   3.080   3.791   0.720  1.3796  0.6092 -0.4354
 5503TIP3   OH238067   3.334   0.678   1.184  0.5959 -0.6782 -0.1523
 5503TIP3    H138068   3.426   0.658   1.168  0.6797 -1.7736  1.4400
 5503TIP3    H238069   3.302   0.604   1.235 -0.7955  0.3643  0.5546
 5504TIP3   OH238070   2.084   6.239   0.427 -0.2780  0.4919 -0.6912
 5504TIP3    H138071   2.048   6.211   0.511 -0.2722  0.5575 -0.6664
 5504TIP3    H238072   2.178   6.223   0.434 -0.0528  1.9301 -0.1004
 5505TIP3   OH238073   1.480   1.005   0.976  0.4162 -0.0586  0.6206
 5505TIP3    H138074   1.511   0.993   0.886 -0.0600 -0.0801  0.4539
 5505TIP3    H238075   1.443   1.094   0.977 -1.3675 -0.7518  0.2391
 5506TIP3   OH238076   4.345   3.984   8.577 -0.0477 -0.6093  0.2592
 5506TIP3    H138077   4.253   3.955   8.573 -0.8661  1.6695  0.7265
 5506TIP3    H238078   4.362   4.018   8.489 -0.8711  2.1399  1.0729
 5507TIP3   OH238079   5.085   2.831   1.358  0.1215 -0.1634 -0.0281
 5507TIP3    H138080   4.995   2.815   1.387  0.6669 -1.8868  0.8721
 5507TIP3    H238081   5.082   2.916   1.314 -2.2587 -0.8874 -1.4211
 5508TIP3   OH238082   5.963   2.742   1.028 -0.2897  0.3131  0.1745
 5508TIP3    H138083   5.890   2.749   1.089 -0.5471 -0.4821 -0.0308
 5508TIP3    H238084   5.958   2.821   0.974 -0.5475  0.6183  0.6446
 5509TIP3   OH238085   2.386   4.785   7.206 -0.0678 -0.0661 -0.3452
 5509TIP3    H138086   2.303   4.737   7.217 -0.9591  1.7793  2.0170
 5509TIP3    H238087   2.377   4.860   7.265  3.5008 -0.0384  0.3463
 5510TIP3   OH238088   4.428   1.328   0.429  0.1455 -0.1924 -0.2349
 5510TIP3    H138089   4.490   1.320   0.502 -0.9041 -1.6990  0.5525
 5510TIP3    H238090   4.374   1.250   0.435  0.5225 -0.7985 -3.1470
 5511TIP3   OH238091   4.557   5.506   1.545  0.4553 -0.0690 -0.0380
 5511TIP3    H138092   4.584   5.415   1.552  2.1103  0.4170  0.4005
 5511TIP3    H238093   4.467   5.508   1.577  1.2107 -1.1666  2.3499
 5512TIP3   OH238094   4.127   2.097   7.551  0.4566 -0.2057  0.2716
 5512TIP3    H138095   4.135   2.007   7.582 -1.4122 -0.3761  0.3336
 5512TIP3    H238096   4.105   2.088   7.458  1.2097  0.2199  0.0441
 5513TIP3   OH238097   4.425   2.876   1.431 -0.1300 -0.2145  0.0777
 5513TIP3    H138098   4.372   2.836   1.500 -0.3513 -0.3770 -0.1871
 5513TIP3    H238099   4.373   2.865   1.352 -0.5482  1.2730  0.1196
 5514TIP3   OH238100   6.106   2.356   1.107 -0.0050 -0.1767 -0.6103
 5514TIP3    H138101   6.018   2.338   1.140  0.0367  0.3437 -0.1915
 5514TIP3    H238102   6.164   2.309   1.166  0.1076  1.2890  0.5204
 5515TIP3   OH238103   0.065   3.845   0.099  0.5593  0.4648 -0.5114
 5515TIP3    H138104   0.097   3.770   0.149 -0.7364  1.3256  1.7176
 5515TIP3    H238105   0.145   3.889   0.069  1.3515 -0.7911 -0.3217
 5516TIP3   OH238106   0.380   5.695   1.634 -0.1156 -0.2742  0.7210
 5516TIP3    H138107   0.409   5.714   1.545 -1.5256  0.8130  0.4599
 5516TIP3    H238108   0.456   5.716   1.689  0.4702 -0.0814 -0.1425
 5517TIP3   OH238109   3.546   0.954   1.062 -0.0718  0.3706 -0.1946
 5517TIP3    H138110   3.538   0.871   1.014 -0.0649  0.7114 -0.7968
 5517TIP3    H238111   3.617   1.000   1.017  1.2402 -0.0917  1.3220
 5518TIP3   OH238112   6.088   0.891   7.581 -0.2238 -0.4287  0.1328
 5518TIP3    H138113   6.178   0.861   7.571 -1.0740 -2.7914 -1.3596
 5518TIP3    H238114   6.082   0.968   7.525  0.3070 -1.7118 -1.8051
 5519TIP3   OH238115   2.228   2.930   8.158 -0.9820  0.1415 -0.7476
 5519TIP3    H138116   2.190   2.994   8.219 -0.1893 -0.1838  0.0921
 5519TIP3    H238117   2.316   2.963   8.140 -0.4716 -0.8276 -0.1099
 5520TIP3   OH238118   5.761   4.309   0.521  0.4203 -0.2120  0.1226
 5520TIP3    H138119   5.668   4.289   0.510  0.5367  0.1345 -1.8696
 5520TIP3    H238120   5.766   4.404   0.506  1.0752 -0.2033  0.3845
 5521TIP3   OH238121   5.617   0.105   0.557  0.3721  0.2772 -0.2806
 5521TIP3    H138122   5.651   0.027   0.601 -1.2912  0.0086  0.6347
 5521TIP3    H238123   5.689   0.135   0.503  1.0621 -1.9330 -0.7119
 5522TIP3   OH238124   0.145   5.071   0.770 -0.1576  0.2125  0.7265
 5522TIP3    H138125   0.183   4.988   0.740 -2.6565 -1.5082  1.9992
 5522TIP3    H238126   0.172   5.078   0.862  0.2193  0.9442  0.5674
 5523TIP3   OH238127   1.049   6.004   8.731  0.5841  0.0873  0.5162
 5523TIP3    H138128   1.116   5.939   8.710  1.6413  0.4324  2.5893
 5523TIP3    H238129   0.987   5.959   8.787  0.2902  0.3727  0.4251
 5524TIP3   OH238130   4.510   1.604   0.658  0.4851 -0.0716 -0.7665
 5524TIP3    H138131   4.422   1.609   0.621  0.3242  1.0253 -0.2789
 5524TIP3    H238132   4.531   1.510   0.658 -0.1328 -0.2348 -2.1373
 5525TIP3   OH238133   4.176   2.649   7.932 -0.1149  0.0311  0.0986
 5525TIP3    H138134   4.224   2.642   8.014  0.6348  3.1658  0.0441
 5525TIP3    H238135   4.244   2.641   7.864 -0.4322 -0.5367 -0.1550
 5526TIP3   OH238136   4.316   0.311   0.487  0.3557 -0.0741  0.3160
 5526TIP3    H138137   4.289   0.398   0.516  1.4660  0.2081  0.5721
 5526TIP3    H238138   4.402   0.325   0.447 -0.5696 -0.6555 -2.0489
 5527TIP3   OH238139   2.284   5.968   3.160 -0.1165 -0.0480  0.8555
 5527TIP3    H138140   2.260   5.888   3.112  2.1063 -0.8597  0.9740
 5527TIP3    H238141   2.247   6.039   3.108 -0.7039 -1.0818 -0.1962
 5528TIP3   OH238142   3.140   4.813   2.172 -0.1219  0.0542  0.0709
 5528TIP3    H138143   3.077   4.744   2.148  0.2470 -0.1124 -0.4369
 5528TIP3    H238144   3.174   4.785   2.257  0.5279 -0.7631 -0.4376
 5529TIP3   OH238145   4.929   5.839   8.840  0.1877  0.3027 -0.9077
 5529TIP3    H138146   5.024   5.837   8.854 -0.0868  0.8433  1.4221
 5529TIP3    H238147   4.914   5.919   8.790  0.8558  0.9344 -0.1297
 5530TIP3   OH238148   6.776   4.042   2.829  0.0123  0.3240  0.1181
 5530TIP3    H138149   6.783   4.098   2.906  0.5514  3.1849 -1.8452
 5530TIP3    H238150   6.685   4.052   2.800 -0.2675 -0.9561  0.4468
 5531TIP3   OH238151   4.620   6.071   1.322 -0.3791  0.6738  0.0192
 5531TIP3    H138152   4.559   6.023   1.266  0.2331  0.0633 -0.1367
 5531TIP3    H238153   4.585   6.160   1.325 -1.4974  0.2487  0.2556
 5532TIP3   OH238154   6.291   2.173   1.262 -0.3685  0.0573  0.7059
 5532TIP3    H138155   6.297   2.185   1.357 -0.0898 -0.4920  0.7628
 5532TIP3    H238156   6.296   2.078   1.250  2.1020  0.2202 -0.0300
 5533TIP3   OH238157   0.933   0.543   1.147  0.2841 -0.1022  0.5812
 5533TIP3    H138158   1.019   0.584   1.134  1.3130 -2.5914 -1.2074
 5533TIP3    H238159   0.953   0.458   1.187 -1.0793 -1.5338 -1.5915
 5534TIP3   OH238160   0.508   4.076   8.201  0.4610 -0.3903 -0.0983
 5534TIP3    H138161   0.580   4.118   8.154  0.9585 -0.2483  0.7669
 5534TIP3    H238162   0.455   4.148   8.234  0.2709 -0.4813 -0.2031
 5535TIP3   OH238163   2.384   1.872   8.812 -0.4032  1.0657  0.4403
 5535TIP3    H138164   2.431   1.907   8.888 -0.0854  1.3941  0.0950
 5535TIP3    H238165   2.386   1.777   8.825 -0.1825  1.1088  0.7468
 5536TIP3   OH238166   2.542   2.824   0.948  0.2700 -0.1636 -0.2940
 5536TIP3    H138167   2.496   2.846   0.868 -0.2624 -1.8440 -0.5041
 5536TIP3    H238168   2.473   2.810   1.013  0.6080 -0.2948  0.0436
 5537TIP3   OH238169   4.658   6.442   7.989  0.1124 -0.3080 -0.2232
 5537TIP3    H138170   4.734   6.485   8.028 -0.2375  1.3693 -1.2919
 5537TIP3    H238171   4.666   6.460   7.895 -0.7132 -1.5659 -0.5585
 5538TIP3   OH238172   5.368   4.463   1.463 -0.1150  0.6344 -0.0358
 5538TIP3    H138173   5.388   4.540   1.517 -1.5390  1.1614 -0.2286
 5538TIP3    H238174   5.343   4.499   1.378  1.0061 -0.1443 -0.7090
 5539TIP3   OH238175   2.110   1.916   8.021 -0.0138 -0.2913 -0.2180
 5539TIP3    H138176   2.064   1.999   8.005 -0.7229 -0.2104  1.9758
 5539TIP3    H238177   2.181   1.916   7.957 -0.3244  1.7400 -0.6455
 5540TIP3   OH238178   0.897   2.576   6.937 -0.2711 -0.4496 -0.7010
 5540TIP3    H138179   0.813   2.620   6.923 -1.5218 -2.3094  0.4548
 5540TIP3    H238180   0.963   2.640   6.911 -1.9403  2.1714  1.0827
 5541TIP3   OH238181   3.133   0.264   3.204 -0.0665  0.3346 -0.0620
 5541TIP3    H138182   3.177   0.328   3.149 -0.0611 -0.2365 -0.7452
 5541TIP3    H238183   3.096   0.314   3.276 -2.3560  1.5282 -1.9379
 5542TIP3   OH238184   1.772   4.363   7.575 -0.3272  0.0276 -0.0753
 5542TIP3    H138185   1.724   4.363   7.658  2.5241  1.6375  1.7315
 5542TIP3    H238186   1.831   4.288   7.581 -1.1794 -0.8089 -1.4471
 5543TIP3   OH238187   2.179   0.656   8.162 -0.2655  0.4507 -0.1748
 5543TIP3    H138188   2.269   0.635   8.138 -0.1975  0.3705  0.1381
 5543TIP3    H238189   2.125   0.597   8.110 -0.1903  1.1816 -1.1170
 5544TIP3   OH238190   0.165   4.636   1.076  0.0570 -0.1740 -0.0833
 5544TIP3    H138191   0.161   4.697   1.002 -0.4571 -0.0848  0.0108
 5544TIP3    H238192   0.216   4.682   1.143  1.0642 -0.5062 -0.6052
 5545TIP3   OH238193   1.505   6.358   8.239 -0.0466 -0.1579  0.4219
 5545TIP3    H138194   1.443   6.313   8.182 -0.2933 -0.2072  0.7281
 5545TIP3    H238195   1.469   6.347   8.327  0.0331  0.4117  0.5268
 5546TIP3   OH238196   4.275   6.591   0.240 -0.4544 -0.2565 -0.4196
 5546TIP3    H138197   4.200   6.540   0.270 -1.0653  1.4465  1.1010
 5546TIP3    H238198   4.351   6.544   0.276 -0.8117 -1.4079 -1.0958
 5547TIP3   OH238199   3.821   3.804   0.521 -0.2077  0.5158 -0.0941
 5547TIP3    H138200   3.791   3.722   0.482 -0.5269 -0.4181  1.9982
 5547TIP3    H238201   3.741   3.847   0.552  0.1595  0.3031  1.2116
 5548TIP3   OH238202   2.931   6.629   0.183 -0.3906  0.3371 -0.8101
 5548TIP3    H138203   2.905   6.695   0.247  2.1728  0.9690 -0.2670
 5548TIP3    H238204   2.934   6.676   0.100  1.5348  1.0504 -0.4074
 5549TIP3   OH238205   1.647   5.975   7.373 -0.0639 -0.1992 -0.1286
 5549TIP3    H138206   1.712   5.980   7.443 -0.0608 -0.9630 -0.0679
 5549TIP3    H238207   1.646   5.883   7.348  1.4962  0.3859 -2.6461
 5550TIP3   OH238208   2.945   6.271   2.690 -0.1392 -0.1864  0.2974
 5550TIP3    H138209   2.981   6.359   2.691 -1.6919  0.5094 -0.8525
 5550TIP3    H238210   3.021   6.214   2.678  0.7489  1.0886 -0.3836
 5551TIP3   OH238211   0.627   6.126   8.442 -0.1260  0.1760  0.0009
 5551TIP3    H138212   0.633   6.120   8.346 -1.0543  0.8794 -0.1236
 5551TIP3    H238213   0.534   6.145   8.458 -0.1846 -0.9783  1.1112
 5552TIP3   OH238214   1.213   5.162   0.970  0.3290 -0.1391  0.2751
 5552TIP3    H138215   1.136   5.196   0.925  0.3192  0.3360  0.6400
 5552TIP3    H238216   1.276   5.233   0.967  0.3044 -0.0686  1.0538
 5553TIP3   OH238217   1.541   5.721   8.326 -0.7273 -0.0864  0.5683
 5553TIP3    H138218   1.538   5.745   8.234  1.7318  1.0698  0.7138
 5553TIP3    H238219   1.490   5.789   8.370  0.6313  1.1692  0.3027
 5554TIP3   OH238220   5.718   2.709   1.172  0.5607  0.1119  0.2292
 5554TIP3    H138221   5.693   2.679   1.259 -1.0304  1.3001  0.2191
 5554TIP3    H238222   5.681   2.797   1.165  1.4828  0.4182 -1.2977
 5555TIP3   OH238223   6.188   4.074   1.223  0.7491  1.1084  0.9442
 5555TIP3    H138224   6.241   4.153   1.216  1.5576  0.6135  1.2954
 5555TIP3    H238225   6.206   4.040   1.311  0.3507  0.5829  0.8325
 5556TIP3   OH238226   3.357   3.348   0.599  0.3488 -0.1728 -0.7750
 5556TIP3    H138227   3.358   3.414   0.530 -0.1859  0.3612 -0.2777
 5556TIP3    H238228   3.265   3.325   0.609  0.6475 -2.1758 -2.0421
 5557TIP3   OH238229   5.019   2.233   1.374  0.7342  0.1990  0.1382
 5557TIP3    H138230   4.978   2.316   1.349 -0.4289 -0.4684 -0.2328
 5557TIP3    H238231   4.979   2.168   1.316  2.2865 -0.5040 -0.2057
 5558TIP3   OH238232   0.888   1.612   0.046 -0.4513  0.1305  0.0772
 5558TIP3    H138233   0.883   1.645  -0.044 -1.7926  0.7921  0.3646
 5558TIP3    H238234   0.912   1.520   0.037 -0.6906  0.1597 -0.9590
 5559TIP3   OH238235   2.483   3.017   0.738 -0.0915  0.2437  0.5477
 5559TIP3    H138236   2.489   2.974   0.653  0.0670  2.9881 -0.9730
 5559TIP3    H238237   2.391   3.044   0.745  0.1739  1.2144  0.5474
 5560TIP3   OH238238   5.045   0.467   7.034 -0.8259 -0.6064 -0.1487
 5560TIP3    H138239   4.965   0.448   6.985 -1.8273  0.9455  0.8168
 5560TIP3    H238240   5.035   0.419   7.116 -0.5385 -0.7959 -0.2225
 5561TIP3   OH238241   0.757   0.835   7.202  0.3171  0.2650 -0.7496
 5561TIP3    H138242   0.825   0.889   7.242  0.0640  0.5096 -0.6459
 5561TIP3    H238243   0.708   0.896   7.147 -0.6554  0.3767  0.2229
 5562TIP3   OH238244   5.653   6.282   2.444  0.8465 -0.4643 -0.5555
 5562TIP3    H138245   5.622   6.192   2.453 -2.3133  0.5943  0.3327
 5562TIP3    H238246   5.726   6.287   2.506  0.3089 -2.1068  0.2895
 5563TIP3   OH238247   2.229   3.949   0.630  0.0988 -0.4555 -0.4239
 5563TIP3    H138248   2.181   3.960   0.547  0.4902 -1.3589 -0.7854
 5563TIP3    H238249   2.289   4.023   0.633 -3.7400  3.0131  1.8554
 5564TIP3   OH238250   5.861   3.734   1.493  0.3257 -0.7462 -0.0155
 5564TIP3    H138251   5.839   3.793   1.421 -1.4402 -1.5789 -0.2073
 5564TIP3    H238252   5.831   3.780   1.571 -1.0257 -1.3349 -0.1625
 5565TIP3   OH238253   5.255   0.425   0.550  0.4215  0.0405 -0.3666
 5565TIP3    H138254   5.329   0.369   0.576 -0.7470 -0.9588  0.9529
 5565TIP3    H238255   5.294   0.489   0.490  2.6912  0.5479  1.4807
 5566TIP3   OH238256   0.337   4.656   7.615 -0.2278  0.1174  0.0850
 5566TIP3    H138257   0.413   4.709   7.591  0.6122 -1.2055 -0.2547
 5566TIP3    H238258   0.368   4.601   7.688 -0.0396 -2.2230 -1.6547
 5567TIP3   OH238259   5.850   4.708   1.345 -0.7826  0.4821  0.2391
 5567TIP3    H138260   5.868   4.688   1.253  1.4460 -0.8284  0.8767
 5567TIP3    H238261   5.854   4.803   1.350  0.5815  0.5156 -0.7768
 5568TIP3   OH238262   6.072   2.464   0.869 -0.2912  0.0804  0.1592
 5568TIP3    H138263   6.123   2.418   0.935 -0.1802  0.9597  0.6947
 5568TIP3    H238264   6.007   2.514   0.918 -1.5016 -0.7830 -0.4991
 5569TIP3   OH238265   2.408   6.168   1.285  0.0929  0.3159 -0.3291
 5569TIP3    H138266   2.383   6.184   1.376 -1.1520  1.2382 -0.7946
 5569TIP3    H238267   2.335   6.117   1.248 -0.0314  1.0254 -1.1142
 5570TIP3   OH238268   2.696   4.517   7.803  0.0118  1.0602  0.7683
 5570TIP3    H138269   2.660   4.567   7.729 -0.5416  0.7731  0.8336
 5570TIP3    H238270   2.790   4.534   7.800 -0.0906  1.6086  0.4162
 5571TIP3   OH238271   0.831   3.101   8.594 -0.6529  0.1713 -0.7460
 5571TIP3    H138272   0.915   3.090   8.549  0.1624  1.4368  0.3891
 5571TIP3    H238273   0.767   3.064   8.534  0.6901 -0.6893 -1.7155
 5572TIP3   OH238274   4.983   3.021   0.529 -0.0081 -0.4178 -0.0630
 5572TIP3    H138275   4.897   3.060   0.547 -0.1036 -0.5296 -0.2692
 5572TIP3    H238276   5.044   3.095   0.534  0.1527 -0.6373  1.9649
 5573TIP3   OH238277   3.100   2.810   7.807 -0.0391 -0.8418 -0.5230
 5573TIP3    H138278   3.140   2.746   7.865 -1.6245  0.2234  1.8910
 5573TIP3    H238279   3.136   2.894   7.835 -0.4065 -0.3436 -1.4975
 5574TIP3   OH238280   2.785   6.794   1.882  0.3366 -0.0265  0.2844
 5574TIP3    H138281   2.762   6.775   1.973 -1.4693 -0.2933 -0.2022
 5574TIP3    H238282   2.783   6.890   1.877 -0.3182 -0.0307  0.3516
 5575TIP3   OH238283   4.966   0.210   8.283 -0.0883 -0.2264  0.4790
 5575TIP3    H138284   4.904   0.208   8.210  0.2537 -0.5170  0.1928
 5575TIP3    H238285   4.915   0.179   8.358  0.0513 -1.7393 -0.0233
 5576TIP3   OH238286   6.223   6.503   7.614  0.2692  0.3783 -0.2347
 5576TIP3    H138287   6.274   6.437   7.661  1.3519  0.3915 -1.3115
 5576TIP3    H238288   6.212   6.575   7.676  0.9937  0.0818  0.2464
 5577TIP3   OH238289   4.214   0.679   6.957  0.0044  0.3540 -0.4076
 5577TIP3    H138290   4.187   0.766   6.928 -0.2815  0.1043 -0.9142
 5577TIP3    H238291   4.140   0.645   7.006  0.0550  0.3361 -0.3433
 5578TIP3   OH238292   6.008   0.173   6.285 -0.3911 -0.4585  0.3599
 5578TIP3    H138293   5.955   0.107   6.329 -0.4574  0.9287  2.5354
 5578TIP3    H238294   6.063   0.210   6.355  0.2790  1.1519 -0.9548
 5579TIP3   OH238295   4.732   3.827   0.384 -0.0091 -0.9491 -0.8293
 5579TIP3    H138296   4.672   3.888   0.340  0.3608 -0.0958 -0.1789
 5579TIP3    H238297   4.685   3.802   0.464  0.4488 -0.3517 -0.3651
 5580TIP3   OH238298   3.324   2.590   7.530 -0.6247 -0.2251  0.1698
 5580TIP3    H138299   3.336   2.563   7.622 -0.5998 -1.5483 -0.2001
 5580TIP3    H238300   3.313   2.508   7.483  0.0259  0.4079 -1.1192
 5581TIP3   OH238301   4.398   2.074   6.889  0.4740  0.0917  0.1586
 5581TIP3    H138302   4.337   2.138   6.850 -1.4418 -1.9118 -0.3430
 5581TIP3    H238303   4.481   2.122   6.896 -0.8527  2.6371 -0.1102
 5582TIP3   OH238304   1.751   3.965   2.328  0.2688  0.4733  0.2960
 5582TIP3    H138305   1.765   3.891   2.387  0.4003  1.3034  1.3388
 5582TIP3    H238306   1.758   3.928   2.241  0.4359 -0.7242  0.8022
 5583TIP3   OH238307   0.111   1.021   2.138  0.3420 -0.5623 -0.7415
 5583TIP3    H138308   0.048   1.088   2.163  1.4633  1.2354 -2.4219
 5583TIP3    H238309   0.163   1.061   2.069  1.0571 -3.2125 -1.8895
 5584TIP3   OH238310   5.252   6.626   8.054  0.4505 -0.3310  0.0423
 5584TIP3    H138311   5.191   6.580   7.996 -0.5093 -0.2306  0.9560
 5584TIP3    H238312   5.225   6.717   8.049  0.4082 -0.3141  0.6089
 5585TIP3   OH238313   3.788   0.709   0.150  0.4586 -0.3637 -0.2366
 5585TIP3    H138314   3.813   0.676   0.064  0.7764 -1.5607  0.2949
 5585TIP3    H238315   3.843   0.660   0.212 -0.6425 -0.4288  0.7270
 5586TIP3   OH238316   3.521   3.443   7.380  0.4802  0.1715 -0.8393
 5586TIP3    H138317   3.530   3.384   7.305  0.2360 -1.3867  0.3108
 5586TIP3    H238318   3.477   3.520   7.344 -2.7640 -1.8684 -1.7356
 5587TIP3   OH238319   4.914   0.361   0.068  0.0446 -0.3221 -0.6233
 5587TIP3    H138320   4.837   0.403   0.028 -1.3463 -0.8029  1.4104
 5587TIP3    H238321   4.946   0.425   0.131  0.7368 -0.5176 -0.7706
 5588TIP3   OH238322   6.485   0.947   7.402  0.2489  0.5447  0.0414
 5588TIP3    H138323   6.445   0.900   7.329  0.9776 -0.6530  0.3817
 5588TIP3    H238324   6.527   1.023   7.362  0.0074  0.3015 -0.6832
 5589TIP3   OH238325   4.916   6.704   8.685 -0.1810  0.2552 -0.2724
 5589TIP3    H138326   4.889   6.685   8.595 -1.3700  1.2377 -0.1472
 5589TIP3    H238327   4.954   6.792   8.680 -0.0097  0.2074  0.1385
 5590TIP3   OH238328   6.144   2.045   0.021 -0.0054  0.3136  0.2470
 5590TIP3    H138329   6.223   2.089  -0.012  0.1349  1.0456  1.4725
 5590TIP3    H238330   6.126   2.089   0.105 -1.0809 -0.5892  0.5106
 5591TIP3   OH238331   6.673   0.658   1.391 -0.1773 -0.2902  0.0809
 5591TIP3    H138332   6.733   0.645   1.317 -0.5246 -0.8792 -0.1033
 5591TIP3    H238333   6.731   0.660   1.468 -0.0117 -2.7581  0.1161
 5592TIP3   OH238334   6.411   2.092   0.281  0.2979 -0.5441  0.2435
 5592TIP3    H138335   6.325   2.130   0.260  0.5678 -0.2973 -0.4622
 5592TIP3    H238336   6.473   2.163   0.267  0.6285 -0.7507  0.6556
 5593TIP3   OH238337   6.684   0.790   2.410  0.1028  0.2567 -0.0958
 5593TIP3    H138338   6.779   0.801   2.420  0.3598 -1.3867 -0.3158
 5593TIP3    H238339   6.651   0.877   2.389  1.3870  1.1215  1.2736
 5594TIP3   OH238340   0.208   6.805   7.779 -0.6508  0.7349 -0.0797
 5594TIP3    H138341   0.138   6.847   7.728 -2.0654 -1.2318  0.1165
 5594TIP3    H238342   0.254   6.750   7.716 -0.3087  0.7864  0.1252
 5595TIP3   OH238343   0.128   5.073   1.693 -0.3426 -0.1718 -0.1996
 5595TIP3    H138344   0.067   4.999   1.694 -1.5998  0.8308 -0.0913
 5595TIP3    H238345   0.114   5.115   1.609 -1.7962  1.6220  0.8517
 5596TIP3   OH238346   2.352   0.591   7.544  0.5111 -0.1332  0.4508
 5596TIP3    H138347   2.405   0.555   7.615  1.9132 -2.1284 -1.4482
 5596TIP3    H238348   2.392   0.676   7.526  0.1526  0.3864  1.9729
 5597TIP3   OH238349   1.782   3.169   0.434 -0.1802  0.2539 -0.2218
 5597TIP3    H138350   1.773   3.148   0.527  0.5051  1.7180  0.2163
 5597TIP3    H238351   1.872   3.200   0.425 -0.1076 -0.2584 -1.4731
 5598TIP3   OH238352   0.939   0.841   2.829  0.4264 -0.0554  0.3752
 5598TIP3    H138353   0.953   0.832   2.735  0.5409  0.4277  0.3468
 5598TIP3    H238354   0.885   0.919   2.839  0.1632 -0.2716  0.6928
 5599TIP3   OH238355   6.597   6.512   0.414 -0.2559 -0.0663 -0.0004
 5599TIP3    H138356   6.528   6.459   0.374 -0.6654  0.2442  0.2923
 5599TIP3    H238357   6.575   6.514   0.507 -1.0397  1.7870 -0.1919
 5600TIP3   OH238358   4.397   0.787   8.356  0.2960 -0.4022 -0.2130
 5600TIP3    H138359   4.395   0.815   8.265 -1.5969 -1.2567 -0.4808
 5600TIP3    H238360   4.369   0.864   8.406 -0.9107 -0.5698 -0.5885
 5601TIP3   OH238361   3.953   5.252   7.330 -0.5186  0.1351 -0.0694
 5601TIP3    H138362   3.872   5.244   7.281 -1.2336 -0.2512  1.1262
 5601TIP3    H238363   3.960   5.346   7.350  0.2145  0.4308 -1.5711
 5602TIP3   OH238364   4.304   2.056   0.296 -0.0999 -0.0611  0.2971
 5602TIP3    H138365   4.381   2.083   0.246 -0.6532  1.5714  0.2567
 5602TIP3    H238366   4.339   2.023   0.379  0.8016 -2.4468 -0.9585
 5603TIP3   OH238367   4.205   1.589   7.760  0.2326  0.4532  0.1979
 5603TIP3    H138368   4.124   1.546   7.787  0.1532  1.3977  1.5390
 5603TIP3    H238369   4.271   1.557   7.822  0.1956  2.1054  1.1349
 5604TIP3   OH238370   4.300   5.827   0.896 -0.8148  0.3106 -0.1902
 5604TIP3    H138371   4.375   5.836   0.837 -1.3011 -0.1888 -0.8980
 5604TIP3    H238372   4.225   5.817   0.838 -1.3318  0.0030  0.5186
 5605TIP3   OH238373   5.217   1.886   1.746  0.1323  0.0532 -0.0594
 5605TIP3    H138374   5.209   1.946   1.672 -0.7250 -0.3424 -0.3008
 5605TIP3    H238375   5.144   1.909   1.803  1.4539  1.1531  1.2876
 5606TIP3   OH238376   0.827   6.408   2.381 -0.4157  0.1057  0.1466
 5606TIP3    H138377   0.921   6.400   2.400 -0.3156 -0.0583 -0.4072
 5606TIP3    H238378   0.785   6.346   2.440 -0.2883  1.0429  1.2704
 5607TIP3   OH238379   5.266   4.407   8.562  0.1653 -0.2510  0.4109
 5607TIP3    H138380   5.328   4.362   8.505  1.2901 -0.2053  1.5630
 5607TIP3    H238381   5.183   4.360   8.549  0.6893 -0.9872 -0.3535
 5608TIP3   OH238382   6.747   1.674   8.262  0.9326  0.7855  0.5370
 5608TIP3    H138383   6.830   1.626   8.263  0.5670  0.0965 -0.7217
 5608TIP3    H238384   6.692   1.627   8.326  1.1045  0.4737  0.4583
 5609TIP3   OH238385   4.492   2.479   7.048 -0.0275 -0.0370  0.4596
 5609TIP3    H138386   4.484   2.519   6.961 -0.2864  0.1968  0.5916
 5609TIP3    H238387   4.530   2.393   7.031 -3.2554 -1.4618 -0.2674
 5610TIP3   OH238388   6.306   5.276   7.271  0.0348 -0.5349  0.4844
 5610TIP3    H138389   6.399   5.291   7.285 -0.1301  0.9491  0.2321
 5610TIP3    H238390   6.301   5.190   7.230  1.2796 -0.6838  0.6110
 5611TIP3   OH238391   4.600   4.331   7.282 -0.5833 -0.2649  0.1145
 5611TIP3    H138392   4.686   4.350   7.244  0.6642 -0.5992  2.5265
 5611TIP3    H238393   4.571   4.253   7.236  1.6914 -1.7278  0.9371
 5612TIP3   OH238394   0.030   0.176   1.600  0.7579  0.2198  0.3496
 5612TIP3    H138395   0.069   0.144   1.681  1.0342 -1.3581 -0.3821
 5612TIP3    H238396   0.030   0.101   1.541 -1.1997  0.8064 -0.4905
 5613TIP3   OH238397   6.221   4.388   2.399 -0.2024  0.0558  0.2388
 5613TIP3    H138398   6.193   4.445   2.327 -0.8441  0.5541  0.8681
 5613TIP3    H238399   6.316   4.400   2.404 -0.2562  0.6149 -0.0190
 5614TIP3   OH238400   2.933   1.773   7.622  0.1308 -0.1192  0.6326
 5614TIP3    H138401   3.015   1.789   7.669  0.4229 -0.5909  0.2872
 5614TIP3    H238402   2.937   1.830   7.546 -0.6240  1.1174  1.4835
 5615TIP3   OH238403   4.044   0.944   8.525 -0.1267  0.1735 -0.2446
 5615TIP3    H138404   4.101   0.971   8.597 -1.4315  4.4078 -0.5439
 5615TIP3    H238405   3.959   0.928   8.566 -0.1325 -0.4802 -0.4992
 5616TIP3   OH238406   1.388   6.695   8.443  0.2979 -0.3124 -0.0834
 5616TIP3    H138407   1.371   6.708   8.350  0.1522  0.9919  0.1186
 5616TIP3    H238408   1.315   6.737   8.488  0.0682 -1.4229  0.6266
 5617TIP3   OH238409   3.374   5.076   2.015 -0.9141 -0.3502  0.4126
 5617TIP3    H138410   3.442   5.076   2.082 -1.1023  1.1544  0.6402
 5617TIP3    H238411   3.300   5.122   2.056 -0.9685  0.7827 -0.8855
 5618TIP3   OH238412   4.760   3.147   7.594  0.4161 -0.4820  0.3036
 5618TIP3    H138413   4.691   3.213   7.598 -0.2902 -1.2246  0.4402
 5618TIP3    H238414   4.778   3.137   7.500 -0.6512 -1.2917  0.1700
 5619TIP3   OH238415   2.211   5.121   1.147 -0.2599  0.0317  0.0873
 5619TIP3    H138416   2.252   5.043   1.109  0.9507 -0.2643  1.8504
 5619TIP3    H238417   2.257   5.134   1.230 -1.9455  1.3250  0.8885
 5620TIP3   OH238418   6.788   3.609   7.046  0.1495  0.0860  0.2935
 5620TIP3    H138419   6.831   3.531   7.083 -0.4590 -0.0925  0.6437
 5620TIP3    H238420   6.783   3.592   6.952 -0.7300 -0.6776  0.4701
 5621TIP3   OH238421   4.293   2.330   0.020 -0.3142  0.3465  0.2996
 5621TIP3    H138422   4.237   2.390   0.069  0.6349  0.3486  1.4226
 5621TIP3    H238423   4.328   2.383  -0.052 -1.5339  0.4024 -0.2818
 5622TIP3   OH238424   1.053   4.309   8.155 -0.2451  0.4120  0.0777
 5622TIP3    H138425   1.094   4.391   8.183  3.4002 -1.4158  0.7756
 5622TIP3    H238426   1.064   4.308   8.060  0.2348  0.5099  0.1291
 5623TIP3   OH238427   1.093   1.940   0.672  0.3696 -0.1624  0.2679
 5623TIP3    H138428   1.157   1.929   0.743  0.8912 -0.1747 -0.1948
 5623TIP3    H238429   1.139   1.910   0.594  0.6278  1.9537 -0.4698
 5624TIP3   OH238430   6.379   0.802   2.232 -0.4069  0.2486 -0.2447
 5624TIP3    H138431   6.416   0.853   2.159  1.2951  0.6367  0.8232
 5624TIP3    H238432   6.339   0.868   2.289  3.7580  1.0040  2.3203
 5625TIP3   OH238433   4.676   4.749   7.500 -0.0492  0.0864 -0.5141
 5625TIP3    H138434   4.682   4.669   7.551  1.0953 -1.0476 -2.3094
 5625TIP3    H238435   4.723   4.815   7.551  0.1467 -0.7256  0.3651
 5626TIP3   OH238436   5.429   2.508   2.168 -0.2926  0.2927  0.7546
 5626TIP3    H138437   5.504   2.449   2.177 -0.8046 -0.4901  0.0840
 5626TIP3    H238438   5.461   2.577   2.109 -0.4480 -0.7099 -0.5626
 5627TIP3   OH238439   6.790   5.936   8.691  0.3086 -0.0717  0.7268
 5627TIP3    H138440   6.830   5.849   8.702 -0.1067 -0.1902  1.3286
 5627TIP3    H238441   6.712   5.933   8.746 -1.4886 -0.4316 -1.6750
 5628TIP3   OH238442   6.395   2.606   8.367 -0.2742 -0.0316 -0.2281
 5628TIP3    H138443   6.364   2.619   8.278 -0.3277  0.1531 -0.1832
 5628TIP3    H238444   6.414   2.694   8.399 -1.1533 -0.0145  0.2731
 5629TIP3   OH238445   3.506   5.411   1.077  0.0495 -0.0223  0.1896
 5629TIP3    H138446   3.541   5.330   1.115 -1.1844 -0.7194 -0.1220
 5629TIP3    H238447   3.438   5.438   1.138 -0.2291  0.2201 -0.2254
 5630TIP3   OH238448   0.150   2.029   1.623  0.5607 -0.2325  0.1488
 5630TIP3    H138449   0.238   2.067   1.617  0.7648 -0.7358 -0.0778
 5630TIP3    H238450   0.114   2.040   1.536  0.1183  0.6336  0.4327
 5631TIP3   OH238451   6.069   2.593   1.505  0.1723  0.1757 -0.0008
 5631TIP3    H138452   6.017   2.538   1.446 -1.0558  0.4269  0.8225
 5631TIP3    H238453   6.005   2.650   1.548  1.0676  0.1260  1.4448
 5632TIP3   OH238454   3.950   6.662   7.549 -0.3620  0.1317 -0.0540
 5632TIP3    H138455   3.931   6.632   7.460  1.8792  1.4455 -1.0751
 5632TIP3    H238456   3.957   6.758   7.541  0.0571  0.2672  1.5125
 5633TIP3   OH238457   1.431   4.329   1.749 -0.5454 -0.5894 -0.1366
 5633TIP3    H138458   1.369   4.367   1.811  0.7069  0.8585  0.2839
 5633TIP3    H238459   1.463   4.403   1.698 -0.2964 -1.5260 -1.3887
 5634TIP3   OH238460   2.927   6.554   0.910  0.4903 -0.2545 -0.1368
 5634TIP3    H138461   2.906   6.567   0.818 -0.4894 -0.8958 -0.0235
 5634TIP3    H238462   2.869   6.615   0.956  1.9871  1.1101  0.0109
 5635TIP3   OH238463   2.395   5.980   0.849  0.3075 -0.0904  0.3224
 5635TIP3    H138464   2.334   6.008   0.917 -3.6005 -1.4455 -2.2710
 5635TIP3    H238465   2.363   6.021   0.769  1.2257 -2.8638 -1.6336
 5636TIP3   OH238466   3.779   2.532   1.250 -0.5016  0.2099 -0.0500
 5636TIP3    H138467   3.808   2.604   1.306  0.1045  0.7200 -0.9925
 5636TIP3    H238468   3.695   2.562   1.215 -0.3050  0.4173 -0.3508
 5637TIP3   OH238469   0.828   3.758   0.296 -0.0060  0.2382  0.2207
 5637TIP3    H138470   0.826   3.844   0.255 -0.4017 -0.3531 -1.0434
 5637TIP3    H238471   0.855   3.698   0.227  3.1480 -0.3209  1.7852
 5638TIP3   OH238472   0.819   4.389   2.219  0.5564  0.5184 -0.4365
 5638TIP3    H138473   0.724   4.385   2.203 -0.0452  2.1850  2.1413
 5638TIP3    H238474   0.827   4.391   2.314  3.1938  0.8646 -0.5976
 5639TIP3   OH238475   1.945   5.171   1.359  0.0218 -0.1330  0.1562
 5639TIP3    H138476   1.941   5.117   1.281 -0.2464  0.2759 -0.1165
 5639TIP3    H238477   2.038   5.191   1.370  0.1917 -1.0660  0.5571
 5640TIP3   OH238478   1.424   2.351   8.746 -0.1856  0.0489 -0.1211
 5640TIP3    H138479   1.414   2.438   8.706  0.7644  0.0921 -0.2886
 5640TIP3    H238480   1.339   2.309   8.734  0.1616 -0.0891 -2.5827
 5641TIP3   OH238481   1.689   5.394   1.070 -0.0762  0.4348 -0.3776
 5641TIP3    H138482   1.684   5.361   1.159  0.8097  0.6588 -0.2397
 5641TIP3    H238483   1.699   5.489   1.080  0.6202  0.4013 -0.6935
 5642TIP3   OH238484   1.770   0.074   8.701  0.2571  0.3197  0.5820
 5642TIP3    H138485   1.760   0.159   8.659  1.0222 -0.4612 -1.3410
 5642TIP3    H238486   1.727   0.013   8.641  1.2981 -0.8529  0.9858
 5643TIP3   OH238487   3.065   0.014   7.568  0.1294 -0.1770  0.4968
 5643TIP3    H138488   3.046   0.092   7.516 -3.5383 -0.6035  0.9714
 5643TIP3    H238489   3.018  -0.057   7.524  0.5511 -1.4180  1.9689
 5644TIP3   OH238490   3.155   6.716   0.031 -0.4365 -0.3936 -0.2761
 5644TIP3    H138491   3.078   6.771   0.039 -0.9366 -0.8930 -1.4155
 5644TIP3    H238492   3.141   6.646   0.095 -0.6788 -0.2024 -0.1193
 5645TIP3   OH238493   4.322   1.568   8.790  0.0286 -0.3019  0.5000
 5645TIP3    H138494   4.300   1.630   8.860 -2.1274  1.5772 -1.6873
 5645TIP3    H238495   4.391   1.612   8.740  0.1650 -0.7484  0.2883
 5646TIP3   OH238496   5.861   4.321   2.348 -0.0071  0.2505  0.4219
 5646TIP3    H138497   5.923   4.366   2.406 -0.0383 -0.1682  0.7868
 5646TIP3    H238498   5.810   4.392   2.308 -0.9523  0.5230  1.9852
 5647TIP3   OH238499   3.175   5.079   0.585  0.2855 -0.3530 -0.0544
 5647TIP3    H138500   3.105   5.067   0.521  0.5725 -0.9829 -0.2656
 5647TIP3    H238501   3.246   5.023   0.553  1.0332  0.5761 -0.0620
 5648TIP3   OH238502   5.338   4.917   8.719 -0.3439  0.3771 -0.4151
 5648TIP3    H138503   5.409   4.880   8.772 -0.6419  1.3846  0.7247
 5648TIP3    H238504   5.258   4.884   8.759 -0.6022  1.8981  0.3953
 5649TIP3   OH238505   4.609   0.272   2.335 -0.0521  0.1934 -0.1969
 5649TIP3    H138506   4.670   0.255   2.407  0.8665  2.2322 -0.4297
 5649TIP3    H238507   4.535   0.317   2.375 -1.0772 -1.5165 -0.0606
 5650TIP3   OH238508   1.712   6.021   1.429 -0.0169 -0.0229  0.4640
 5650TIP3    H138509   1.712   6.116   1.433  1.2754  0.1812 -2.1094
 5650TIP3    H238510   1.651   5.994   1.497 -2.5293  2.7319 -0.4602
 5651TIP3   OH238511   5.720   5.517   0.814 -0.3708  0.9655 -0.2811
 5651TIP3    H138512   5.758   5.474   0.891  1.5067  2.9300  0.0114
 5651TIP3    H238513   5.756   5.469   0.740 -0.1182  0.6214  0.0595
 5652TIP3   OH238514   0.421   4.472   1.404  0.1335 -0.5611  0.3585
 5652TIP3    H138515   0.412   4.533   1.476 -0.8839  1.4306 -1.3630
 5652TIP3    H238516   0.503   4.497   1.361 -0.1622 -0.5666 -0.2144
 5653TIP3   OH238517   6.435   3.213   7.924  0.2754 -0.2097  0.1977
 5653TIP3    H138518   6.388   3.248   7.999 -2.2092  0.9797 -1.7321
 5653TIP3    H238519   6.472   3.131   7.954 -2.1936 -0.7041  2.2428
 5654TIP3   OH238520   0.456   5.899   1.094  0.0442 -0.6665  0.1343
 5654TIP3    H138521   0.476   5.974   1.149  0.3214 -1.3148  0.9395
 5654TIP3    H238522   0.453   5.934   1.005  0.1420  0.2953  0.5042
 5655TIP3   OH238523   6.365   2.398   2.071  0.7339  0.6811  0.0601
 5655TIP3    H138524   6.395   2.465   2.132 -0.7709  2.2816 -0.8279
 5655TIP3    H238525   6.438   2.386   2.010  1.3302  0.8892  0.7214
 5656TIP3   OH238526   3.520   5.652   8.306  0.3220 -0.0931 -0.4705
 5656TIP3    H138527   3.596   5.606   8.271 -0.3777 -0.8265 -1.0742
 5656TIP3    H238528   3.461   5.662   8.231 -1.0589 -1.3838  0.3705
 5657TIP3   OH238529   6.529   0.288   0.180 -0.5030  0.3135  0.4065
 5657TIP3    H138530   6.454   0.303   0.238 -0.3244  4.0972 -0.0609
 5657TIP3    H238531   6.586   0.230   0.230 -2.4257 -0.3713  1.9740
 5658TIP3   OH238532   6.532   1.032   8.436 -0.4575 -0.2908  0.5530
 5658TIP3    H138533   6.617   0.994   8.457 -0.3000  0.3145  1.0437
 5658TIP3    H238534   6.486   1.036   8.521 -1.1426 -1.0048  0.2314
 5659TIP3   OH238535   0.292   4.911   1.825  0.0625 -0.9826  0.1073
 5659TIP3    H138536   0.237   4.928   1.902  1.3778  0.9212  0.7055
 5659TIP3    H238537   0.243   4.949   1.752  0.1263 -0.1245  0.4915
 5660TIP3   OH238538   3.380   0.106   2.178  0.1759  0.5661 -0.0394
 5660TIP3    H138539   3.386   0.035   2.115  0.2025  0.2722  0.2885
 5660TIP3    H238540   3.366   0.062   2.262  1.2959  0.8898  0.3313
 5661TIP3   OH238541   5.936   1.781   2.397 -0.5836  0.1057  0.0280
 5661TIP3    H138542   5.884   1.763   2.319  0.9680 -0.0446 -1.0181
 5661TIP3    H238543   5.881   1.752   2.470 -2.2045  0.5590 -0.9679
 5662TIP3   OH238544   4.478   4.018   7.592 -0.1519 -0.0456  0.6661
 5662TIP3    H138545   4.446   3.996   7.505 -0.0721 -0.1206  0.6550
 5662TIP3    H238546   4.573   4.002   7.587 -0.5157 -3.1452  1.6895
 5663TIP3   OH238547   5.671   0.188   1.888 -0.4571 -0.1025 -0.8544
 5663TIP3    H138548   5.653   0.258   1.825 -1.7955 -0.3386 -0.7682
 5663TIP3    H238549   5.591   0.183   1.941  0.6201  0.0955  0.8795
 5664TIP3   OH238550   5.312   3.306   7.847 -0.5100  0.2204  0.0769
 5664TIP3    H138551   5.254   3.359   7.903 -1.6096 -0.8699 -0.0008
 5664TIP3    H238552   5.289   3.216   7.868  0.9819 -0.2429 -0.1763
 5665TIP3   OH238553   2.798   2.905   7.662  0.4721  0.0375  0.1552
 5665TIP3    H138554   2.794   2.998   7.641  0.4513 -0.1058 -0.5089
 5665TIP3    H238555   2.887   2.891   7.694  0.6526  0.1764 -0.2840
 5666TIP3   OH238556   4.392   2.569   8.080  0.3481  0.7197  0.1210
 5666TIP3    H138557   4.410   2.508   8.009 -0.1378  2.4420 -1.5614
 5666TIP3    H238558   4.478   2.604   8.104  0.4226  0.7918 -0.2498
 5667TIP3   OH238559   0.128   6.366   8.621  0.0913 -0.0923 -0.2811
 5667TIP3    H138560   0.041   6.324   8.620 -0.1191  0.2764  1.2746
 5667TIP3    H238561   0.146   6.384   8.528 -0.7244 -1.7304 -0.8000
 5668TIP3   OH238562   1.479   1.953   0.932  0.0773  0.6319  0.1780
 5668TIP3    H138563   1.391   1.983   0.953 -0.7236 -0.6470 -1.2363
 5668TIP3    H238564   1.521   2.029   0.891  0.2974  1.8327  2.4444
 5669TIP3   OH238565   6.252   5.563   1.004 -0.2161  0.0531 -0.5907
 5669TIP3    H138566   6.283   5.642   0.960  0.3411 -1.1911 -2.5981
 5669TIP3    H238567   6.332   5.525   1.042 -0.0942 -0.5805 -1.4416
 5670TIP3   OH238568   2.977   6.105   1.340 -0.1477 -0.1910 -0.3043
 5670TIP3    H138569   2.899   6.156   1.361 -0.8243 -1.3240  0.0022
 5670TIP3    H238570   2.985   6.110   1.245 -0.8743 -0.4766 -0.3803
 5671TIP3   OH238571   0.069   3.717   7.698  0.3065 -0.3180  0.2033
 5671TIP3    H138572   0.030   3.727   7.785 -0.8032 -1.0525 -0.1855
 5671TIP3    H238573   0.098   3.805   7.674  0.9566 -0.1717  1.4601
 5672TIP3   OH238574   0.613   6.743   0.107 -0.3488  0.0711 -0.4222
 5672TIP3    H138575   0.546   6.770   0.043 -0.2601 -2.0086 -1.4751
 5672TIP3    H238576   0.564   6.733   0.189 -1.3433 -1.1769 -1.1187
 5673TIP3   OH238577   3.998   3.225   0.163  0.6568  0.7179  0.2990
 5673TIP3    H138578   4.086   3.253   0.138  1.2347 -0.2007  1.2145
 5673TIP3    H238579   3.996   3.131   0.145 -0.2667  0.8036 -0.0637
 5674TIP3   OH238580   0.377   4.712   8.015  0.4919 -0.2210  0.0853
 5674TIP3    H138581   0.378   4.643   8.081  1.5688 -0.6820 -0.3931
 5674TIP3    H238582   0.396   4.667   7.933 -1.1733  0.2826 -0.6216
 5675TIP3   OH238583   0.551   1.416   8.485  0.3994 -0.1804  0.1260
 5675TIP3    H138584   0.606   1.378   8.553 -0.6186  0.6669  1.4527
 5675TIP3    H238585   0.462   1.390   8.508 -0.0741  1.0390 -0.2674
 5676TIP3   OH238586   6.691   3.619   0.275 -0.2350  0.2407 -0.1424
 5676TIP3    H138587   6.717   3.565   0.350  0.3895 -0.6593 -0.9872
 5676TIP3    H238588   6.773   3.637   0.229 -0.1011  3.5891  1.1413
 5677TIP3   OH238589   5.341   6.345   2.021  0.4493  0.4238  0.2096
 5677TIP3    H138590   5.427   6.329   1.982  1.0203 -2.3683  2.2820
 5677TIP3    H238591   5.279   6.329   1.951  1.4204 -4.4384  0.1108
 5678TIP3   OH238592   4.133   3.870   8.473 -0.4449  0.1853 -0.4517
 5678TIP3    H138593   4.175   3.784   8.481 -1.3012 -0.2815 -0.7443
 5678TIP3    H238594   4.074   3.860   8.398 -0.4806  1.0652 -0.5489
 5679TIP3   OH238595   2.168   5.375   2.203 -0.5924  0.5237 -0.1720
 5679TIP3    H138596   2.161   5.317   2.278  0.5039 -0.3683 -0.7242
 5679TIP3    H238597   2.087   5.362   2.154 -1.3445  1.1719  0.8792
 5680TIP3   OH238598   0.725   6.253   2.569  0.2760  0.1446  0.1542
 5680TIP3    H138599   0.635   6.286   2.573  0.5567  1.1519 -1.0583
 5680TIP3    H238600   0.739   6.211   2.653 -1.6065 -0.7568  0.0665
 5681TIP3   OH238601   0.477   0.054   0.763  0.6501 -0.4996  0.1768
 5681TIP3    H138602   0.387   0.084   0.748  0.6728 -0.5035  0.0358
 5681TIP3    H238603   0.466  -0.023   0.819  0.4573 -1.4784 -1.1688
 5682TIP3   OH238604   1.811   6.562   7.572 -0.0785 -0.1444  0.3030
 5682TIP3    H138605   1.796   6.564   7.477  1.6312  0.5884  0.0212
 5682TIP3    H238606   1.764   6.640   7.605  0.2256  0.2088 -0.0884
 5683TIP3   OH238607   3.239   6.262   0.512  0.2049  0.0970  0.0560
 5683TIP3    H138608   3.236   6.291   0.420  0.7494  1.0629  0.3284
 5683TIP3    H238609   3.325   6.290   0.543 -0.2418  0.3922  1.0650
 5684TIP3   OH238610   1.339   5.448   7.070  0.1667  0.3138  0.4343
 5684TIP3    H138611   1.300   5.387   7.133 -0.3274  0.8160  0.6178
 5684TIP3    H238612   1.386   5.391   7.009  1.5839 -0.1198  1.8615
 5685TIP3   OH238613   4.081   3.235   6.865 -0.4874  0.4422  0.0586
 5685TIP3    H138614   4.086   3.154   6.813 -0.1634  0.8278 -0.5237
 5685TIP3    H238615   4.144   3.221   6.936 -1.0164 -0.1371  0.4233
 5686TIP3   OH238616   6.668   5.333   8.542  0.3468  0.0008 -0.3010
 5686TIP3    H138617   6.652   5.281   8.464  0.1933  0.1447 -0.3664
 5686TIP3    H238618   6.719   5.276   8.599  2.1476  0.5291 -1.2816
 5687TIP3   OH238619   3.931   5.935   1.548 -0.0911 -0.0823 -0.3297
 5687TIP3    H138620   3.940   5.931   1.453  0.9424  1.4223 -0.3288
 5687TIP3    H238621   4.020   5.949   1.580 -0.6437  1.2022  0.7327
 5688TIP3   OH238622   1.335   4.503   1.953  0.8507 -0.2460  0.5744
 5688TIP3    H138623   1.248   4.487   1.990  0.6472 -1.2744 -0.2893
 5688TIP3    H238624   1.328   4.589   1.912 -0.6446 -1.4097 -1.8223
 5689TIP3   OH238625   4.117   2.150   1.651 -0.4119 -0.1558 -0.3765
 5689TIP3    H138626   4.159   2.234   1.633 -0.6779  0.0873  0.1089
 5689TIP3    H238627   4.186   2.085   1.637 -0.1396  0.1611 -0.5211
 5690TIP3   OH238628   3.438   2.596   0.192  0.5605 -0.1723  0.3457
 5690TIP3    H138629   3.467   2.506   0.176  0.3209 -0.2480  0.3303
 5690TIP3    H238630   3.410   2.596   0.284  0.1079 -0.2421  0.2141
 5691TIP3   OH238631   5.022   1.001   0.211 -0.0067 -0.2749 -0.3511
 5691TIP3    H138632   5.045   1.078   0.159  0.7915 -0.4119 -0.1993
 5691TIP3    H238633   4.988   0.938   0.146  0.6431 -0.3109 -0.6690
 5692TIP3   OH238634   4.369   6.266   2.072 -0.3845  0.0068  0.9260
 5692TIP3    H138635   4.462   6.267   2.095 -0.0295 -2.1940 -0.1285
 5692TIP3    H238636   4.331   6.199   2.130 -1.5383  1.5032  1.9725
 5693TIP3   OH238637   0.849   2.227   7.306  0.0864 -0.0861 -0.0578
 5693TIP3    H138638   0.779   2.260   7.250  0.6276 -1.3995 -1.5747
 5693TIP3    H238639   0.925   2.281   7.284 -0.1802  0.6778  0.8561
 5694TIP3   OH238640   3.082   1.969   0.138  0.2626  0.2106  0.4213
 5694TIP3    H138641   3.171   1.933   0.136 -0.4736 -1.7836  0.5275
 5694TIP3    H238642   3.094   2.061   0.159  2.3461  0.1774 -0.3284
 5695TIP3   OH238643   3.780   3.123   2.176  0.0810 -0.2237  0.0614
 5695TIP3    H138644   3.772   3.131   2.271  1.5184 -0.0981  0.1833
 5695TIP3    H238645   3.710   3.062   2.152 -1.0091  0.5925  1.0472
 5696TIP3   OH238646   0.844   2.812   1.542  0.0832  0.1988 -0.1090
 5696TIP3    H138647   0.795   2.742   1.499 -3.4179 -0.1451  3.7341
 5696TIP3    H238648   0.896   2.767   1.609  3.2144  0.9082 -1.8756
 5697TIP3   OH238649   1.010   0.043   1.165  0.1105 -0.5139 -0.1873
 5697TIP3    H138650   0.986   0.118   1.220 -0.9849 -1.4840  0.7103
 5697TIP3    H238651   0.992   0.073   1.075 -1.7860 -0.1766  0.2590
 5698TIP3   OH238652   5.834   2.166   7.797 -0.2418 -0.7482 -0.3509
 5698TIP3    H138653   5.881   2.083   7.790  2.0139  0.3690  0.4942
 5698TIP3    H238654   5.865   2.219   7.724 -0.3989 -0.0768  0.0495
 5699TIP3   OH238655   5.047   5.678   0.355  0.0151  0.1136 -0.5430
 5699TIP3    H138656   5.066   5.587   0.378  0.1820  0.1708 -0.4576
 5699TIP3    H238657   5.132   5.720   0.348 -0.0807  0.6805  1.1301
 5700TIP3   OH238658   4.933   3.785   8.494  0.1257 -0.4790 -0.0085
 5700TIP3    H138659   4.889   3.715   8.542 -0.5367 -0.7416 -0.9628
 5700TIP3    H238660   4.878   3.799   8.417  2.1479 -1.4684 -1.7489
 5701TIP3   OH238661   3.341   2.141   8.724  0.7804  0.4962 -0.5023
 5701TIP3    H138662   3.418   2.108   8.678  0.3100  0.2064 -1.0921
 5701TIP3    H238663   3.352   2.110   8.814  1.6637  1.0000 -0.4261
 5702TIP3   OH238664   4.814   2.296   8.585  0.0727 -0.4387 -0.4036
 5702TIP3    H138665   4.741   2.319   8.643 -1.0505 -0.6280 -1.6939
 5702TIP3    H238666   4.787   2.213   8.545 -0.3437  0.8743 -3.0354
 5703TIP3   OH238667   6.071   0.435   2.012  0.1468 -0.3366 -0.0943
 5703TIP3    H138668   6.128   0.452   1.937  1.9477 -0.8309  1.0846
 5703TIP3    H238669   6.070   0.518   2.061 -1.2708  0.0809 -0.7721
 5704TIP3   OH238670   4.177   5.286   7.508  0.0872 -0.1074  0.3327
 5704TIP3    H138671   4.165   5.258   7.599 -1.2207  0.3453  0.3203
 5704TIP3    H238672   4.088   5.295   7.474  0.5533 -1.9153 -1.5216
 5705TIP3   OH238673   2.559   4.631   1.048 -0.0289 -0.1542 -0.0794
 5705TIP3    H138674   2.617   4.555   1.038 -0.0140  0.0702 -1.9584
 5705TIP3    H238675   2.568   4.655   1.140  0.7779 -1.7814  0.3042
 5706TIP3   OH238676   2.032   3.826   1.680 -0.3293  0.6069  0.2196
 5706TIP3    H138677   2.088   3.821   1.758  1.3262 -2.1608 -0.9808
 5706TIP3    H238678   2.067   3.898   1.629 -0.3240  1.3317  1.2190
 5707TIP3   OH238679   3.172   2.867   8.096 -0.0789  0.0778 -0.7469
 5707TIP3    H138680   3.215   2.819   8.166  0.4149  0.1242 -1.0078
 5707TIP3    H238681   3.123   2.801   8.047 -1.3815  0.2236  0.3165
 5708TIP3   OH238682   6.676   5.946   1.272 -0.3087 -0.2054  0.3702
 5708TIP3    H138683   6.671   5.854   1.298  0.0104 -0.7342 -1.3617
 5708TIP3    H238684   6.769   5.963   1.259 -0.2511  0.6900  1.6658
 5709TIP3   OH238685   0.067   4.383   1.011  1.2102  0.0795  0.2276
 5709TIP3    H138686   0.127   4.446   1.051  2.0682 -0.2412 -0.5350
 5709TIP3    H238687  -0.009   4.436   0.987  1.2413  0.5221  1.0511
 5710TIP3   OH238688   4.633   6.603   0.344 -0.2222 -0.4560  0.3103
 5710TIP3    H138689   4.604   6.634   0.258 -0.7302 -0.7066  0.3858
 5710TIP3    H238690   4.570   6.639   0.405  0.9408  0.8790  0.7527
 5711TIP3   OH238691   0.192   6.235   1.112 -0.1176 -0.1704 -0.2287
 5711TIP3    H138692   0.122   6.266   1.055 -3.0885 -1.1348  2.6185
 5711TIP3    H238693   0.242   6.175   1.057 -2.3154 -0.4826 -2.0402
 5712TIP3   OH238694   1.048   4.091   6.867  0.1017  0.2021 -0.5263
 5712TIP3    H138695   0.985   4.161   6.884  0.1986  0.1499  0.0646
 5712TIP3    H238696   1.129   4.136   6.842 -0.4132  0.2626 -2.2710
 5713TIP3   OH238697   0.032   5.407   7.298  0.3711 -0.7944 -0.4451
 5713TIP3    H138698   0.012   5.498   7.320  0.7721 -0.6987 -0.4775
 5713TIP3    H238699   0.126   5.406   7.286  0.1488 -0.7870 -2.4213
 5714TIP3   OH238700   6.102   3.553   2.098  0.4308 -0.3738  0.1668
 5714TIP3    H138701   6.048   3.548   2.020 -0.0470  0.9388  0.3908
 5714TIP3    H238702   6.043   3.529   2.170 -0.2902  2.2920  0.5669
 5715TIP3   OH238703   0.817   5.109   8.284  0.0007  0.0959  0.4845
 5715TIP3    H138704   0.794   5.027   8.326 -1.3533  0.9860  1.5771
 5715TIP3    H238705   0.880   5.085   8.216 -1.4121 -2.0185 -0.1709
 5716TIP3   OH238706   1.201   1.778   7.748 -0.6009  0.2858 -0.1645
 5716TIP3    H138707   1.253   1.737   7.818 -0.8612  0.8578  0.3688
 5716TIP3    H238708   1.248   1.859   7.728 -0.5801  0.1711 -0.6013
 5717TIP3   OH238709   0.953   6.640   2.268  0.1595 -0.1290  0.2211
 5717TIP3    H138710   1.036   6.594   2.259  0.3315  0.2221 -0.0132
 5717TIP3    H238711   0.891   6.573   2.296  0.4763 -0.4345  0.1953
 5718TIP3   OH238712   5.486   3.670   8.150 -0.4044  0.0911  0.4326
 5718TIP3    H138713   5.486   3.616   8.072  0.6722 -0.4831  0.8260
 5718TIP3    H238714   5.492   3.760   8.117  1.4588 -0.2071 -0.1204
 5719TIP3   OH238715   6.247   5.063   1.458 -0.6310  0.6348  0.4397
 5719TIP3    H138716   6.219   5.154   1.463  0.4810  1.0976 -1.1972
 5719TIP3    H238717   6.202   5.028   1.381  0.2375  0.2914  0.0765
 5720TIP3   OH238718   2.794   5.181   7.891  0.1137 -0.4396 -0.0586
 5720TIP3    H138719   2.722   5.225   7.936 -0.7259 -0.4841 -1.3077
 5720TIP3    H238720   2.808   5.100   7.941  1.1026  0.7733  1.7547
 5721TIP3   OH238721   4.642   2.077   2.652 -0.1337  0.3877  0.1111
 5721TIP3    H138722   4.671   2.096   2.741 -1.0502  0.7589  0.3480
 5721TIP3    H238723   4.656   1.983   2.642  0.6365  0.4670  0.3902
 5722TIP3   OH238724   3.172   1.932   1.214 -0.4576 -0.3632 -0.5542
 5722TIP3    H138725   3.080   1.942   1.240 -0.8650  1.1466 -2.4103
 5722TIP3    H238726   3.212   2.018   1.231  0.2044 -0.5146 -1.2709
 5723TIP3   OH238727   3.350   3.043   8.284  0.0870  0.0760 -0.7936
 5723TIP3    H138728   3.303   2.997   8.215 -1.5693 -1.8711  1.4611
 5723TIP3    H238729   3.432   2.996   8.294  0.8211  1.0136 -2.0441
 5724TIP3   OH238730   0.145   3.520   0.125 -0.3312  0.2842  0.5010
 5724TIP3    H138731   0.218   3.532   0.064 -1.0992 -0.0447 -0.5008
 5724TIP3    H238732   0.184   3.534   0.211  1.2228 -1.1135  0.0929
 5725TIP3   OH238733   2.660   3.142   8.734  0.4070 -0.5265 -0.6157
 5725TIP3    H138734   2.612   3.215   8.695 -0.4364 -1.3734 -1.2019
 5725TIP3    H238735   2.706   3.101   8.661  0.2678 -1.0296 -0.4310
 5726TIP3   OH238736   4.678   6.573   1.421  0.0489 -0.3042 -0.0778
 5726TIP3    H138737   4.748   6.507   1.424  0.8160  0.4592 -0.8436
 5726TIP3    H238738   4.713   6.648   1.468  0.5580  0.8105 -2.1124
 5727TIP3   OH238739   1.227   2.187   1.328 -0.1072 -0.4859 -0.2880
 5727TIP3    H138740   1.235   2.283   1.331 -0.7330 -0.4390  2.4825
 5727TIP3    H238741   1.138   2.171   1.295  0.5941 -0.2225 -2.4513
 5728TIP3   OH238742   5.831   2.085   0.169  0.0413 -0.0025  0.1078
 5728TIP3    H138743   5.794   2.039   0.094 -1.3116  1.8279 -0.4273
 5728TIP3    H238744   5.755   2.124   0.213  0.9044 -0.1941  1.8646
 5729TIP3   OH238745   2.274   2.420   1.283 -0.0428 -0.3407  0.1611
 5729TIP3    H138746   2.244   2.405   1.373  2.1736 -1.3250  0.7932
 5729TIP3    H238747   2.283   2.332   1.246 -0.2482  0.0343 -0.8253
 5730TIP3   OH238748   1.580   0.925   0.173 -0.5885 -0.1394 -0.0261
 5730TIP3    H138749   1.636   0.930   0.250 -2.4508  1.4354  1.3320
 5730TIP3    H238750   1.618   0.855   0.120  1.3242 -0.6207  1.8462
 5731TIP3   OH238751   0.061   5.826   2.371  0.4250 -0.1135  0.3703
 5731TIP3    H138752   0.140   5.815   2.317 -0.3106 -2.0323 -0.4205
 5731TIP3    H238753   0.052   5.742   2.416 -1.2655  0.0046  0.2994
 5732TIP3   OH238754   6.260   1.051   0.107  0.4382 -0.6960 -0.0409
 5732TIP3    H138755   6.284   1.144   0.104  0.5919 -0.6702  1.4586
 5732TIP3    H238756   6.329   1.007   0.058  0.0672  0.0149 -1.2488
 5733TIP3   OH238757   1.659   1.652   8.006 -0.5784  0.2053  0.1592
 5733TIP3    H138758   1.748   1.679   8.030 -0.6937  0.4620  0.3054
 5733TIP3    H238759   1.644   1.572   8.057 -0.6997  0.5674  0.6971
 5734TIP3   OH238760   6.612   0.288   1.127  0.0815  0.1541 -0.3976
 5734TIP3    H138761   6.656   0.333   1.055 -0.0678 -2.0471 -1.9618
 5734TIP3    H238762   6.684   0.261   1.185  0.4131  0.1503 -0.8022
 5735TIP3   OH238763   4.872   0.915   7.477  0.0772  0.9245 -0.2362
 5735TIP3    H138764   4.965   0.916   7.452 -0.2737  1.5271 -1.6346
 5735TIP3    H238765   4.827   0.951   7.401 -1.3984 -0.1356  0.0927
 5736TIP3   OH238766   4.117   2.787   8.458 -0.0192 -0.3571 -0.2900
 5736TIP3    H138767   4.037   2.759   8.503  0.0933 -1.5575 -0.7802
 5736TIP3    H238768   4.123   2.729   8.382  0.9319  0.2071 -0.6639
 5737TIP3   OH238769   1.342   4.915   0.923  0.9197  0.3059 -0.1100
 5737TIP3    H138770   1.307   5.003   0.912 -0.6701  0.3323  3.5713
 5737TIP3    H238771   1.271   4.858   0.892 -0.0394  0.3921  1.7837
 5738TIP3   OH238772   3.031   4.424   7.316  0.7946 -0.3211 -0.6242
 5738TIP3    H138773   3.008   4.375   7.395  0.5240 -0.7440 -0.9623
 5738TIP3    H238774   3.125   4.410   7.305  0.5771 -1.4101 -1.1550
 5739TIP3   OH238775   1.028   3.270   7.897 -0.0442 -0.1638 -0.7664
 5739TIP3    H138776   1.116   3.258   7.861  1.2038 -2.8586  2.6297
 5739TIP3    H238777   1.032   3.356   7.939  0.6450  0.1522 -1.4544
 5740TIP3   OH238778   4.840   3.819   0.050 -0.9166  0.3424  0.3148
 5740TIP3    H138779   4.749   3.826   0.020 -1.7882  1.7252  2.9774
 5740TIP3    H238780   4.848   3.730   0.083 -1.2456  0.1534 -0.1061
 5741TIP3   OH238781   3.297   2.970   0.838 -0.2180 -0.3632  0.5992
 5741TIP3    H138782   3.208   2.951   0.808 -0.0201 -1.1686  0.5151
 5741TIP3    H238783   3.319   2.897   0.897 -0.5249  1.0523  2.5818
 5742TIP3   OH238784   5.929   2.768   7.480 -0.1596 -0.1338 -0.4018
 5742TIP3    H138785   5.939   2.678   7.508 -0.9041 -0.1707 -0.2260
 5742TIP3    H238786   5.848   2.769   7.430 -0.6085  0.5958  0.3081
 5743TIP3   OH238787   4.917   2.747   6.577  0.2569 -0.2616 -0.1974
 5743TIP3    H138788   4.994   2.707   6.618 -0.0401  0.7057  1.4032
 5743TIP3    H238789   4.869   2.787   6.650 -1.1255  0.2210 -1.3171
 5744TIP3   OH238790   3.829   1.640   7.519  0.4912 -0.3228  0.6574
 5744TIP3    H138791   3.813   1.727   7.555  2.2601  0.2669  0.1346
 5744TIP3    H238792   3.806   1.580   7.589 -1.9355  0.4739  0.6128
 5745TIP3   OH238793   0.049   3.136   1.248  0.0856 -0.4534  0.3346
 5745TIP3    H138794   0.084   3.117   1.335  0.2843  1.8098  0.8309
 5745TIP3    H238795   0.093   3.217   1.222  0.8026 -1.5873 -2.3569
 5746TIP3   OH238796   3.547   0.838   0.561 -0.1080 -0.0696 -0.0089
 5746TIP3    H138797   3.493   0.779   0.614 -0.9970  1.6472  1.0731
 5746TIP3    H238798   3.637   0.820   0.588 -0.4058 -0.6143  0.6229
 5747TIP3   OH238799   6.780   5.428   7.832  0.0839  0.1054 -0.0435
 5747TIP3    H138800   6.852   5.370   7.808  0.6076  0.8841 -0.3825
 5747TIP3    H238801   6.701   5.376   7.816  0.5706 -1.3541  1.8930
 5748TIP3   OH238802   1.974   5.044   2.401  0.1599  0.3831 -0.0467
 5748TIP3    H138803   2.055   5.025   2.354 -0.5456  0.1278 -1.2348
 5748TIP3    H238804   1.954   4.963   2.448 -0.2803 -0.1776 -1.1473
 5749TIP3   OH238805   6.715   2.516   8.795 -0.3679  0.5100  0.5276
 5749TIP3    H138806   6.639   2.497   8.851 -0.2870  0.2500  0.5482
 5749TIP3    H238807   6.687   2.589   8.740  0.0810  1.8759  2.0217
 5750TIP3   OH238808   0.604   2.094   2.863 -0.1489 -0.5822 -0.0065
 5750TIP3    H138809   0.594   2.093   2.768 -1.3605  0.9319  0.0674
 5750TIP3    H238810   0.582   2.006   2.891  0.5099 -1.1228 -1.1348
 5751TIP3   OH238811   5.371   0.086   8.571 -0.2852 -0.4052  0.2885
 5751TIP3    H138812   5.356   0.172   8.610 -1.3548 -0.0500 -0.8294
 5751TIP3    H238813   5.325   0.025   8.629 -1.0740  0.0090  0.1217
 5752TIP3   OH238814   1.763   1.741   8.612 -0.7064 -0.3971 -0.0089
 5752TIP3    H138815   1.753   1.700   8.527  1.4302 -0.8993 -0.0642
 5752TIP3    H238816   1.793   1.671   8.670 -0.7812  0.2418  0.8284
 5753TIP3   OH238817   0.869   0.243   7.904  0.5890  0.0677 -0.0948
 5753TIP3    H138818   0.935   0.258   7.836  0.9154  2.2756  0.6404
 5753TIP3    H238819   0.889   0.307   7.972 -0.1915 -1.5691  1.7846
 5754TIP3   OH238820   0.492   2.711   1.826  0.2239  0.1443  0.6589
 5754TIP3    H138821   0.446   2.794   1.818 -0.0662 -0.1378 -0.7712
 5754TIP3    H238822   0.484   2.670   1.740  2.2957 -0.3647  0.6536
 5755TIP3   OH238823   5.802   3.700   2.566  0.0282  0.1135 -0.0950
 5755TIP3    H138824   5.776   3.776   2.513 -1.3002 -0.9054 -0.9620
 5755TIP3    H238825   5.898   3.701   2.565  0.0249  0.5602 -1.8770
 5756TIP3   OH238826   2.425   4.583   2.795  0.1551  0.2465 -0.1497
 5756TIP3    H138827   2.507   4.626   2.817  0.2697  0.6553 -1.3047
 5756TIP3    H238828   2.432   4.563   2.702 -0.3801 -1.2334  0.1059
 5757TIP3   OH238829   6.347   4.823   0.660  0.1802 -0.7269  0.3436
 5757TIP3    H138830   6.430   4.780   0.639  0.1734 -0.6614  0.1768
 5757TIP3    H238831   6.343   4.898   0.600  0.6646  0.1044  1.3151
 5758TIP3   OH238832   3.422   1.746   8.466 -0.5049 -0.1201  0.3434
 5758TIP3    H138833   3.345   1.753   8.409  0.3177  0.7485 -0.7115
 5758TIP3    H238834   3.496   1.747   8.406  0.3751  0.1707  1.4055
 5759TIP3   OH238835   1.236   2.795   7.702  0.5117 -0.5421  0.1362
 5759TIP3    H138836   1.296   2.720   7.689  4.2020  1.7583  2.0752
 5759TIP3    H238837   1.222   2.797   7.796  0.4022  1.1297  0.0973
 5760TIP3   OH238838   2.025   3.078   0.705 -0.5080 -0.5443 -0.3420
 5760TIP3    H138839   1.963   3.013   0.671  0.0947 -1.2000 -0.1976
 5760TIP3    H238840   2.018   3.070   0.800  1.9157 -2.7366 -0.2494
 5761TIP3   OH238841   1.825   5.699   1.591 -0.7520  0.6098 -0.4902
 5761TIP3    H138842   1.737   5.662   1.595 -1.1539  1.5761 -0.3268
 5761TIP3    H238843   1.827   5.766   1.659  0.1936  0.4229 -0.3233
 5762TIP3   OH238844   0.658   3.337   7.423  0.4062  0.0332 -0.7690
 5762TIP3    H138845   0.596   3.293   7.365  0.5636 -1.2334 -0.0301
 5762TIP3    H238846   0.629   3.313   7.511  1.5909 -0.1183 -0.3978
 5763TIP3   OH238847   4.635   0.995   2.137 -0.2031 -0.1554  0.2484
 5763TIP3    H138848   4.627   1.043   2.220 -0.8131 -1.2833  0.8575
 5763TIP3    H238849   4.652   0.905   2.163  0.1475 -0.4323 -0.8775
 5764TIP3   OH238850   0.734   3.042   7.547  0.1325  0.1201 -0.7002
 5764TIP3    H138851   0.675   3.115   7.567 -0.3869 -0.4556 -0.1267
 5764TIP3    H238852   0.814   3.061   7.597 -0.1121  0.1414 -0.3179
 5765TIP3   OH238853   0.410   6.380   1.193 -0.2427 -0.0951 -0.4916
 5765TIP3    H138854   0.337   6.334   1.151 -1.8277 -0.1890  2.1320
 5765TIP3    H238855   0.477   6.313   1.207 -1.0232 -0.7868  0.0109
 5766TIP3   OH238856   1.704   1.586   2.974 -0.9405 -0.0758 -0.0193
 5766TIP3    H138857   1.755   1.637   3.037  0.1365  0.9019 -1.6022
 5766TIP3    H238858   1.723   1.495   2.996 -0.5666  0.2386  1.0278
 5767TIP3   OH238859   5.491   3.472   1.285  0.1896  0.4182  0.5989
 5767TIP3    H138860   5.528   3.398   1.236 -1.0429 -0.5980  1.1228
 5767TIP3    H238861   5.537   3.471   1.369 -0.8665 -0.7802  1.2105
 5768TIP3   OH238862   2.285   6.395   0.866  0.0080  0.0951 -0.0337
 5768TIP3    H138863   2.378   6.375   0.870  0.1704  0.9417  0.7792
 5768TIP3    H238864   2.266   6.400   0.772  0.0616 -3.0908 -0.3214
 5769TIP3   OH238865   3.349   4.449   7.875  0.6137 -0.8386 -0.0231
 5769TIP3    H138866   3.378   4.440   7.785  1.4831 -2.7543  0.4003
 5769TIP3    H238867   3.373   4.539   7.899 -1.6754  0.5246 -2.3335
 5770TIP3   OH238868   4.808   6.029   8.016  0.1596  0.0691 -0.3065
 5770TIP3    H138869   4.834   5.954   7.961  4.7174  0.5395  0.8010
 5770TIP3    H238870   4.828   6.106   7.963  1.0767  0.5068  0.6545
 5771TIP3   OH238871   3.280   3.170   1.720  0.0760 -0.4456  0.3533
 5771TIP3    H138872   3.245   3.251   1.681 -0.1650 -0.2844  0.9013
 5771TIP3    H238873   3.219   3.149   1.790 -0.1733 -1.4190 -0.1355
 5772TIP3   OH238874   1.298   0.996   2.896 -0.1666 -0.8684 -0.1632
 5772TIP3    H138875   1.297   0.933   2.968 -0.6808 -1.3796 -0.6065
 5772TIP3    H238876   1.211   1.034   2.895  0.9573  2.1836  2.0495
 5773TIP3   OH238877   6.622   0.030   7.893 -0.2535  0.2308 -0.0568
 5773TIP3    H138878   6.655  -0.047   7.942  0.8279  0.2486 -0.7261
 5773TIP3    H238879   6.621   0.002   7.802 -1.4176  0.4934 -0.1343
 5774TIP3   OH238880   4.840   5.444   0.985  0.1665  1.0442  0.3165
 5774TIP3    H138881   4.753   5.411   0.962  0.4184  0.3900  0.2858
 5774TIP3    H238882   4.883   5.458   0.900  0.9282 -0.9180  0.3339
 5775TIP3   OH238883   0.729   5.942   8.158  0.8983  0.2059 -0.4652
 5775TIP3    H138884   0.803   5.932   8.217  0.2901 -1.9846  0.0068
 5775TIP3    H238885   0.766   5.982   8.079  2.6856 -1.2932 -0.4383
 5776TIP3   OH238886   1.032   4.830   1.396  0.4190  0.2868 -0.0883
 5776TIP3    H138887   1.077   4.907   1.360  0.7519 -0.1638 -0.6526
 5776TIP3    H238888   1.064   4.757   1.343 -0.4520 -0.1394 -0.0457
 5777TIP3   OH238889   6.018   4.954   8.558 -0.0846  0.1802  0.5009
 5777TIP3    H138890   5.968   5.032   8.535 -0.1104  0.4071  1.3038
 5777TIP3    H238891   5.953   4.885   8.569  0.0539 -0.4180 -1.9010
 5778TIP3   OH238892   2.545   6.480   0.174 -0.2032 -0.4206 -0.4615
 5778TIP3    H138893   2.579   6.569   0.164  0.8769 -0.7636  0.0239
 5778TIP3    H238894   2.610   6.424   0.130 -0.8099 -0.9882 -0.6611
 5779TIP3   OH238895   2.056   5.816   0.694  0.3807  0.3444 -0.1850
 5779TIP3    H138896   2.038   5.874   0.768 -0.4616 -0.6566  0.4244
 5779TIP3    H238897   2.020   5.861   0.618  0.3144  0.9083  0.1759
 5780TIP3   OH238898   0.318   1.275   7.921  0.1332  0.2346  0.1782
 5780TIP3    H138899   0.311   1.208   7.853  3.4809  1.5202 -1.6569
 5780TIP3    H238900   0.236   1.325   7.914 -0.8576 -1.4581 -0.8371
 5781TIP3   OH238901   6.422   1.809   1.865 -0.6972 -0.1990  0.4086
 5781TIP3    H138902   6.411   1.893   1.911 -0.4470 -0.7223  1.4640
 5781TIP3    H238903   6.345   1.758   1.891 -0.7180 -0.3892 -0.0198
 5782TIP3   OH238904   1.327   0.824   2.022 -0.2272  0.3298  0.1812
 5782TIP3    H138905   1.248   0.844   2.072  0.5008  0.8714  1.1538
 5782TIP3    H238906   1.306   0.853   1.933 -1.6706 -0.9852  0.0497
 5783TIP3   OH238907   5.529   5.122   0.164  0.0644 -0.2403 -0.3334
 5783TIP3    H138908   5.567   5.059   0.225 -0.1598  0.4741  0.5584
 5783TIP3    H238909   5.434   5.111   0.175 -0.0559  2.1380  1.9138
 5784TIP3   OH238910   6.408   0.572   0.064 -0.4536  0.1479  0.3282
 5784TIP3    H138911   6.463   0.496   0.046 -1.2254  0.0743 -2.1628
 5784TIP3    H238912   6.318   0.539   0.060 -0.8828  1.3608 -2.4270
 5785TIP3   OH238913   0.084   1.353   2.409 -0.0651  0.4352  0.0673
 5785TIP3    H138914   0.174   1.376   2.387 -0.4108  0.8346 -1.0075
 5785TIP3    H238915   0.084   1.343   2.504  1.0100  0.8822  0.1239
 5786TIP3   OH238916   3.350   1.135   2.321  0.3463 -0.1368 -0.1216
 5786TIP3    H138917   3.267   1.110   2.279 -0.7812  2.3498  0.5029
 5786TIP3    H238918   3.345   1.097   2.409 -0.3617  0.4250  0.0852
 5787TIP3   OH238919   5.728   6.737   8.202  0.5545  0.2735  0.1557
 5787TIP3    H138920   5.671   6.776   8.268  0.2449  1.5429 -0.8129
 5787TIP3    H238921   5.708   6.644   8.205  0.3358  0.3428  1.6317
 5788TIP3   OH238922   0.095   6.000   7.395  0.3136  0.0876 -0.2482
 5788TIP3    H138923   0.135   5.981   7.480 -0.0666 -1.2185 -0.3427
 5788TIP3    H238924   0.005   5.968   7.403  0.0167  0.7426 -0.8628
 5789TIP3   OH238925   4.973   5.417   6.789 -0.4829  0.2249 -0.4114
 5789TIP3    H138926   5.058   5.453   6.765  0.4201  0.6134  2.8735
 5789TIP3    H238927   4.909   5.473   6.744  0.9842  1.6055 -0.8397
 5790TIP3   OH238928   1.507   6.210   0.870  0.1661 -0.3097  0.1964
 5790TIP3    H138929   1.581   6.151   0.884 -0.0828 -0.6748  0.0061
 5790TIP3    H238930   1.515   6.236   0.778 -0.2658 -0.8083  0.0132
 5791TIP3   OH238931   3.655   4.214   0.478  0.0493 -0.2616  0.3673
 5791TIP3    H138932   3.645   4.267   0.558 -1.3043 -0.2664  0.2237
 5791TIP3    H238933   3.687   4.130   0.509 -0.0412 -0.1176  0.8624
 5792TIP3   OH238934   0.459   6.803   1.871  0.0477 -0.3030 -0.5745
 5792TIP3    H138935   0.445   6.830   1.961  0.5098 -1.5431 -0.1137
 5792TIP3    H238936   0.551   6.821   1.854  0.1071 -0.6429 -0.6038
 5793TIP3   OH238937   4.256   5.152   1.502 -1.0884  0.0505 -0.2890
 5793TIP3    H138938   4.290   5.063   1.498  1.6927  1.0022 -0.2512
 5793TIP3    H238939   4.237   5.167   1.595 -0.5742 -0.1872 -0.1426
 5794TIP3   OH238940   3.277   2.729   2.283 -0.2273  0.6079 -0.7563
 5794TIP3    H138941   3.188   2.763   2.291 -0.0720  1.3327 -1.9629
 5794TIP3    H238942   3.319   2.750   2.366 -1.5423 -0.8792  0.3387
 5795TIP3   OH238943   6.721   5.620   1.269  0.5338  0.6887  0.4724
 5795TIP3    H138944   6.709   5.556   1.339  0.5638  1.1703  0.9265
 5795TIP3    H238945   6.809   5.654   1.284  1.8832 -1.5035 -1.7247
 5796TIP3   OH238946   6.128   3.373   1.700 -1.0000 -0.1226  0.0658
 5796TIP3    H138947   6.141   3.455   1.748 -2.0500  0.6462 -0.9275
 5796TIP3    H238948   6.044   3.384   1.655 -1.9824 -2.3414  1.1326
 5797TIP3   OH238949   2.040   2.419   7.279  0.3655 -0.4506  0.6390
 5797TIP3    H138950   2.016   2.484   7.213  0.0869 -0.2456  0.9392
 5797TIP3    H238951   2.102   2.464   7.337  0.1975 -0.4617  0.8290
 5798TIP3   OH238952   1.934   2.179   7.338 -0.0542  0.2024  0.1804
 5798TIP3    H138953   1.961   2.262   7.301  0.4567  0.0548  0.2106
 5798TIP3    H238954   1.938   2.193   7.433 -0.7844  0.3980  0.1879
 5799TIP3   OH238955   6.105   3.167   8.211 -0.3773  0.3036 -0.2824
 5799TIP3    H138956   6.123   3.073   8.219 -0.2087  0.3086 -0.6167
 5799TIP3    H238957   6.191   3.208   8.209 -0.4446  0.4272 -0.6285
 5800TIP3   OH238958   2.454   2.524   7.347 -0.2400 -0.0236 -0.2974
 5800TIP3    H138959   2.515   2.548   7.276 -0.2677 -0.8148 -0.5949
 5800TIP3    H238960   2.410   2.446   7.315 -1.7319  0.7661 -0.2664
 5801TIP3   OH238961   5.835   4.986   1.317 -0.2849  0.5279 -0.0862
 5801TIP3    H138962   5.794   5.009   1.400 -1.2994  0.5040 -0.5633
 5801TIP3    H238963   5.774   5.018   1.250  0.3109  0.1775 -0.8197
 5802TIP3   OH238964   5.341   1.363   2.472 -0.6264  0.1413  0.1935
 5802TIP3    H138965   5.355   1.295   2.537  0.2934 -0.9950 -1.1198
 5802TIP3    H238966   5.420   1.360   2.417 -2.0791 -0.1171 -1.9815
 5803TIP3   OH238967   2.022   5.503   7.866 -0.3987 -0.6480  0.1470
 5803TIP3    H138968   2.012   5.596   7.845  0.3029 -0.1462  1.8490
 5803TIP3    H238969   2.013   5.458   7.782  1.0577  1.0871 -1.0068
 5804TIP3   OH238970   2.771   2.594   0.779  0.0058  0.3321  0.0839
 5804TIP3    H138971   2.823   2.564   0.854  0.5349 -0.1369 -0.4512
 5804TIP3    H238972   2.689   2.546   0.787  0.8301 -1.3119 -0.7419
 5805TIP3   OH238973   3.178   5.744   2.159  0.3859  0.2360  0.2642
 5805TIP3    H138974   3.225   5.817   2.199  1.2732 -1.1113  1.8077
 5805TIP3    H238975   3.230   5.720   2.082  1.0520  0.1517  0.7317
 5806TIP3   OH238976   6.066   0.015   0.119  0.4028  0.3011 -0.4255
 5806TIP3    H138977   5.980  -0.021   0.096 -0.3177  1.5802  0.1799
 5806TIP3    H238978   6.079   0.087   0.057  1.3829 -0.3361 -0.9849
 5807TIP3   OH238979   2.285   2.799   2.426 -0.2432  0.0802  0.2856
 5807TIP3    H138980   2.297   2.825   2.517  0.0732 -1.0547  0.5793
 5807TIP3    H238981   2.214   2.855   2.394  1.0926  2.0278  0.5688
 5808TIP3   OH238982   3.559   4.013   0.868  0.4547  0.1212 -0.1182
 5808TIP3    H138983   3.589   4.097   0.904  0.4030  0.1326 -0.1012
 5808TIP3    H238984   3.556   3.954   0.943 -0.6820  0.4344  0.0896
 5809TIP3   OH238985   0.573   5.161   1.888 -0.1643  0.2596 -0.2870
 5809TIP3    H138986   0.645   5.122   1.838 -0.3593 -1.5336  0.7598
 5809TIP3    H238987   0.518   5.203   1.821  1.3529  0.9078 -1.1880
 5810TIP3   OH238988   2.266   3.806   7.854 -0.3402 -0.4904 -0.2075
 5810TIP3    H138989   2.323   3.838   7.924  0.0168 -1.1905 -0.1678
 5810TIP3    H238990   2.262   3.878   7.791 -2.2950  0.9787  1.4574
 5811TIP3   OH238991   2.581   4.342   7.441  0.3431 -0.0395 -0.5286
 5811TIP3    H138992   2.514   4.273   7.440  1.0263 -0.7312 -0.3501
 5811TIP3    H238993   2.658   4.299   7.478  1.5070  0.1427 -2.5685
 5812TIP3   OH238994   5.414   5.300   0.374 -0.2421  0.2176  0.0346
 5812TIP3    H138995   5.431   5.225   0.431 -0.2689  0.5755  0.5243
 5812TIP3    H238996   5.337   5.275   0.323 -1.1897  0.4978  1.2724
 5813TIP3   OH238997   4.640   0.167   8.275 -0.5081 -0.1184  0.4038
 5813TIP3    H138998   4.553   0.169   8.236 -0.9969  0.7738  1.4687
 5813TIP3    H238999   4.654   0.075   8.298 -1.3689 -0.1936  0.6553
 5814TIP3   OH239000   2.699   0.431   2.259  0.2029  0.1430  0.2321
 5814TIP3    H139001   2.651   0.492   2.202  2.3649  1.8617  0.0960
 5814TIP3    H239002   2.756   0.383   2.200  2.0154  1.5009  0.7870
 5815TIP3   OH239003   3.330   6.302   7.688 -0.0117  0.3766  0.1605
 5815TIP3    H139004   3.315   6.355   7.610  0.0605 -0.4404 -0.4122
 5815TIP3    H239005   3.274   6.342   7.755 -0.2080  0.9717 -0.3493
 5816TIP3   OH239006   3.581   3.457   0.727 -0.5527  0.4053  0.2823
 5816TIP3    H139007   3.600   3.544   0.691  1.4296 -0.2665 -0.4581
 5816TIP3    H239008   3.506   3.426   0.678  0.3954  0.6454 -1.3926
 5817TIP3   OH239009   1.301   2.226   8.324 -0.0310  0.3408  0.4554
 5817TIP3    H139010   1.366   2.165   8.289  0.7960  0.5061  1.6324
 5817TIP3    H239011   1.218   2.198   8.286  0.4688 -0.9750  0.2927
 5818TIP3   OH239012   0.346   2.554   2.182  0.4837  0.0205  0.3252
 5818TIP3    H139013   0.262   2.547   2.137  0.9774 -1.0274 -0.4554
 5818TIP3    H239014   0.411   2.524   2.119  1.5540  1.4946  0.6608
 5819TIP3   OH239015   0.521   4.585   3.123  0.5151 -0.5258  0.4381
 5819TIP3    H139016   0.559   4.601   3.037 -0.3307 -2.0785 -0.2544
 5819TIP3    H239017   0.597   4.571   3.180  1.0588 -0.1077 -0.1702
 5820TIP3   OH239018   6.240   4.034   2.477 -0.2337  0.3152 -0.4531
 5820TIP3    H139019   6.298   3.988   2.416  0.1869  1.6261 -1.0874
 5820TIP3    H239020   6.296   4.098   2.520 -0.7329  0.0345  0.6437
 5821TIP3   OH239021   2.854   0.540   1.305 -0.1659 -0.5367  0.5341
 5821TIP3    H139022   2.784   0.576   1.359  0.4396 -0.2407  1.1316
 5821TIP3    H239023   2.890   0.615   1.258  1.8258 -0.1073  2.6084
 5822TIP3   OH239024   2.104   4.069   8.407  0.3402  0.4021  0.5539
 5822TIP3    H139025   2.107   4.147   8.462  0.6528  1.2498 -0.6249
 5822TIP3    H239026   2.017   4.072   8.367 -0.3387 -0.8338  1.8168
 5823TIP3   OH239027   5.446   0.183   2.034 -0.7459  0.4938  0.6234
 5823TIP3    H139028   5.411   0.190   2.123  0.4013 -0.1423  1.1455
 5823TIP3    H239029   5.372   0.206   1.978 -2.5159 -2.2410  1.6002
 5824TIP3   OH239030   1.392   3.254   7.509 -0.3756  0.1853 -0.2469
 5824TIP3    H139031   1.434   3.246   7.423 -0.3674  1.5115 -0.3869
 5824TIP3    H239032   1.342   3.336   7.503 -2.9645 -1.2898 -0.0605
 5825TIP3   OH239033   6.512   3.476   7.035  0.1354  0.1059  0.4454
 5825TIP3    H139034   6.567   3.472   6.956 -0.0873  1.0462  0.2214
 5825TIP3    H239035   6.502   3.385   7.062  0.9956 -0.1614 -0.0697
 5826TIP3   OH239036   3.924   3.576   0.906  0.2543  0.0024  0.1008
 5826TIP3    H139037   3.903   3.538   0.992  2.1173 -0.4272  0.4233
 5826TIP3    H239038   3.875   3.658   0.903 -0.8629 -0.5983  1.0106
 5827TIP3   OH239039   6.243   5.620   1.987 -0.0495 -0.5924  0.1312
 5827TIP3    H139040   6.284   5.663   1.912 -2.3152 -0.8763 -1.3708
 5827TIP3    H239041   6.221   5.692   2.047  2.1063 -0.4004  0.7951
 5828TIP3   OH239042   3.962   6.536   1.966  0.0346 -0.3481  0.1855
 5828TIP3    H139043   4.038   6.509   2.017  1.5545  2.9849 -0.0778
 5828TIP3    H239044   3.891   6.540   2.030  1.0750  0.3912  1.3378
 5829TIP3   OH239045   3.846   6.699   2.459 -0.2479  0.0059 -0.2428
 5829TIP3    H139046   3.794   6.771   2.496 -0.3647 -0.2753  0.1397
 5829TIP3    H239047   3.787   6.624   2.458  0.7031 -0.8448  2.0252
 5830TIP3   OH239048   0.149   2.358   0.958 -0.1552 -0.6464 -0.0855
 5830TIP3    H139049   0.068   2.409   0.961  0.7224  0.7909  0.4238
 5830TIP3    H239050   0.135   2.287   1.019 -1.3091 -0.8729 -0.5777
 5831TIP3   OH239051   6.662   1.216   2.734 -0.2393  0.0218  0.2673
 5831TIP3    H139052   6.631   1.286   2.792 -0.8137 -1.1018  1.3570
 5831TIP3    H239053   6.718   1.162   2.789 -1.4587 -1.5439  0.0485
 5832TIP3   OH239054   5.495   3.807   6.886 -0.0999  1.1874 -0.4810
 5832TIP3    H139055   5.512   3.882   6.829 -1.9478  0.4652 -2.1052
 5832TIP3    H239056   5.402   3.788   6.873  0.2271 -1.1434  0.1848
 5833TIP3   OH239057   0.053   2.211   1.380  0.0903 -0.2876 -0.2433
 5833TIP3    H139058   0.100   2.286   1.415 -1.1405 -0.0955  1.0957
 5833TIP3    H239059   0.106   2.181   1.306  1.4037  0.9294  0.1727
 5834TIP3   OH239060   3.507   5.892   1.754  0.2187 -0.2290 -0.0823
 5834TIP3    H139061   3.528   5.968   1.700  1.6647  0.9810  2.0313
 5834TIP3    H239062   3.576   5.890   1.821 -1.1277 -1.9846  1.3586
 5835TIP3   OH239063   5.967   1.855   0.231 -0.0837 -0.3389  0.4079
 5835TIP3    H139064   5.951   1.949   0.224  0.8816 -0.2434 -0.7300
 5835TIP3    H239065   5.894   1.815   0.183 -0.5971 -0.1904  1.0521
 5836TIP3   OH239066   5.258   6.718   1.860 -0.2303  0.5005 -0.2316
 5836TIP3    H139067   5.199   6.646   1.837  0.1072  0.2957 -0.4799
 5836TIP3    H239068   5.203   6.796   1.859 -0.2759  0.4660 -1.5333
 5837TIP3   OH239069   6.359   5.549   0.474 -0.2388 -0.5224 -0.1311
 5837TIP3    H139070   6.325   5.533   0.562 -0.0037 -2.4914 -0.3624
 5837TIP3    H239071   6.321   5.479   0.420  0.2389  0.1919 -1.4331
 5838TIP3   OH239072   5.501   4.213   8.632 -0.2282  0.5554  0.4114
 5838TIP3    H139073   5.542   4.258   8.559  0.0658  0.9263  0.8007
 5838TIP3    H239074   5.418   4.179   8.596  0.2026  0.1792 -0.2543
 5839TIP3   OH239075   0.739   1.642   1.302  0.2890 -0.1339 -0.1527
 5839TIP3    H139076   0.752   1.711   1.368 -0.5884 -0.1423  0.0431
 5839TIP3    H239077   0.823   1.637   1.256 -0.0063  1.9760 -1.0351
 5840TIP3   OH239078   3.020   1.363   1.611 -0.2377 -0.2215  0.1787
 5840TIP3    H139079   3.039   1.270   1.602  0.1551 -0.0388 -1.1554
 5840TIP3    H239080   3.072   1.391   1.686 -0.2983 -1.0482  0.5440
 5841TIP3   OH239081   5.740   3.953   2.435  0.0627  0.6246 -0.2454
 5841TIP3    H139082   5.828   3.975   2.404  0.8023  0.2023  1.4805
 5841TIP3    H239083   5.718   4.023   2.496 -1.0416  1.0085 -1.0426
 5842TIP3   OH239084   6.563   3.056   8.667  0.2960  0.2281  0.2960
 5842TIP3    H139085   6.576   3.047   8.572 -0.2179 -0.0282  0.2428
 5842TIP3    H239086   6.629   3.000   8.706  0.0610 -0.2197  0.0668
 5843TIP3   OH239087   2.503   2.967   8.462  0.0453 -0.3264 -0.3762
 5843TIP3    H139088   2.598   2.978   8.459  0.1574 -1.3544 -1.0501
 5843TIP3    H239089   2.469   3.055   8.479  1.1658 -0.1574  1.2488
 5844TIP3   OH239090   1.830   5.643   0.870  0.0912  0.3032 -0.3136
 5844TIP3    H139091   1.869   5.715   0.920  2.0453 -0.0055 -1.2950
 5844TIP3    H239092   1.871   5.564   0.907  1.8745  0.0916 -2.5583
 5845TIP3   OH239093   4.016   5.510   7.771  0.3970  0.0856 -0.2316
 5845TIP3    H139094   4.096   5.487   7.724  0.5339 -1.8988  0.8463
 5845TIP3    H239095   3.949   5.515   7.703  1.0912 -0.0005 -0.9391
 5846TIP3   OH239096   5.127   0.185   2.587  0.4771  0.1519  0.0639
 5846TIP3    H139097   5.201   0.125   2.589 -0.0453 -0.5894 -1.2983
 5846TIP3    H239098   5.142   0.239   2.510 -0.3669  0.0056 -0.2157
 5847TIP3   OH239099   2.654   3.250   2.053 -0.7672 -0.4449 -0.2436
 5847TIP3    H139100   2.739   3.285   2.081 -1.0321 -1.2915  1.8719
 5847TIP3    H239101   2.618   3.210   2.133 -2.2175 -1.9736 -1.5901
 5848TIP3   OH239102   6.190   5.000   7.738  0.0787 -0.1124  0.0345
 5848TIP3    H139103   6.278   4.970   7.758 -0.6366 -1.5943  1.2096
 5848TIP3    H239104   6.193   5.095   7.753  2.1720  0.4324 -2.8705
 5849TIP3   OH239105   4.393   0.506   2.779  0.1626  0.7806 -0.2356
 5849TIP3    H139106   4.393   0.570   2.709 -1.8196  0.1889 -0.8564
 5849TIP3    H239107   4.310   0.521   2.826 -1.2124 -2.2272 -1.3781
 5850TIP3   OH239108   2.721   3.073   8.139 -0.4210 -0.6773  0.8782
 5850TIP3    H139109   2.785   3.010   8.106  1.0810  1.3169 -0.1851
 5850TIP3    H239110   2.743   3.156   8.097 -5.4849 -0.3515 -1.9793
 5851TIP3   OH239111   4.501   0.108   2.621 -0.1947 -0.2174  0.1261
 5851TIP3    H139112   4.557   0.067   2.555 -1.5021 -2.1021  0.0876
 5851TIP3    H239113   4.415   0.115   2.578 -0.7982 -0.4998  1.2559
 5852TIP3   OH239114   5.877   0.197   0.585 -0.1533  0.5910 -0.4299
 5852TIP3    H139115   5.912   0.155   0.663  0.5003  2.2180  0.1787
 5852TIP3    H239116   5.939   0.174   0.515 -0.3512 -0.2608 -0.3440
 5853TIP3   OH239117   6.037   5.793   8.582  0.1391 -0.4639  0.0823
 5853TIP3    H139118   6.044   5.857   8.653 -0.5034  0.3803 -0.5929
 5853TIP3    H239119   5.943   5.782   8.569  0.2384  0.1819 -1.3193
 5854TIP3   OH239120   4.579   2.345   8.174 -0.0153  0.4250 -0.6160
 5854TIP3    H139121   4.530   2.327   8.094 -0.0766  0.7321 -0.6460
 5854TIP3    H239122   4.671   2.336   8.148 -0.0263 -2.3765 -0.0673
 5855TIP3   OH239123   2.660   2.364   7.492 -0.4676 -0.5280 -0.1918
 5855TIP3    H139124   2.620   2.286   7.452 -1.7814  0.5937 -1.1823
 5855TIP3    H239125   2.608   2.437   7.459  1.6197  0.9282 -0.4502
 5856TIP3   OH239126   6.560   1.023   2.351  0.0503  0.0628  0.2279
 5856TIP3    H139127   6.464   1.025   2.350  0.0297  2.3792 -0.6532
 5856TIP3    H239128   6.584   1.015   2.259  0.6785  0.3576  0.3639
 5857TIP3   OH239129   2.671   6.144   2.158 -0.3051  0.4921  0.0135
 5857TIP3    H139130   2.750   6.123   2.109  0.0836  2.4165 -0.2874
 5857TIP3    H239131   2.690   6.229   2.198 -1.7670  0.4044  0.9575
 5858TIP3   OH239132   4.762   5.699   0.833 -0.3314 -0.1354  0.2341
 5858TIP3    H139133   4.791   5.726   0.920  0.1095 -1.1733  0.4256
 5858TIP3    H239134   4.814   5.621   0.814 -1.4878 -0.7910 -0.3266
 5859TIP3   OH239135   3.783   6.235   1.831 -0.3596 -0.5821  0.0613
 5859TIP3    H139136   3.826   6.266   1.752 -2.0337  1.1356 -0.2377
 5859TIP3    H239137   3.740   6.312   1.868 -1.5228 -1.7917  1.3996
 5860TIP3   OH239138   5.027   4.569   7.968 -0.3444  0.1740  0.2992
 5860TIP3    H139139   5.033   4.627   7.892 -0.6770  0.2788  0.3477
 5860TIP3    H239140   5.115   4.568   8.005 -0.4285  1.0343  0.5718
 5861TIP3   OH239141   4.972   3.819   2.459  0.3885  0.0700 -0.5501
 5861TIP3    H139142   4.976   3.788   2.368  0.1761 -1.3222 -0.1161
 5861TIP3    H239143   4.878   3.833   2.475  0.5779  2.6662 -1.2442
 5862TIP3   OH239144   0.797   4.749   0.191  0.3937 -0.3958 -0.2558
 5862TIP3    H139145   0.752   4.779   0.112  1.7421  0.6977 -0.6651
 5862TIP3    H239146   0.845   4.671   0.164 -0.5735 -1.0866 -0.0256
 5863TIP3   OH239147   0.237   6.390   7.926 -0.3014  0.0286 -0.3346
 5863TIP3    H139148   0.197   6.443   7.995 -1.0434  2.4328 -2.4257
 5863TIP3    H239149   0.325   6.426   7.916 -0.3618  0.0234 -0.9286
 5864TIP3   OH239150   4.143   3.667   0.689 -0.4750 -0.2027 -0.0733
 5864TIP3    H139151   4.216   3.606   0.702  0.3564  0.3683 -1.7242
 5864TIP3    H239152   4.071   3.613   0.658 -0.2800 -0.5862  0.1399
 5865TIP3   OH239153   3.860   6.421   0.070 -0.3758 -0.2940 -0.2299
 5865TIP3    H139154   3.876   6.509   0.036 -1.9117  0.2388  0.3305
 5865TIP3    H239155   3.813   6.377  -0.000 -0.1973 -0.4394 -0.2564
 5866TIP3   OH239156   5.378   3.495   8.633  0.5330 -0.1397 -0.2591
 5866TIP3    H139157   5.366   3.572   8.578 -0.8665  0.6256  1.0602
 5866TIP3    H239158   5.380   3.422   8.571  0.8917  0.8392 -1.4505
 5867TIP3   OH239159   2.936   3.590   2.553  0.5303 -0.2197  0.4324
 5867TIP3    H139160   2.924   3.497   2.534  1.2186 -0.3191  0.4711
 5867TIP3    H239161   2.848   3.628   2.545  0.5901 -0.4569 -1.8675
 5868TIP3   OH239162   0.654   3.883   7.758  0.0370  0.7615  0.1971
 5868TIP3    H139163   0.616   3.820   7.819  3.5742  0.3980  2.2666
 5868TIP3    H239164   0.640   3.968   7.799 -0.5984  0.8745 -0.2421
 5869TIP3   OH239165   4.460   4.260   1.597  0.2371  0.2019  0.4125
 5869TIP3    H139166   4.469   4.316   1.520 -0.5868  0.3202  0.3893
 5869TIP3    H239167   4.529   4.289   1.657  1.2321 -0.2517 -0.4894
 5870TIP3   OH239168   6.695   4.295   7.410 -0.3464  0.1553  0.3954
 5870TIP3    H139169   6.602   4.274   7.414 -0.3200 -0.6836 -1.9009
 5870TIP3    H239170   6.721   4.274   7.320  1.5573  2.4506  0.2895
 5871TIP3   OH239171   3.630   4.671   1.050  0.0799 -0.1075 -0.3222
 5871TIP3    H139172   3.677   4.745   1.011 -0.2238  0.4192  0.3064
 5871TIP3    H239173   3.580   4.709   1.122  0.1224 -0.9700  0.1739
 5872TIP3   OH239174   3.766   5.416   6.924 -0.2242  0.4676  0.2696
 5872TIP3    H139175   3.771   5.486   6.860  2.9735  0.9293  0.8237
 5872TIP3    H239176   3.803   5.455   7.004 -0.2775 -1.2466  1.1726
 5873TIP3   OH239177   4.730   4.789   1.614  0.4048  0.3168 -0.0854
 5873TIP3    H139178   4.653   4.737   1.589  1.7719 -2.0057  0.2164
 5873TIP3    H239179   4.749   4.842   1.536 -0.0095 -0.9878 -1.1152
 5874TIP3   OH239180   6.196   0.965   7.833 -0.7305  0.3404 -0.4096
 5874TIP3    H139181   6.114   0.977   7.882 -0.7860 -0.0357 -0.4014
 5874TIP3    H239182   6.169   0.957   7.742 -0.5931  1.4232 -0.5564
 5875TIP3   OH239183   4.287   0.746   1.402 -0.0972  0.3110  0.2572
 5875TIP3    H139184   4.324   0.831   1.375  0.1902  0.2353  0.4016
 5875TIP3    H239185   4.193   0.756   1.390 -0.2712  1.2939  1.9577
 5876TIP3   OH239186   3.529   3.663   1.294 -0.2034 -0.8758 -0.2305
 5876TIP3    H139187   3.497   3.730   1.234 -2.5265 -0.5324  1.2761
 5876TIP3    H239188   3.607   3.702   1.335 -0.6024  0.2499 -0.5250
 5877TIP3   OH239189   6.485   5.723   0.880  0.7214 -0.1082 -0.0876
 5877TIP3    H139190   6.467   5.815   0.861  0.9040 -0.0666 -0.0589
 5877TIP3    H239191   6.580   5.717   0.883  0.7218 -0.3687 -0.4533
 5878TIP3   OH239192   2.176   2.175   1.709 -0.4307  0.0905 -0.2487
 5878TIP3    H139193   2.193   2.218   1.793 -4.0825  0.7257  0.3322
 5878TIP3    H239194   2.176   2.246   1.645  3.4983 -0.5188 -1.2055
 5879TIP3   OH239195   2.459   0.570   2.472  0.0099  0.3505  0.1764
 5879TIP3    H139196   2.442   0.478   2.493  0.7705  0.2853  0.5260
 5879TIP3    H239197   2.535   0.593   2.525  0.0808  1.0620 -0.2264
 5880TIP3   OH239198   2.791   5.952   0.220  0.4667  0.1666 -0.4344
 5880TIP3    H139199   2.796   5.959   0.315  0.4996  0.4691 -0.4570
 5880TIP3    H239200   2.779   5.859   0.203  0.8052  0.0709 -0.1488
 5881TIP3   OH239201   1.389   5.559   0.237 -0.5403 -0.3550 -0.4194
 5881TIP3    H139202   1.388   5.589   0.328 -0.6672  0.2716 -0.6170
 5881TIP3    H239203   1.365   5.637   0.187  0.6490 -0.3905 -1.0712
 5882TIP3   OH239204   4.148   6.775   7.007 -0.2680  0.6650  0.1514
 5882TIP3    H139205   4.140   6.737   7.094  1.2492  0.6981  0.3350
 5882TIP3    H239206   4.069   6.746   6.961 -2.0056  2.1329  2.0293
 5883TIP3   OH239207   6.602   2.931   0.869  0.2719 -0.2426 -0.3317
 5883TIP3    H139208   6.593   2.972   0.955  4.0386  0.5585 -0.1193
 5883TIP3    H239209   6.641   2.845   0.887  1.4730  0.0873 -1.1930
 5884TIP3   OH239210   1.898   2.477   0.858 -0.5045 -0.0714 -0.0834
 5884TIP3    H139211   1.934   2.390   0.840  0.0517  0.3974 -1.3384
 5884TIP3    H239212   1.901   2.485   0.953 -3.2807 -2.5729  0.3448
 5885TIP3   OH239213   4.075   2.188   0.695 -0.6973 -0.1616  0.3394
 5885TIP3    H139214   4.083   2.194   0.600 -0.7555 -0.4430  0.3136
 5885TIP3    H239215   4.154   2.231   0.729 -1.5931  1.6444  0.2183
 5886TIP3   OH239216   6.430   4.983   7.551  0.2446  0.8846 -0.0754
 5886TIP3    H139217   6.487   5.012   7.480  0.7195  0.8866  0.2991
 5886TIP3    H239218   6.411   4.891   7.531 -1.7938  1.5848 -1.6133
 5887TIP3   OH239219   1.534   3.201   8.250  0.2148  0.4764 -0.0994
 5887TIP3    H139220   1.458   3.242   8.208  0.4069  0.4271 -0.5011
 5887TIP3    H239221   1.509   3.192   8.342 -0.4672 -0.0198 -0.3279
 5888TIP3   OH239222   6.336   6.473   0.261  0.5582 -0.9195  0.0435
 5888TIP3    H139223   6.253   6.484   0.214  0.7566  4.8854  0.4069
 5888TIP3    H239224   6.403   6.507   0.201  2.3082 -2.5233  0.9662
 5889TIP3   OH239225   3.573   4.140   8.369 -0.0865 -0.1771 -0.2237
 5889TIP3    H139226   3.490   4.184   8.385 -0.7544 -1.0758 -1.1133
 5889TIP3    H239227   3.571   4.063   8.427  0.8733  0.6725  0.9886
 5890TIP3   OH239228   2.064   3.987   0.421 -0.0026  0.5828  0.1136
 5890TIP3    H139229   2.071   4.020   0.332 -1.2085 -1.3037 -0.7519
 5890TIP3    H239230   2.034   4.062   0.473  1.5145  1.9180 -0.8707
 5891TIP3   OH239231   6.074   0.064   0.406 -0.3086  0.1335 -0.4629
 5891TIP3    H139232   6.109   0.064   0.318 -0.6884 -0.1631 -0.6151
 5891TIP3    H239233   6.046  -0.026   0.422  0.7030 -0.0605  0.3479
 5892TIP3   OH239234   3.104   4.604   8.833 -0.4803  0.3301  0.0732
 5892TIP3    H139235   3.056   4.588   8.751  2.8737 -0.4196 -1.9697
 5892TIP3    H239236   3.077   4.532   8.890 -0.6228 -1.0334 -1.5972
 5893TIP3   OH239237   1.344   1.563   8.189  0.7488 -0.1168 -0.2959
 5893TIP3    H139238   1.346   1.473   8.155  0.8001 -0.3737  0.3838
 5893TIP3    H239239   1.311   1.554   8.278 -1.1355  0.7498 -0.8512
 5894TIP3   OH239240   3.040   1.853   0.733  0.2875  0.2244  0.1490
 5894TIP3    H139241   2.998   1.823   0.813  0.2669 -0.6266 -0.1725
 5894TIP3    H239242   3.128   1.816   0.736  1.2497  2.4108  1.0638
 5895TIP3   OH239243   6.167   6.011   1.668  0.0949 -0.3350 -0.1457
 5895TIP3    H139244   6.193   6.087   1.616 -0.0496 -0.5318 -0.5115
 5895TIP3    H239245   6.138   5.946   1.604 -0.4211 -0.4541  0.1990
 5896TIP3   OH239246   0.931   3.688   0.030 -0.2342 -0.3379  0.0384
 5896TIP3    H139247   1.024   3.701   0.012 -0.2259  0.0429  0.3452
 5896TIP3    H239248   0.888   3.765  -0.006 -0.2871  0.1116  1.0529
 5897TIP3   OH239249   2.445   6.376   1.724 -0.3063  0.2920  0.1947
 5897TIP3    H139250   2.486   6.457   1.754 -0.5484  0.3159  0.4663
 5897TIP3    H239251   2.503   6.307   1.755  0.3731  0.3907 -0.7939
 5898TIP3   OH239252   2.117   4.493   6.795  0.5314  0.2866  0.2148
 5898TIP3    H139253   2.046   4.534   6.844  1.0417 -0.5575  1.7283
 5898TIP3    H239254   2.077   4.416   6.755 -0.3913  2.0303 -2.5104
 5899TIP3   OH239255   3.391   1.570   7.945 -0.1146  0.0102 -0.0975
 5899TIP3    H139256   3.372   1.517   7.867  2.6507 -0.7798 -0.3353
 5899TIP3    H239257   3.379   1.660   7.915  0.4133 -0.2994 -1.3291
 5900TIP3   OH239258   0.459   0.694   0.044 -0.0682  0.0780  0.7912
 5900TIP3    H139259   0.547   0.724   0.068  0.0686 -0.1298  0.5493
 5900TIP3    H239260   0.403   0.730   0.113  0.4303 -1.2588  1.9471
 5901TIP3   OH239261   3.103   3.858   7.042 -0.2414 -0.5079  0.1291
 5901TIP3    H139262   3.074   3.942   7.007  1.3328  0.2068  0.4628
 5901TIP3    H239263   3.104   3.799   6.966  1.8962  0.6823 -0.8524
 5902TIP3   OH239264   1.548   0.710   1.475  0.1797  0.3148  0.2930
 5902TIP3    H139265   1.522   0.618   1.474 -0.4478  0.4634  1.4857
 5902TIP3    H239266   1.511   0.747   1.395 -2.2461  0.2156  1.3044
 5903TIP3   OH239267   0.468   5.230   0.931 -0.0535 -0.5670  0.2047
 5903TIP3    H139268   0.480   5.189   0.845 -1.8396 -1.2120  0.2078
 5903TIP3    H239269   0.431   5.316   0.911  2.0039  0.3700  0.2650
 5904TIP3   OH239270   1.022   0.550   0.439  0.4373  0.0334  0.3664
 5904TIP3    H139271   0.968   0.512   0.509  0.1900  1.3729  0.9278
 5904TIP3    H239272   1.025   0.482   0.372  1.0013 -1.4512  1.8226
 5905TIP3   OH239273   6.506   4.645   8.436 -0.0575 -0.5348  0.3266
 5905TIP3    H139274   6.529   4.734   8.409  0.5593 -0.8594 -0.2582
 5905TIP3    H239275   6.431   4.622   8.381 -0.2814 -0.3478  0.5476
 5906TIP3   OH239276   2.068   0.249   0.073  0.2007 -0.1643 -0.5380
 5906TIP3    H139277   2.020   0.169   0.055 -0.7119  0.4108 -0.7511
 5906TIP3    H239278   2.035   0.312   0.009  0.6318  0.4847 -0.1382
 5907TIP3   OH239279   3.833   1.627   1.125  0.1601  0.2712 -0.6647
 5907TIP3    H139280   3.810   1.535   1.142  0.7607  0.3058  0.3867
 5907TIP3    H239281   3.806   1.641   1.034 -0.6695 -0.7147 -0.5941
 5908TIP3   OH239282   4.833   1.112   0.712  0.4659  0.2862 -0.4754
 5908TIP3    H139283   4.738   1.112   0.723  0.5375 -0.4991  0.2623
 5908TIP3    H239284   4.868   1.123   0.800  1.0881  2.5450 -0.9392
 5909TIP3   OH239285   5.154   0.787   8.006 -0.2463  0.4266 -0.1564
 5909TIP3    H139286   5.219   0.725   7.976 -1.3987 -1.1778  0.5293
 5909TIP3    H239287   5.159   0.860   7.944  0.7854 -0.5696 -1.2694
 5910TIP3   OH239288   5.029   1.221   0.040 -0.2626 -0.8754 -0.0018
 5910TIP3    H139289   4.973   1.182  -0.028 -3.3470 -0.0105  1.8332
 5910TIP3    H239290   5.008   1.314   0.037  2.3338 -0.2181 -0.1997
 5911TIP3   OH239291   6.223   1.699   2.726  0.1087  0.0628 -0.1983
 5911TIP3    H139292   6.145   1.647   2.707 -0.3948  0.5481  0.4838
 5911TIP3    H239293   6.224   1.765   2.657  1.2570 -1.3495 -1.6103
 5912TIP3   OH239294   3.635   3.470   1.002  0.1086  0.4136  0.3623
 5912TIP3    H139295   3.636   3.460   0.907  0.4904  1.8295  0.1990
 5912TIP3    H239296   3.547   3.440   1.028  0.0040  0.0166 -0.4275
 5913TIP3   OH239297   4.761   4.875   0.833 -0.0387 -0.2867 -0.5456
 5913TIP3    H139298   4.852   4.886   0.805  0.3263 -0.3698  0.5476
 5913TIP3    H239299   4.736   4.789   0.798 -0.1270  0.2807 -1.9229
 5914TIP3   OH239300   0.616   4.401   3.331 -0.1986 -0.5186  0.2087
 5914TIP3    H139301   0.676   4.475   3.324  0.2225 -0.9499 -1.0751
 5914TIP3    H239302   0.625   4.355   3.247  3.0767 -4.6667  2.3743
 5915TIP3   OH239303   5.572   2.744   2.412  0.1334  0.2511  0.2283
 5915TIP3    H139304   5.544   2.658   2.442 -0.2155  0.7540  1.4211
 5915TIP3    H239305   5.512   2.805   2.456  1.9626  1.2664  1.4352
 5916TIP3   OH239306   6.530   1.683   8.680  0.5050  0.3132 -0.4241
 5916TIP3    H139307   6.555   1.636   8.760 -1.5872  1.3855  0.9758
 5916TIP3    H239308   6.537   1.618   8.610  0.3231 -1.3071  0.9993
 5917TIP3   OH239309   5.420   1.113   2.262  0.1862  0.3970  0.3859
 5917TIP3    H139310   5.490   1.174   2.286 -0.2620  1.0539  0.0624
 5917TIP3    H239311   5.372   1.099   2.343 -0.3449  1.3231  0.2464
 5918TIP3   OH239312   3.231   6.672   1.126  0.0176  0.2654  0.5145
 5918TIP3    H139313   3.270   6.725   1.057 -2.0585  0.1069 -0.8482
 5918TIP3    H239314   3.228   6.730   1.202 -1.0151  1.7028 -0.5784
 5919TIP3   OH239315   2.802   1.439   8.433 -0.2143 -0.6478 -0.3034
 5919TIP3    H139316   2.850   1.464   8.354 -1.9144 -1.4247 -1.6631
 5919TIP3    H239317   2.739   1.373   8.403  1.4339 -3.7124  2.3888
 5920TIP3   OH239318   4.578   5.170   0.605  0.3397  0.2035 -0.1572
 5920TIP3    H139319   4.529   5.167   0.523  0.5961  1.5118 -0.3890
 5920TIP3    H239320   4.670   5.164   0.578  0.4336  0.8487  0.0067
 5921TIP3   OH239321   1.092   6.296   0.256  0.2016  0.1910 -0.2078
 5921TIP3    H139322   1.032   6.270   0.186  1.5098  1.4080 -1.8431
 5921TIP3    H239323   1.134   6.214   0.283 -0.4218 -0.3073 -0.7195
 5922TIP3   OH239324   4.120   6.359   2.601  0.0828  0.2620 -0.6234
 5922TIP3    H139325   4.152   6.278   2.640  0.4833  0.4214 -0.6222
 5922TIP3    H239326   4.087   6.410   2.675  0.1827  0.2610 -0.5785
 5923TIP3   OH239327   3.881   3.745   7.582 -0.1590  0.0521  0.0949
 5923TIP3    H139328   3.844   3.658   7.600 -2.5800  0.7110 -1.2668
 5923TIP3    H239329   3.886   3.787   7.668  4.2020 -2.4109  1.3440
 5924TIP3   OH239330   0.317   2.170   7.717 -0.4006  0.4389  0.3205
 5924TIP3    H139331   0.248   2.106   7.699  0.0786  0.0603 -0.2015
 5924TIP3    H239332   0.380   2.123   7.772 -0.4045  0.6860  0.5379
 5925TIP3   OH239333   2.936   1.707   0.066 -0.1430  0.0383  0.1793
 5925TIP3    H139334   2.886   1.635   0.105  0.7311 -1.4509 -1.3377
 5925TIP3    H239335   2.899   1.786   0.107 -2.6691 -1.0708  0.2492
 5926TIP3   OH239336   0.493   0.075   2.136 -0.0070 -0.1940  0.2958
 5926TIP3    H139337   0.551   0.016   2.183 -0.4958  0.3029  1.5728
 5926TIP3    H239338   0.541   0.158   2.134 -0.4713  0.0991  0.9686
 5927TIP3   OH239339   4.819   2.000   0.473  0.0020  0.2881 -0.0362
 5927TIP3    H139340   4.727   1.972   0.465 -0.1450  0.8187 -0.2509
 5927TIP3    H239341   4.823   2.043   0.558 -0.0038  0.4763 -0.1317
 5928TIP3   OH239342   5.699   5.311   8.135 -0.3702 -0.3349  0.1339
 5928TIP3    H139343   5.625   5.250   8.131 -0.9711  0.4512 -1.0325
 5928TIP3    H239344   5.748   5.283   8.213 -2.2941 -0.4069  1.3897
 5929TIP3   OH239345   0.541   4.827   8.320  0.3513  0.2206  0.0931
 5929TIP3    H139346   0.505   4.748   8.359 -0.2994  0.8135  0.7327
 5929TIP3    H239347   0.538   4.811   8.225 -1.0718  0.0244  0.1594
 5930TIP3   OH239348   3.231   0.655   0.888 -0.1224 -0.6264 -0.9903
 5930TIP3    H139349   3.141   0.624   0.899 -0.3722  0.5826  0.7561
 5930TIP3    H239350   3.267   0.656   0.977  1.8894 -1.7645 -1.7210
 5931TIP3   OH239351   2.647   0.520   0.768 -0.0771  0.1129  0.4812
 5931TIP3    H139352   2.664   0.582   0.697 -0.9406 -0.6047 -0.3727
 5931TIP3    H239353   2.701   0.444   0.747 -1.4900 -0.7321 -0.3059
 5932TIP3   OH239354   2.880   0.277   1.362  0.0945  0.3939 -0.3556
 5932TIP3    H139355   2.891   0.370   1.343  3.6490 -0.3408 -2.7047
 5932TIP3    H239356   2.842   0.241   1.282 -3.5878 -0.0119  1.3632
 5933TIP3   OH239357   5.507   6.484   2.340 -0.5327 -0.1427 -0.1926
 5933TIP3    H139358   5.532   6.406   2.389  0.8708 -0.5459 -1.4816
 5933TIP3    H239359   5.555   6.555   2.382 -1.5341  0.0084  0.7551
 5934TIP3   OH239360   5.832   1.168   1.141  0.2605 -0.2052  0.1658
 5934TIP3    H139361   5.885   1.124   1.208  0.2919 -1.4580 -0.6441
 5934TIP3    H239362   5.742   1.159   1.172  0.3368 -0.0961  0.4184
 5935TIP3   OH239363   4.605   2.051   0.712  0.2331 -0.0430 -0.4857
 5935TIP3    H139364   4.541   2.022   0.647  0.6994  0.8508 -1.3593
 5935TIP3    H239365   4.584   1.999   0.790 -0.9734 -0.4107 -1.0260
 5936TIP3   OH239366   2.792   5.191   2.929  0.3914  0.0582  0.2340
 5936TIP3    H139367   2.822   5.273   2.889  1.0888 -0.5795 -0.5924
 5936TIP3    H239368   2.821   5.123   2.868 -2.4657 -0.6564 -0.4742
 5937TIP3   OH239369   1.088   2.301   0.927 -0.1738  0.5208  0.1283
 5937TIP3    H139370   1.164   2.295   0.869 -0.5965  1.6194 -0.5636
 5937TIP3    H239371   1.017   2.259   0.878  0.0020 -0.6796  0.8513
 5938TIP3   OH239372   6.188   3.856   1.048  0.6913 -0.1424  0.5567
 5938TIP3    H139373   6.226   3.932   1.093 -0.9975  0.8382  0.4107
 5938TIP3    H239374   6.178   3.790   1.117  2.1740 -0.2598  0.6876
 5939TIP3   OH239375   4.445   0.218   8.084  0.2159 -0.1460 -0.1422
 5939TIP3    H139376   4.356   0.199   8.053  0.6052 -0.8314 -0.9107
 5939TIP3    H239377   4.440   0.305   8.124 -0.3361  0.8419 -2.2220
 5940TIP3   OH239378   2.228   2.149   7.280 -0.2043  0.8459  0.0182
 5940TIP3    H139379   2.293   2.206   7.239 -0.7255  0.8170 -0.8803
 5940TIP3    H239380   2.176   2.208   7.334  0.0068  1.0245  0.0290
 5941TIP3   OH239381   4.542   5.055   7.018  0.2330 -0.1254 -0.1993
 5941TIP3    H139382   4.579   5.080   7.102  1.8615 -3.3736  0.2375
 5941TIP3    H239383   4.605   5.085   6.953 -0.0333  0.6382 -0.1145
 5942TIP3   OH239384   1.456   5.625   1.864  0.7607 -0.7932 -0.1883
 5942TIP3    H139385   1.407   5.571   1.927  1.6303  1.4294  2.6340
 5942TIP3    H239386   1.389   5.681   1.824  0.2515 -1.9030 -0.9199
 5943TIP3   OH239387   2.479   3.236   2.276 -0.7608  0.4911  0.0187
 5943TIP3    H139388   2.517   3.173   2.338 -0.0594  0.6737 -0.2188
 5943TIP3    H239389   2.420   3.183   2.223  0.1933 -0.0846 -0.5086
 5944TIP3   OH239390   6.073   4.774   1.496 -0.7585 -0.5140 -0.1919
 5944TIP3    H139391   6.087   4.829   1.419  1.3208  1.2280  1.3210
 5944TIP3    H239392   5.989   4.731   1.479 -2.0280  2.3386 -1.9562
 5945TIP3   OH239393   4.844   0.988   8.111  0.0839 -0.2584  0.2099
 5945TIP3    H139394   4.774   0.929   8.141 -0.1294  0.3470  0.9471
 5945TIP3    H239395   4.915   0.974   8.173  0.7527 -1.0714 -0.6970
 5946TIP3   OH239396   0.429   3.218   8.224  0.0155  0.9385 -0.0416
 5946TIP3    H139397   0.416   3.240   8.317 -0.6235 -1.0737  0.3949
 5946TIP3    H239398   0.416   3.301   8.178 -0.2815  1.8609  1.6109
 5947TIP3   OH239399   1.567   3.662   0.112  0.0688 -0.5026 -0.1943
 5947TIP3    H139400   1.597   3.747   0.145  1.8259 -0.7665 -1.0060
 5947TIP3    H239401   1.644   3.624   0.071 -1.0553 -1.9030 -1.0850
 5948TIP3   OH239402   1.561   5.389   1.695 -0.3128  0.1645  0.8281
 5948TIP3    H139403   1.550   5.465   1.753  0.4901  0.5026  0.5464
 5948TIP3    H239404   1.612   5.423   1.621 -2.9391  0.2889 -1.1059
 5949TIP3   OH239405   3.015   4.279   8.394  0.3080 -0.1942 -0.5672
 5949TIP3    H139406   3.002   4.215   8.324 -0.1792 -1.1314  0.3571
 5949TIP3    H239407   2.951   4.255   8.461  1.3999  0.1034  0.6246
 5950TIP3   OH239408   5.094   6.806   1.447 -0.1272  0.3346 -0.3997
 5950TIP3    H139409   5.058   6.779   1.362  0.2654  0.3684 -0.5764
 5950TIP3    H239410   5.017   6.832   1.498 -0.5050 -0.8909 -0.3054
 5951TIP3   OH239411   5.513   3.270   0.546 -0.3543  0.3495 -0.2721
 5951TIP3    H139412   5.606   3.294   0.545 -0.2154 -0.0933 -2.2328
 5951TIP3    H239413   5.488   3.268   0.453 -1.9051 -1.1121  0.1380
 5952TIP3   OH239414   5.386   1.202   0.969 -0.6089  0.3762 -0.2878
 5952TIP3    H139415   5.311   1.261   0.976  0.1753  1.5302 -1.2005
 5952TIP3    H239416   5.413   1.208   0.877  0.3432 -0.3433 -0.0705
 5953TIP3   OH239417   4.722   6.377   0.756  0.0978 -0.8142 -0.4149
 5953TIP3    H139418   4.815   6.374   0.775 -0.0820  0.0295  0.7312
 5953TIP3    H239419   4.681   6.324   0.824 -0.2361 -1.4730 -1.1213
 5954TIP3   OH239420   4.632   0.007   0.937  0.2781  0.1095 -0.2675
 5954TIP3    H139421   4.646  -0.055   0.865 -0.6761 -0.4423  0.0085
 5954TIP3    H239422   4.681   0.086   0.910  0.1083 -0.1543 -1.4210
 5955TIP3   OH239423   5.694   2.557   1.408  0.7339 -0.2844 -0.8803
 5955TIP3    H139424   5.602   2.537   1.391  1.3142 -2.2504 -2.0360
 5955TIP3    H239425   5.697   2.581   1.501 -0.7209 -1.7828 -0.4050
 5956TIP3   OH239426   0.632   1.438   2.635 -0.3364 -0.0169 -0.4447
 5956TIP3    H139427   0.621   1.345   2.651 -3.6698  0.4303  0.5524
 5956TIP3    H239428   0.600   1.481   2.714  0.6617  1.9987 -1.0565
 5957TIP3   OH239429   0.577   1.531   7.321  0.2816  0.3477  0.4428
 5957TIP3    H139430   0.603   1.593   7.253 -1.2434 -0.3824 -0.8832
 5957TIP3    H239431   0.658   1.512   7.368  1.2550  1.4337 -0.6959
 5958TIP3   OH239432   1.293   0.751   8.073  0.2416  0.1627  0.0172
 5958TIP3    H139433   1.202   0.752   8.102  0.0375 -2.0175 -0.3567
 5958TIP3    H239434   1.293   0.693   7.997  2.1049 -0.6809  0.6123
 5959TIP3   OH239435   4.545   5.258   2.600 -0.0208  0.0166  0.0347
 5959TIP3    H139436   4.580   5.169   2.598 -2.0895 -0.8491 -1.4273
 5959TIP3    H239437   4.470   5.253   2.660 -0.6187  0.5505 -0.6463
 5960TIP3   OH239438   6.730   0.113   8.629 -0.0069  0.0714 -0.3117
 5960TIP3    H139439   6.658   0.054   8.605 -1.4925  1.4435  0.6280
 5960TIP3    H239440   6.774   0.132   8.546  0.4626 -2.2256 -0.6598
 5961TIP3   OH239441   5.376   2.019   0.894  0.3102  0.4589  0.0865
 5961TIP3    H139442   5.450   2.073   0.864 -0.0063  1.4177  0.9970
 5961TIP3    H239443   5.394   2.003   0.986 -0.4638  0.4171  0.2348
 5962TIP3   OH239444   1.422   0.266   2.595 -0.1121  0.0767  0.4579
 5962TIP3    H139445   1.363   0.201   2.557 -0.8227  1.2076 -0.4314
 5962TIP3    H239446   1.442   0.232   2.682 -1.1846 -0.8859  0.3480
 5963TIP3   OH239447   5.323   4.311   1.129  0.0593 -0.1726 -0.0116
 5963TIP3    H139448   5.268   4.234   1.114 -1.1621  0.7762 -0.6155
 5963TIP3    H239449   5.379   4.288   1.203  1.0096 -2.3072 -1.3181
 5964TIP3   OH239450   0.084   0.257   7.399  0.2138 -0.2010  0.0214
 5964TIP3    H139451   0.088   0.257   7.495  0.3200 -0.7538  0.0203
 5964TIP3    H239452   0.154   0.317   7.373  0.9778 -0.9560  0.2737
 5965TIP3   OH239453   6.135   6.773   2.005 -0.0994 -0.5849  0.0587
 5965TIP3    H139454   6.101   6.861   1.987  1.2209  0.2852  1.5399
 5965TIP3    H239455   6.072   6.714   1.964 -0.3757  1.0608 -2.0469
 5966TIP3   OH239456   4.553   5.898   0.781  0.1969  0.3159  0.3240
 5966TIP3    H139457   4.587   5.974   0.829  2.2131  0.9990 -1.9685
 5966TIP3    H239458   4.631   5.844   0.765 -0.9610 -1.4943  0.5647
 5967TIP3   OH239459   1.465   2.323   2.746  0.3963 -0.0301 -0.2827
 5967TIP3    H139460   1.401   2.394   2.733  1.2010  0.9293  0.8236
 5967TIP3    H239461   1.533   2.362   2.801  1.8486 -1.0914 -1.2752
 5968TIP3   OH239462   2.111   5.555   7.081  0.1856 -0.0666 -0.4762
 5968TIP3    H139463   2.196   5.594   7.098  0.7334 -0.8106 -1.4168
 5968TIP3    H239464   2.051   5.603   7.138  0.7648  2.3387 -1.7443
 5969TIP3   OH239465   1.606   4.652   2.698  0.0093 -0.0937  0.0128
 5969TIP3    H139466   1.525   4.682   2.738 -0.3845 -0.4570 -0.4984
 5969TIP3    H239467   1.589   4.561   2.675  0.1477  0.1620 -1.1643
 5970TIP3   OH239468   5.088   1.233   0.643 -0.2144  0.1927  0.0668
 5970TIP3    H139469   5.123   1.204   0.559 -0.3344 -0.8615  0.3712
 5970TIP3    H239470   4.999   1.198   0.646 -0.7288  1.4272  0.0307
 5971TIP3   OH239471   3.052   2.355   1.934  0.0346 -0.3535  0.3366
 5971TIP3    H139472   3.123   2.296   1.909 -0.6158 -1.2897  0.6325
 5971TIP3    H239473   2.977   2.297   1.949 -0.6849  0.5739  0.4243
 5972TIP3   OH239474   3.286   4.101   8.332  0.4411  0.0361  0.4111
 5972TIP3    H139475   3.313   4.182   8.375 -0.3954  0.0891  0.8574
 5972TIP3    H239476   3.193   4.114   8.313  0.8917  0.2071 -1.8775
 5973TIP3   OH239477   1.614   2.702   7.577  0.2937 -0.6086 -0.4500
 5973TIP3    H139478   1.691   2.673   7.528  0.7410 -1.2872  0.6257
 5973TIP3    H239479   1.541   2.659   7.533  0.7946 -2.0791  0.0855
 5974TIP3   OH239480   4.768   2.012   2.887 -0.2933  0.0721 -0.6673
 5974TIP3    H139481   4.844   2.064   2.911 -0.6403 -0.1303  0.9493
 5974TIP3    H239482   4.804   1.928   2.859  0.1585  0.5843 -1.6961
 5975TIP3   OH239483   1.336   2.431   1.398 -0.2632 -0.0109  0.6428
 5975TIP3    H139484   1.368   2.421   1.488  1.2202  1.0309  0.2670
 5975TIP3    H239485   1.409   2.400   1.343 -1.3889 -1.2447 -0.2188
 5976TIP3   OH239486   1.709   2.282   0.576  0.1577  0.2486 -0.7655
 5976TIP3    H139487   1.671   2.288   0.488 -0.6171  0.3998 -0.4371
 5976TIP3    H239488   1.749   2.367   0.590 -0.3747  0.4948 -0.6937
 5977TIP3   OH239489   2.975   5.367   2.807 -0.5145 -0.0278 -0.1732
 5977TIP3    H139490   3.042   5.425   2.771  0.8864 -0.1613  1.9992
 5977TIP3    H239491   2.896   5.386   2.756  0.5312  1.9833 -1.1572
 5978TIP3   OH239492   1.501   2.906   0.537 -0.1024  0.1237 -0.6170
 5978TIP3    H139493   1.462   2.979   0.490  0.2297  0.8466  0.2197
 5978TIP3    H239494   1.528   2.942   0.621  2.6790 -0.2371 -1.2533
 5979TIP3   OH239495   4.610   6.639   2.953 -0.6836  0.0761  0.2798
 5979TIP3    H139496   4.654   6.586   2.887 -2.7539 -1.2218 -0.1424
 5979TIP3    H239497   4.564   6.576   3.008  1.3674  1.0609  3.3801
 5980TIP3   OH239498   2.883   1.381   0.696 -0.1656  0.4193 -0.0060
 5980TIP3    H139499   2.882   1.292   0.661 -2.0388  0.1669  0.5769
 5980TIP3    H239500   2.964   1.420   0.662 -1.1134 -0.2694 -3.4150
 5981TIP3   OH239501   1.941   0.869   1.479 -0.4521  0.1483 -0.2652
 5981TIP3    H139502   1.936   0.786   1.431  1.0865  0.3657 -0.8572
 5981TIP3    H239503   2.014   0.857   1.540 -0.7245  0.7984  0.1944
 5982TIP3   OH239504   4.327   1.604   2.754 -0.3637  0.0540  0.8927
 5982TIP3    H139505   4.257   1.545   2.782 -1.9853  2.0308  1.2504
 5982TIP3    H239506   4.406   1.567   2.794 -1.6054 -0.8136  2.6953
 5983TIP3   OH239507   5.161   6.666   8.566  0.3956  0.0969  0.0360
 5983TIP3    H139508   5.182   6.651   8.658  0.4865  0.9905  0.1637
 5983TIP3    H239509   5.066   6.675   8.563  0.2465 -1.2441 -0.1618
 5984TIP3   OH239510   3.303   3.424   0.143 -0.1845  0.4921  0.2012
 5984TIP3    H139511   3.378   3.424   0.083  0.1247  1.4243  0.5755
 5984TIP3    H239512   3.315   3.345   0.196  0.2163  0.3230 -0.1399
 5985TIP3   OH239513   6.383   4.879   0.930  0.0787 -0.0130 -0.3553
 5985TIP3    H139514   6.391   4.827   0.850  1.4916  0.6264 -0.6669
 5985TIP3    H239515   6.404   4.968   0.903 -1.4089  0.5769  0.3557
 5986TIP3   OH239516   0.969   0.266   1.330 -0.1265  0.2888 -0.1068
 5986TIP3    H139517   0.908   0.226   1.392  0.2230  0.5116  0.3831
 5986TIP3    H239518   1.012   0.335   1.379 -0.6191  1.1902 -0.9005
 5987TIP3   OH239519   0.404   0.564   8.545  0.5743 -0.1989 -0.1067
 5987TIP3    H139520   0.457   0.487   8.566 -0.1255 -0.8237 -0.5629
 5987TIP3    H239521   0.373   0.547   8.456 -0.5455  0.0618  0.2254
 5988TIP3   OH239522   1.327   5.273   7.652  0.2416  0.5786 -0.6419
 5988TIP3    H139523   1.262   5.203   7.641 -0.1473  0.7771  0.2575
 5988TIP3    H239524   1.310   5.333   7.580 -0.9153  0.8748 -0.1467
 5989TIP3   OH239525   3.549   2.770   7.068 -0.5257  0.1261 -0.4459
 5989TIP3    H139526   3.498   2.819   7.133  1.3997  1.4661  0.1308
 5989TIP3    H239527   3.605   2.835   7.027  1.7868 -1.4762 -0.0096
 5990TIP3   OH239528   4.497   0.336   8.716 -0.2967  0.0647 -0.4381
 5990TIP3    H139529   4.547   0.374   8.644 -1.9550  1.6603 -0.8366
 5990TIP3    H239530   4.493   0.406   8.782  0.8838 -1.2352  1.1117
 5991TIP3   OH239531   4.315   1.028   8.466 -0.1471  0.3930  0.1956
 5991TIP3    H139532   4.236   1.070   8.431  0.6826  3.1226  1.3559
 5991TIP3    H239533   4.306   1.034   8.561  2.3566  2.9236  0.4273
 5992TIP3   OH239534   1.109   2.644   7.336  0.3068 -0.2206 -0.6460
 5992TIP3    H139535   1.194   2.685   7.316  1.3361 -0.7885  2.1288
 5992TIP3    H239536   1.132   2.559   7.374 -1.5566 -0.6162 -0.3173
 5993TIP3   OH239537   2.538   5.982   0.097 -0.1420  0.5808  0.0116
 5993TIP3    H139538   2.617   5.984   0.152  0.2542  2.3630 -0.5571
 5993TIP3    H239539   2.466   6.003   0.157 -0.0418  0.0302  0.3251
 5994TIP3   OH239540   2.476   0.345   1.370 -0.3049 -0.4240  0.4978
 5994TIP3    H139541   2.511   0.278   1.311  0.6400  0.8165 -0.3905
 5994TIP3    H239542   2.499   0.428   1.329 -2.2489  0.4764  1.1156
 5995TIP3   OH239543   5.299   3.154   2.129  0.1738 -0.5540  0.2272
 5995TIP3    H139544   5.268   3.223   2.071 -0.5533 -0.5497  0.6146
 5995TIP3    H239545   5.261   3.175   2.214  0.9053 -0.7821  0.6228
 5996TIP3   OH239546   0.080   4.041   2.372 -0.2894 -0.5846  0.3166
 5996TIP3    H139547   0.003   4.090   2.400 -1.0523 -1.1850 -0.6414
 5996TIP3    H239548   0.084   4.055   2.277  2.4006  1.6513  0.6608
 5997TIP3   OH239549   2.325   3.450   2.231  0.4797  0.0754  0.2234
 5997TIP3    H139550   2.250   3.411   2.275 -1.0685 -0.0596 -2.3265
 5997TIP3    H239551   2.395   3.384   2.238  0.2426 -0.0285  2.1466
 5998TIP3   OH239552   2.822   1.235   2.801  0.3120 -0.0420 -0.2878
 5998TIP3    H139553   2.873   1.315   2.787 -0.3609  0.4446 -0.0231
 5998TIP3    H239554   2.731   1.263   2.791 -0.0684 -0.3157  1.8677
 5999TIP3   OH239555   3.029   4.088   8.198 -0.5501 -0.2561  0.0578
 5999TIP3    H139556   3.009   3.998   8.227 -0.9440  0.7025  3.2000
 5999TIP3    H239557   2.969   4.104   8.125 -0.7494 -2.3912 -0.3096
 6000TIP3   OH239558   6.029   5.579   1.182  0.1389 -0.0951  0.4833
 6000TIP3    H139559   6.099   5.572   1.118  0.5055 -0.9424  0.9540
 6000TIP3    H239560   5.998   5.669   1.175 -0.3924 -0.3859 -1.4410
 6001TIP3   OH239561   4.693   1.119   7.621  0.0400  0.4140 -0.4028
 6001TIP3    H139562   4.705   1.035   7.578  0.5549  0.7498 -0.9253
 6001TIP3    H239563   4.754   1.178   7.577  0.4617  0.8097  0.6714
 6002TIP3   OH239564   2.652   5.068   8.269  0.4419 -0.6572  0.4658
 6002TIP3    H139565   2.560   5.079   8.247  0.5815  1.3677  0.6793
 6002TIP3    H239566   2.652   5.047   8.363  0.2159  0.1413  0.6500
 6003TIP3   OH239567   5.763   1.809   0.953 -0.1727  0.0088  0.4821
 6003TIP3    H139568   5.832   1.848   0.899 -0.9361  0.3280 -0.2832
 6003TIP3    H239569   5.775   1.848   1.040  1.7252 -1.2995  0.8762
 6004TIP3   OH239570   4.564   4.779   7.055 -0.1324 -0.3704 -0.0062
 6004TIP3    H139571   4.599   4.752   7.140  1.6615 -0.6543 -0.8018
 6004TIP3    H239572   4.543   4.871   7.066 -0.4317 -0.5326  0.8916
 6005TIP3   OH239573   2.477   0.946   0.767 -0.1662 -0.0276  0.4858
 6005TIP3    H139574   2.399   0.902   0.799  0.1659 -0.7578  0.3272
 6005TIP3    H239575   2.456   1.039   0.771 -0.0156 -0.0319  3.1798
 6006TIP3   OH239576   1.313   6.153   2.049 -0.0689  0.0547 -0.3570
 6006TIP3    H139577   1.263   6.096   1.990 -0.7289  0.1765  0.0591
 6006TIP3    H239578   1.318   6.102   2.131  2.0435 -0.7105 -0.9102
 6007TIP3   OH239579   1.887   3.254   0.104  0.3895 -0.4832 -0.6941
 6007TIP3    H139580   1.859   3.336   0.143 -2.6041 -1.7656  0.1297
 6007TIP3    H239581   1.929   3.206   0.176  0.7577 -0.2936 -0.7802
 6008TIP3   OH239582   3.100   0.745   8.403 -0.5316 -0.1776 -0.4266
 6008TIP3    H139583   3.025   0.802   8.421 -0.0159  0.3096  0.2058
 6008TIP3    H239584   3.163   0.765   8.472  1.6862  2.0069 -2.8444
 6009TIP3   OH239585   2.591   0.238   0.281  0.2036  0.0244  0.2482
 6009TIP3    H139586   2.595   0.334   0.274 -1.7147  0.1786  0.7841
 6009TIP3    H239587   2.515   0.221   0.336  0.1267 -1.8428 -0.3665
 6010TIP3   OH239588   6.186   1.758   0.541  0.1404  0.1007  0.2727
 6010TIP3    H139589   6.217   1.848   0.547 -0.7417  0.3232  2.7397
 6010TIP3    H239590   6.233   1.711   0.611  3.7869 -2.5457 -3.4440
 6011TIP3   OH239591   3.835   5.589   0.442 -0.0927  0.3945  0.3832
 6011TIP3    H139592   3.884   5.564   0.521  1.0266  0.4784 -0.2693
 6011TIP3    H239593   3.752   5.541   0.450  0.2109  0.0030  1.3633
 6012TIP3   OH239594   4.747   5.968   2.441 -0.0255 -0.3501 -0.4118
 6012TIP3    H139595   4.708   5.890   2.403 -0.8557 -0.2246  0.1488
 6012TIP3    H239596   4.711   6.041   2.390  0.6981 -0.3189 -0.8944
 6013TIP3   OH239597   5.775   1.950   8.795  0.0804  0.0790  0.1022
 6013TIP3    H139598   5.742   1.933   8.706  0.9708 -0.4086 -0.1484
 6013TIP3    H239599   5.745   1.875   8.846  1.2363 -0.6539 -0.2554
 6014TIP3   OH239600   4.844   2.610   2.050 -0.0723 -0.1157  0.5918
 6014TIP3    H139601   4.840   2.613   1.954  0.7362 -0.2285  0.5478
 6014TIP3    H239602   4.895   2.532   2.069 -0.9367 -0.5545  1.1434
 6015TIP3   OH239603   3.008   3.426   7.780  0.4405  0.0098  0.0721
 6015TIP3    H139604   3.079   3.469   7.827  1.3868 -0.9333 -0.4445
 6015TIP3    H239605   2.953   3.498   7.748  1.1357  0.7523  0.5138
 6016TIP3   OH239606   6.261   4.136   8.839  0.4201  0.0931  0.1708
 6016TIP3    H139607   6.315   4.216   8.839  0.8610 -0.1046 -2.3186
 6016TIP3    H239608   6.323   4.066   8.859  0.4323  0.1797  0.4383
 6017TIP3   OH239609   3.237   0.758   2.237  0.2127  0.0933 -0.1480
 6017TIP3    H139610   3.332   0.752   2.245  0.0629 -2.1980  0.6607
 6017TIP3    H239611   3.209   0.805   2.315  0.5641 -1.1561  0.7705
 6018TIP3   OH239612   1.808   1.542   0.740 -0.0860  0.1639 -0.2209
 6018TIP3    H139613   1.754   1.620   0.733 -0.2623  0.2134  1.2601
 6018TIP3    H239614   1.807   1.521   0.834  0.8680 -0.9632 -0.4398
 6019TIP3   OH239615   5.100   3.270   1.910 -0.0141 -0.4349 -0.1769
 6019TIP3    H139616   5.031   3.221   1.865 -2.0352  1.7869  0.3368
 6019TIP3    H239617   5.140   3.323   1.841  0.2421 -0.6812 -0.2195
 6020TIP3   OH239618   4.199   5.506   8.401 -0.6140  0.4467 -0.1049
 6020TIP3    H139619   4.229   5.415   8.391  1.9064  0.7814  2.8646
 6020TIP3    H239620   4.228   5.549   8.321 -0.0868 -0.9677 -0.7168
 6021TIP3   OH239621   1.136   0.314   1.813  0.6324  0.1955  0.3883
 6021TIP3    H139622   1.158   0.244   1.751  1.2026 -0.1699  0.9944
 6021TIP3    H239623   1.214   0.323   1.868 -0.2683 -0.2432  1.7720
 6022TIP3   OH239624   2.138   1.530   7.984  0.4862 -0.0161 -0.0045
 6022TIP3    H139625   2.066   1.575   7.940  1.3018  0.7106 -0.6396
 6022TIP3    H239626   2.217   1.567   7.944  1.2026 -1.3130  0.1533
 6023TIP3   OH239627   4.047   0.775   7.530 -0.0310  0.5967 -0.3508
 6023TIP3    H139628   3.978   0.835   7.558 -1.4329 -1.1771  0.1259
 6023TIP3    H239629   4.030   0.760   7.437  0.2812  0.8795 -0.4551
 6024TIP3   OH239630   5.994   0.308   7.940 -0.5770  0.1061 -0.6009
 6024TIP3    H139631   6.009   0.231   7.885  0.1395 -0.7790  0.7773
 6024TIP3    H239632   5.928   0.358   7.893  1.9923  0.8961 -3.7573
 6025TIP3   OH239633   6.360   0.915   0.774  0.1287  0.1397  0.0125
 6025TIP3    H139634   6.356   0.846   0.708  0.0462 -0.1750  0.3408
 6025TIP3    H239635   6.270   0.946   0.782  0.0456 -0.1848  0.3534
 6026TIP3   OH239636   5.605   5.121   7.103  0.3474 -0.4655 -0.2491
 6026TIP3    H139637   5.614   5.207   7.146  0.6651 -0.6569  0.0680
 6026TIP3    H239638   5.511   5.103   7.108  0.1383  0.2798 -1.1350
 6027TIP3   OH239639   6.070   3.386   1.271  0.5780  0.8236  0.0939
 6027TIP3    H139640   6.111   3.471   1.251 -0.2194  1.3372  0.6054
 6027TIP3    H239641   6.033   3.397   1.358 -0.3750  0.2609 -0.2304
 6028TIP3   OH239642   4.837   3.530   1.901 -0.0969  0.1175  0.0417
 6028TIP3    H139643   4.754   3.575   1.889  0.5623  1.6838  1.1118
 6028TIP3    H239644   4.887   3.585   1.961  0.9067 -1.8559  1.1414
 6029TIP3   OH239645   2.517   1.615   2.543  0.5426 -0.5961  0.3613
 6029TIP3    H139646   2.499   1.588   2.633 -2.0381  0.7260  0.3327
 6029TIP3    H239647   2.520   1.533   2.493 -0.5449 -1.2149  1.2693
 6030TIP3   OH239648   4.696   0.966   8.760  0.3472  0.0685  0.1715
 6030TIP3    H139649   4.636   1.039   8.745 -1.1605 -0.5810  2.4543
 6030TIP3    H239650   4.646   0.889   8.734  1.0673 -0.3309 -0.0424
 6031TIP3   OH239651   0.797   3.382   1.965 -0.2626  0.4174  0.0756
 6031TIP3    H139652   0.765   3.318   1.901  0.6582 -0.5448  0.5562
 6031TIP3    H239653   0.745   3.367   2.043  0.0720  0.1368  0.2452
 6032TIP3   OH239654   4.386   0.868   7.208  0.3617 -0.5966 -0.2536
 6032TIP3    H139655   4.458   0.923   7.176 -1.3673  0.8217 -1.9664
 6032TIP3    H239656   4.351   0.827   7.129 -0.8082 -1.1358  0.5230
 6033TIP3   OH239657   2.650   1.865   7.459 -0.1606 -0.2050  0.0103
 6033TIP3    H139658   2.687   1.946   7.425  0.0681 -1.3153 -2.6285
 6033TIP3    H239659   2.706   1.796   7.424  0.0518 -1.5309  2.7140
 6034TIP3   OH239660   0.623   3.406   7.113 -0.0391  0.0920  0.5349
 6034TIP3    H139661   0.572   3.421   7.034 -0.3774  1.1972  0.9462
 6034TIP3    H239662   0.560   3.370   7.176  0.5159 -2.1138 -0.0795
 6035TIP3   OH239663   0.326   5.491   2.229 -0.5637 -0.4395  0.5557
 6035TIP3    H139664   0.344   5.575   2.272 -0.0708  0.0362 -0.5287
 6035TIP3    H239665   0.243   5.504   2.184 -0.8002 -0.7493  0.8961
 6036TIP3   OH239666   0.664   1.877   0.983 -0.3926 -0.1578 -0.2486
 6036TIP3    H139667   0.740   1.865   0.927 -0.0726  1.3554 -0.1659
 6036TIP3    H239668   0.631   1.788   0.997  1.8622 -0.9675  0.4350
 6037TIP3   OH239669   1.452   1.646   0.114  0.0797  0.1504  0.2803
 6037TIP3    H139670   1.509   1.576   0.146  2.5058  2.5773  1.6660
 6037TIP3    H239671   1.512   1.714   0.084 -2.1600  1.7293 -0.9153
 6038TIP3   OH239672   0.648   1.375   6.988  0.2259 -0.2468  0.3445
 6038TIP3    H139673   0.598   1.378   6.906  0.7100  0.3438  0.0654
 6038TIP3    H239674   0.715   1.442   6.978  0.1195  0.0244  1.3421
 6039TIP3   OH239675   5.588   2.653   2.739 -0.1539  0.0363 -0.5586
 6039TIP3    H139676   5.595   2.566   2.778 -0.2354  0.0428 -0.5294
 6039TIP3    H239677   5.664   2.659   2.681  0.5947  0.4675  0.4555
 6040TIP3   OH239678   2.544   3.593   0.141  0.2228  0.9446  0.1960
 6040TIP3    H139679   2.521   3.503   0.164  0.1065  1.4061  2.0639
 6040TIP3    H239680   2.578   3.587   0.052 -2.0353 -0.5785 -0.6588
 6041TIP3   OH239681   1.933   3.458   1.638 -0.6661 -0.0719 -0.2073
 6041TIP3    H139682   2.016   3.412   1.648  0.1028  1.2434 -0.2584
 6041TIP3    H239683   1.916   3.455   1.544 -1.1142 -1.0494 -0.1060
 6042TIP3   OH239684   2.519   6.675   0.743  0.1523 -0.3402  0.0966
 6042TIP3    H139685   2.472   6.671   0.826 -0.1877 -2.2881 -0.1414
 6042TIP3    H239686   2.485   6.601   0.693  1.3640 -0.0338 -1.2413
 6043TIP3   OH239687   0.594   5.873   0.496 -0.2301 -0.0330 -0.2038
 6043TIP3    H139688   0.500   5.877   0.480 -0.3735 -0.3003  0.5165
 6043TIP3    H239689   0.628   5.815   0.428 -0.6349 -0.1751 -0.2867
 6044TIP3   OH239690   3.337   2.462   7.791 -0.1435  0.2255 -0.6386
 6044TIP3    H139691   3.421   2.492   7.825  0.2843 -1.7989  0.2180
 6044TIP3    H239692   3.272   2.498   7.852  0.2286  0.4422 -0.3668
 6045TIP3   OH239693   5.833   4.403   1.350 -0.0931  0.1567 -0.4013
 6045TIP3    H139694   5.891   4.478   1.359 -0.3299  0.3750 -0.6746
 6045TIP3    H239695   5.881   4.341   1.295  0.6809 -0.4894  0.9352
 6046TIP3   OH239696   1.616   5.273   2.446  0.4101  0.1026 -0.3790
 6046TIP3    H139697   1.587   5.182   2.456 -0.3172  0.4420  0.8484
 6046TIP3    H239698   1.550   5.324   2.493  2.1610  1.0555  1.1326
 6047TIP3   OH239699   6.000   2.568   7.214 -0.1755 -0.1092  0.0369
 6047TIP3    H139700   5.929   2.525   7.261 -1.2140  1.5835  0.1036
 6047TIP3    H239701   6.051   2.496   7.177 -2.1966 -1.3943 -0.4327
 6048TIP3   OH239702   3.012   5.696   7.978  0.0083 -0.0779 -0.0191
 6048TIP3    H139703   3.062   5.716   7.900  3.9859 -1.7571  1.8362
 6048TIP3    H239704   2.993   5.602   7.971  0.4614 -0.2579  1.0155
 6049TIP3   OH239705   1.702   0.049   8.222 -0.5658 -0.0249  0.1407
 6049TIP3    H139706   1.643   0.101   8.166  0.5063 -2.6144 -3.8150
 6049TIP3    H239707   1.667  -0.040   8.217  1.4759 -0.9255  0.9111
 6050TIP3   OH239708   2.578   4.294   8.814 -0.4360 -0.2257 -0.6721
 6050TIP3    H139709   2.660   4.266   8.853  0.5855  1.4289 -1.5118
 6050TIP3    H239710   2.517   4.303   8.887  0.8952  1.0386  0.3313
 6051TIP3   OH239711   4.863   0.451   1.127  0.2134  0.0919 -0.0637
 6051TIP3    H139712   4.806   0.386   1.169  2.6818 -1.3242  1.3595
 6051TIP3    H239713   4.912   0.401   1.061  0.2145  1.1476 -0.8871
 6052TIP3   OH239714   5.672   4.118   0.010  0.5121  0.5835 -0.1441
 6052TIP3    H139715   5.752   4.121  -0.042  1.4601 -0.5373  1.1926
 6052TIP3    H239716   5.602   4.122  -0.055  1.6181 -2.1848 -1.6998
 6053TIP3   OH239717   6.390   0.736   8.317  0.0943  0.2939  0.3547
 6053TIP3    H139718   6.445   0.664   8.285 -1.5855 -0.3010 -1.4127
 6053TIP3    H239719   6.418   0.749   8.407  1.6018 -1.4543  0.2065
 6054TIP3   OH239720   0.520   0.265   8.517 -0.0483  0.2370 -0.2286
 6054TIP3    H139721   0.425   0.278   8.519 -0.1414 -0.1299 -1.3822
 6054TIP3    H239722   0.545   0.289   8.427  0.7823 -0.8014 -0.2891
 6055TIP3   OH239723   1.384   1.189   0.473  0.3566  0.2708 -0.1155
 6055TIP3    H139724   1.309   1.204   0.531  0.1192 -3.4318  0.8077
 6055TIP3    H239725   1.348   1.145   0.397  1.2925  0.7241 -0.8438
 6056TIP3   OH239726   3.868   5.166   0.067 -0.0449  0.7370 -0.0105
 6056TIP3    H139727   3.829   5.197   0.149 -1.5495  0.2883 -0.5202
 6056TIP3    H239728   3.838   5.076   0.058  1.3189  0.2907 -0.3415
 6057TIP3   OH239729   2.168   2.833   7.795 -0.4324  0.4363  0.0560
 6057TIP3    H139730   2.164   2.919   7.839  1.5813 -0.2243  1.6912
 6057TIP3    H239731   2.154   2.853   7.703 -2.1883  2.2344  0.6161
 6058TIP3   OH239732   0.380   1.391   8.196  0.5950  0.1813  0.1721
 6058TIP3    H139733   0.332   1.314   8.227  1.4998 -0.4855 -0.0340
 6058TIP3    H239734   0.447   1.406   8.264  0.4921  0.7123  0.1536
 6059TIP3   OH239735   3.020   1.604   1.207 -0.0664 -0.5799 -0.7148
 6059TIP3    H139736   2.938   1.639   1.171  0.0969  0.6375  0.0452
 6059TIP3    H239737   3.088   1.642   1.151  0.1118  0.3853  0.1244
 6060TIP3   OH239738   5.374   5.631   2.305  0.1106 -0.0502 -0.6993
 6060TIP3    H139739   5.387   5.592   2.392 -4.7822  1.1645  0.8614
 6060TIP3    H239740   5.404   5.721   2.315  0.3984 -0.1533 -0.6043
 6061TIP3   OH239741   6.625   5.191   2.791 -0.1094 -0.4208  0.7679
 6061TIP3    H139742   6.630   5.173   2.697 -0.4279 -0.9711  0.8488
 6061TIP3    H239743   6.566   5.123   2.825 -0.6777  0.2854  1.2306
 6062TIP3   OH239744   2.091   5.910   8.020 -0.1729  0.2266 -0.1870
 6062TIP3    H139745   2.079   5.996   8.060  0.2462  0.3232 -0.2700
 6062TIP3    H239746   2.183   5.906   7.997  0.5162 -1.3514  2.4275
 6063TIP3   OH239747   6.586   4.235   0.085  0.2961 -0.1287  0.4128
 6063TIP3    H139748   6.602   4.186   0.165 -0.0404  0.3780  0.7961
 6063TIP3    H239749   6.666   4.285   0.071 -0.4403  1.5084  1.6869
 6064TIP3   OH239750   1.829   4.584   8.287  0.2802 -0.1571 -0.2872
 6064TIP3    H139751   1.757   4.531   8.251 -0.1469  0.1351  0.1169
 6064TIP3    H239752   1.882   4.607   8.211 -0.5444  0.3517 -0.7343
 6065TIP3   OH239753   3.886   2.625   7.768  0.1078 -0.2672 -0.2384
 6065TIP3    H139754   3.846   2.539   7.758  0.4658 -0.7277  1.9009
 6065TIP3    H239755   3.902   2.634   7.862  1.0928  1.6816 -0.5340
 6066TIP3   OH239756   4.768   0.394   1.517 -0.4047  0.4718 -0.3947
 6066TIP3    H139757   4.703   0.344   1.468 -0.0621 -0.6077  0.2204
 6066TIP3    H239758   4.745   0.486   1.500 -1.8616  0.1198 -0.4849
 6067TIP3   OH239759   1.796   6.590   1.065 -0.8290 -0.1798  0.0768
 6067TIP3    H139760   1.827   6.655   1.129  0.5314 -0.1520 -0.5633
 6067TIP3    H239761   1.730   6.637   1.014 -2.3903 -0.3901  1.8107
 6068TIP3   OH239762   6.123   2.644   2.048 -0.0885 -0.0213 -0.4196
 6068TIP3    H139763   6.125   2.666   1.954 -0.2423 -0.1745 -0.4589
 6068TIP3    H239764   6.039   2.677   2.079  0.6806  1.5705  0.0493
 6069TIP3   OH239765   4.982   0.545   7.560 -0.0297 -0.3290  0.5109
 6069TIP3    H139766   5.069   0.507   7.559  0.2327  0.2617  0.5142
 6069TIP3    H239767   4.927   0.482   7.513  1.0328  0.7661 -2.4290
 6070TIP3   OH239768   4.461   5.537   0.352  0.4154 -0.0367 -0.3387
 6070TIP3    H139769   4.396   5.490   0.301 -0.8898  0.1107  1.1144
 6070TIP3    H239770   4.438   5.629   0.341 -1.0331 -0.0651  1.8823
 6071TIP3   OH239771   1.149   5.627   7.375  0.2829 -0.1468  0.0028
 6071TIP3    H139772   1.077   5.620   7.313  0.1598  1.3462 -0.0653
 6071TIP3    H239773   1.184   5.715   7.361  2.3291 -0.9471 -0.1934
 6072TIP3   OH239774   2.429   0.400   0.063  0.4776 -0.3765  0.3982
 6072TIP3    H139775   2.351   0.415   0.009  0.4926 -0.8406  0.2395
 6072TIP3    H239776   2.442   0.305   0.061  2.0564 -0.1719 -0.9877
 6073TIP3   OH239777   2.516   0.042   1.323 -0.0601 -0.5390 -0.0935
 6073TIP3    H139778   2.572  -0.035   1.337  0.6801  0.3847  2.8216
 6073TIP3    H239779   2.427   0.009   1.337  0.0867 -1.2074 -0.6612
 6074TIP3   OH239780   1.569   0.444   7.461 -0.1258 -0.0712 -0.3165
 6074TIP3    H139781   1.647   0.492   7.433 -0.4485  1.0816  0.6474
 6074TIP3    H239782   1.583   0.355   7.430  1.9275 -0.0916  0.4913
 6075TIP3   OH239783   0.824   5.975   0.081  0.2123  0.2606  0.3358
 6075TIP3    H139784   0.760   5.974   0.011  0.9208 -0.4904 -0.3184
 6075TIP3    H239785   0.863   6.063   0.078  1.3254 -0.2522 -1.2367
 6076TIP3   OH239786   3.878   4.190   2.184 -0.7537  0.1019 -0.6710
 6076TIP3    H139787   3.860   4.283   2.169 -1.0265  0.2756  0.6110
 6076TIP3    H239788   3.826   4.168   2.261  0.9224 -0.5842  0.3120
 6077TIP3   OH239789   0.274   5.404   0.850  0.5734 -0.0991 -0.1031
 6077TIP3    H139790   0.246   5.359   0.770 -1.6266 -1.1552  1.1517
 6077TIP3    H239791   0.228   5.488   0.847  0.5357 -0.1156  0.0290
 6078TIP3   OH239792   1.189   2.374   6.734 -0.1829 -0.7874  0.3422
 6078TIP3    H139793   1.109   2.334   6.770 -0.5428 -0.4298 -0.0588
 6078TIP3    H239794   1.260   2.329   6.780 -0.5606 -2.2604 -0.4541
 6079TIP3   OH239795   2.121   0.568   7.421 -0.0141 -0.7445  0.1704
 6079TIP3    H139796   2.137   0.577   7.327  0.6233  1.7561  0.4372
 6079TIP3    H239797   2.205   0.591   7.462 -0.7742 -0.0013  1.3715
 6080TIP3   OH239798   5.259   2.746   8.769  0.3234  0.4193  0.9149
 6080TIP3    H139799   5.245   2.714   8.858 -3.8885 -0.5470  0.1320
 6080TIP3    H239800   5.216   2.681   8.713 -0.9194  3.0677 -1.4625
 6081TIP3   OH239801   2.709   1.922   0.078  0.5903  0.3609 -0.4864
 6081TIP3    H139802   2.712   2.017   0.094 -1.0123  0.3748 -0.0874
 6081TIP3    H239803   2.698   1.915  -0.017  2.8765  0.4666 -0.8313
 6082TIP3   OH239804   5.620   6.155   6.821 -0.0568  0.5355 -0.3876
 6082TIP3    H139805   5.583   6.178   6.906 -1.3376  0.6068 -0.9461
 6082TIP3    H239806   5.592   6.065   6.806  0.8326  0.2529 -0.3845
 6083TIP3   OH239807   2.117   2.935   1.410  0.6011 -0.4281  0.0783
 6083TIP3    H139808   2.169   3.015   1.405 -1.5361  1.2763  2.3137
 6083TIP3    H239809   2.090   2.930   1.502 -2.1592 -1.7768 -0.6784
 6084TIP3   OH239810   6.646   1.060   0.632 -0.9227 -0.6578 -0.3900
 6084TIP3    H139811   6.701   1.103   0.697  1.0472 -0.5307 -2.0434
 6084TIP3    H239812   6.575   1.123   0.616 -0.5122  0.0317  0.3925
 6085TIP3   OH239813   0.779   2.610   1.377 -0.2207  0.3731  0.3418
 6085TIP3    H139814   0.699   2.623   1.327  0.1967  1.2803 -0.1076
 6085TIP3    H239815   0.849   2.617   1.312  0.2717  0.4878  0.8768
 6086TIP3   OH239816   4.698   1.798   1.130  0.0907  0.7253  0.4287
 6086TIP3    H139817   4.628   1.734   1.144  1.2032 -0.4356  0.9246
 6086TIP3    H239818   4.745   1.802   1.213  2.8516 -1.3938 -0.8438
 6087TIP3   OH239819   4.815   6.748   1.792  0.7148 -0.4886 -0.1069
 6087TIP3    H139820   4.790   6.658   1.769 -0.0506 -0.0934 -0.8850
 6087TIP3    H239821   4.877   6.738   1.864  2.2624 -1.7427 -1.5382
 6088TIP3   OH239822   2.346   0.326   2.537  0.2474  0.3693 -0.5053
 6088TIP3    H139823   2.329   0.273   2.615 -2.0187  0.7813 -0.6671
 6088TIP3    H239824   2.321   0.269   2.464 -0.1700  0.9159 -0.7900
 6089TIP3   OH239825   1.611   4.166   1.886  0.2927 -0.1324 -0.6837
 6089TIP3    H139826   1.555   4.228   1.840  0.8408  1.7214  1.0608
 6089TIP3    H239827   1.550   4.104   1.927 -0.4666  1.2610  0.3491
 6090TIP3   OH239828   1.075   6.764   7.622 -0.1479  0.1982 -0.4275
 6090TIP3    H139829   1.057   6.703   7.694  0.7870  0.1871 -0.1943
 6090TIP3    H239830   1.113   6.840   7.665 -0.2492  0.4800 -0.8387
 6091TIP3   OH239831   6.744   1.302   8.348  0.0218  0.2152  0.3102
 6091TIP3    H139832   6.813   1.368   8.346  0.8784 -0.6716 -0.9400
 6091TIP3    H239833   6.699   1.317   8.431  0.8929  1.6351  0.5648
 6092TIP3   OH239834   6.056   3.468   8.312  0.4071  0.7133  0.7866
 6092TIP3    H139835   6.016   3.553   8.293 -0.3446  0.1186 -0.4079
 6092TIP3    H239836   6.139   3.469   8.264 -0.1393  0.3464 -0.1986
 6093TIP3   OH239837   0.112   0.490   2.468  0.3454 -0.1714  0.2389
 6093TIP3    H139838   0.198   0.489   2.425  0.4147  0.5507  0.3469
 6093TIP3    H239839   0.117   0.565   2.528 -0.4692  0.0624  0.0165
 6094TIP3   OH239840   4.881   1.756   0.169 -0.4201 -0.8373 -0.2195
 6094TIP3    H139841   4.909   1.768   0.078  1.3857 -1.5401  0.2028
 6094TIP3    H239842   4.786   1.772   0.167  0.2417  4.8580 -1.1551
 6095TIP3   OH239843   5.738   5.087   0.461 -0.2525 -0.6946 -0.0202
 6095TIP3    H139844   5.707   5.136   0.536  2.5188 -0.1579  0.8623
 6095TIP3    H239845   5.679   5.011   0.456 -1.7712  0.3296  1.3655
 6096TIP3   OH239846   1.242   6.243   0.664 -0.2388 -0.1264  0.1779
 6096TIP3    H139847   1.219   6.303   0.735  0.2506  0.2171  0.0538
 6096TIP3    H239848   1.158   6.209   0.633 -0.6075  1.1807 -0.3323
 6097TIP3   OH239849   0.902   4.352   8.385  0.0353 -0.0865 -0.0979
 6097TIP3    H139850   0.861   4.269   8.410  0.4973  0.1197  1.4360
 6097TIP3    H239851   0.957   4.329   8.310 -0.0816 -1.0993  0.1049
 6098TIP3   OH239852   0.696   6.417   1.397 -0.0394 -0.5674 -0.0351
 6098TIP3    H139853   0.663   6.332   1.370  0.0461 -0.5383 -0.2322
 6098TIP3    H239854   0.733   6.455   1.318 -1.4280  0.2821 -0.3093
 6099TIP3   OH239855   5.173   6.248   1.822 -0.0825 -0.2988  0.2952
 6099TIP3    H139856   5.123   6.191   1.764  1.2948 -0.7884 -0.4671
 6099TIP3    H239857   5.130   6.333   1.815  0.3756 -0.1944 -1.9290
 6100TIP3   OH239858   4.085   2.290   7.925  0.2219  0.2635  0.3170
 6100TIP3    H139859   4.032   2.213   7.948 -0.6725 -0.1404 -2.6769
 6100TIP3    H239860   4.094   2.338   8.007 -0.0724 -2.4918  2.0778
 6101TIP3   OH239861   0.902   3.078   1.760  0.1505  0.3968 -0.0841
 6101TIP3    H139862   0.918   3.070   1.666  0.5398 -2.0739  0.1246
 6101TIP3    H239863   0.820   3.030   1.775 -0.1917  1.2087  0.7903
 6102TIP3   OH239864   0.954   0.524   6.866  0.3840  0.2788 -0.2388
 6102TIP3    H139865   0.910   0.541   6.783  1.2148 -1.0414 -0.9823
 6102TIP3    H239866   0.890   0.474   6.917  0.0309  0.7255 -0.2343
 6103TIP3   OH239867   1.795   2.533   0.620  0.0508 -0.0537 -0.2332
 6103TIP3    H139868   1.850   2.597   0.575  0.6236 -1.3169 -1.4068
 6103TIP3    H239869   1.826   2.533   0.711 -0.8998  2.2971  0.1483
 6104TIP3   OH239870   0.378   6.569   1.719 -1.2352  0.7055 -0.3331
 6104TIP3    H139871   0.302   6.515   1.701 -1.3258  0.3415  1.0545
 6104TIP3    H239872   0.357   6.616   1.800 -0.0753  0.7388 -0.0235
 6105TIP3   OH239873   1.020   1.126   0.173  0.0463 -0.1189  0.0501
 6105TIP3    H139874   0.957   1.150   0.241  1.6329  2.2922  0.8347
 6105TIP3    H239875   1.094   1.089   0.221  0.4354 -0.1221 -0.5379
 6106TIP3   OH239876   0.413   5.226   8.692 -0.0057  0.5205 -1.0088
 6106TIP3    H139877   0.465   5.265   8.761 -1.1388 -0.3606  0.3975
 6106TIP3    H239878   0.415   5.289   8.620 -0.9760  2.7204  0.8067
 6107TIP3   OH239879   6.185   4.677   8.049 -0.3135 -0.0714  0.2771
 6107TIP3    H139880   6.264   4.688   7.996  2.0461 -0.6709  3.3879
 6107TIP3    H239881   6.143   4.598   8.014  0.6071  0.0518 -1.2068
 6108TIP3   OH239882   0.408   2.892   8.760 -0.0610 -0.1126  0.3195
 6108TIP3    H139883   0.481   2.900   8.699  0.7689  0.9477  1.3899
 6108TIP3    H239884   0.330   2.892   8.704  0.7062 -0.1771 -0.7903
 6109TIP3   OH239885   1.858   0.627   1.637  0.4336  0.2514  0.0106
 6109TIP3    H139886   1.797   0.656   1.569  0.8121  0.4379 -0.2612
 6109TIP3    H239887   1.803   0.588   1.704  0.0341  0.2342 -0.3191
 6110TIP3   OH239888   3.153   6.162   7.193 -0.3988 -0.3156 -0.5150
 6110TIP3    H139889   3.192   6.140   7.108 -0.7837  0.0315 -0.7871
 6110TIP3    H239890   3.078   6.218   7.171 -1.0478 -0.9563 -0.0033
 6111TIP3   OH239891   2.888   4.797   1.461 -0.2389  0.2090  0.0549
 6111TIP3    H139892   2.845   4.715   1.436  0.4401 -0.2739  0.4228
 6111TIP3    H239893   2.918   4.834   1.378 -2.6932  1.3720 -0.4140
 6112TIP3   OH239894   4.962   2.369   2.103 -0.5872 -0.1939 -0.1413
 6112TIP3    H139895   4.933   2.280   2.083  1.9551 -0.9334 -0.8825
 6112TIP3    H239896   5.032   2.357   2.167 -0.7185  1.3710  0.3452
 6113TIP3   OH239897   3.248   1.523   1.359  0.2179  0.2088 -0.0752
 6113TIP3    H139898   3.213   1.441   1.395  3.0584 -1.1449 -0.0518
 6113TIP3    H239899   3.173   1.581   1.353 -1.4619 -1.4765  2.5110
 6114TIP3   OH239900   5.186   6.652   2.391  0.7459 -0.4656  0.0535
 6114TIP3    H139901   5.130   6.598   2.447  0.2583  0.5578  0.5786
 6114TIP3    H239902   5.230   6.712   2.450 -1.4078  2.1068 -0.7541
 6115TIP3   OH239903   3.504   0.203   1.914 -0.2207  0.1549 -0.3030
 6115TIP3    H139904   3.517   0.122   1.866  0.3098 -0.5143  0.9479
 6115TIP3    H239905   3.586   0.219   1.960 -0.7011  0.7894  0.3718
 6116TIP3   OH239906   4.682   0.683   7.653  0.1843 -0.1072  0.0868
 6116TIP3    H139907   4.631   0.740   7.594  0.5892 -0.0358 -0.2039
 6116TIP3    H239908   4.640   0.598   7.647 -0.9413  0.3502  1.1688
 6117TIP3   OH239909   1.666   2.525   0.148 -0.2246 -0.3181  0.0318
 6117TIP3    H139910   1.690   2.461   0.215  0.0502 -1.2529 -0.9297
 6117TIP3    H239911   1.714   2.497   0.070  0.8206  1.7535 -0.1261
 6118TIP3   OH239912   1.397   2.730   8.248 -0.0313  0.5419 -0.5498
 6118TIP3    H139913   1.490   2.735   8.227  0.4991 -1.1605  1.1766
 6118TIP3    H239914   1.382   2.640   8.275 -1.8914  1.1015  0.5206
 6119TIP3   OH239915   0.389   5.270   7.785  0.1182  0.3588 -0.1804
 6119TIP3    H139916   0.336   5.349   7.779 -0.4655 -0.1352 -3.5232
 6119TIP3    H239917   0.474   5.300   7.819  0.1822  2.6126 -2.1025
 6120TIP3   OH239918   1.930   1.611   1.182  0.1872  0.1110  0.2319
 6120TIP3    H139919   1.991   1.544   1.214 -0.3507  0.4068  1.9632
 6120TIP3    H239920   1.860   1.614   1.247  0.1239  2.2547  0.1595
 6121TIP3   OH239921   1.264   2.592   1.699 -0.4501 -0.4234  0.4970
 6121TIP3    H139922   1.343   2.638   1.726 -0.2262 -1.3391  1.4680
 6121TIP3    H239923   1.264   2.512   1.751 -2.4073 -0.0876  1.1106
 6122TIP3   OH239924   2.992   0.328   7.710  0.6074 -0.1446  0.5497
 6122TIP3    H139925   2.904   0.311   7.744 -0.6563  2.2454 -1.2212
 6122TIP3    H239926   2.981   0.331   7.615  2.5639  0.4350  0.2885
 6123TIP3   OH239927   3.380   5.180   7.606  0.2989  0.7399 -0.5125
 6123TIP3    H139928   3.361   5.086   7.595 -2.3824  1.1805 -0.3439
 6123TIP3    H239929   3.319   5.223   7.546  1.6585  2.3985 -0.7676
 6124TIP3   OH239930   0.852   1.455   2.187 -0.6587  0.4398  0.1354
 6124TIP3    H139931   0.789   1.403   2.137 -0.8273 -2.1192  2.7415
 6124TIP3    H239932   0.806   1.535   2.209 -2.5631 -0.7830  0.8296
 6125TIP3   OH239933   1.667   5.050   1.102  0.0834 -0.3025 -0.0663
 6125TIP3    H139934   1.754   5.046   1.142  0.1175  0.0382 -0.0992
 6125TIP3    H239935   1.665   5.136   1.059  0.1550 -0.7660 -1.0340
 6126TIP3   OH239936   4.409   6.402   0.409 -0.3921  0.3837  0.5173
 6126TIP3    H139937   4.355   6.392   0.487 -1.9468  0.5813 -0.5028
 6126TIP3    H239938   4.499   6.386   0.440 -1.1297 -1.0664  2.0175
 6127TIP3   OH239939   0.984   1.829   7.904  0.5996 -1.0301 -0.2161
 6127TIP3    H139940   1.053   1.820   7.969  1.1735 -1.0281 -0.8144
 6127TIP3    H239941   1.023   1.798   7.822  0.1333 -0.3308 -0.7216
 6128TIP3   OH239942   3.334   5.713   8.046  0.0214  0.3532 -0.1747
 6128TIP3    H139943   3.384   5.674   7.974  2.2858  0.8211  1.0517
 6128TIP3    H239944   3.261   5.653   8.060  1.5498 -1.6954 -0.5198
 6129TIP3   OH239945   6.465   6.281   8.288 -0.6029 -0.1954 -0.0663
 6129TIP3    H139946   6.548   6.289   8.336 -0.2610 -0.1383 -0.6554
 6129TIP3    H239947   6.444   6.188   8.293 -0.3322 -0.2638 -0.2000
 6130TIP3   OH239948   5.952   5.183   2.157 -0.9268  0.0030 -0.1868
 6130TIP3    H139949   5.880   5.209   2.213 -0.1317 -0.6595  1.2139
 6130TIP3    H239950   5.999   5.264   2.139 -0.2540  0.0463  1.5299
 6131TIP3   OH239951   0.883   4.903   0.894 -0.1487 -0.1333 -0.1674
 6131TIP3    H139952   0.943   4.965   0.853 -0.6336  0.1796 -0.4204
 6131TIP3    H239953   0.797   4.929   0.862 -0.5059 -0.1026  0.7864
 6132TIP3   OH239954   1.093   4.675   0.918  0.2128 -0.5335 -0.1935
 6132TIP3    H139955   1.073   4.584   0.895  0.0084 -1.0512  1.7610
 6132TIP3    H239956   1.010   4.721   0.910  0.0007 -0.8514  0.1173
 6133TIP3   OH239957   5.178   2.987   1.687 -0.4927  0.6180  0.2365
 6133TIP3    H139958   5.176   3.081   1.705 -0.7110  0.9884 -1.5438
 6133TIP3    H239959   5.118   2.949   1.752 -2.3064  2.0199 -0.5203
 6134TIP3   OH239960   0.194   2.717   0.821  0.4114 -0.1888  0.7535
 6134TIP3    H139961   0.264   2.683   0.878 -0.6492  0.5940  2.6269
 6134TIP3    H239962   0.115   2.709   0.874 -0.8040 -0.3117 -1.0247
 6135TIP3   OH239963   5.794   6.242   7.979  0.0849 -0.2359  0.4431
 6135TIP3    H139964   5.826   6.263   8.066  0.6456 -2.3963  0.8156
 6135TIP3    H239965   5.703   6.271   7.979  1.0392  3.1244  0.4344
 6136TIP3   OH239966   5.860   3.093   8.839  0.4722  0.1171 -0.6780
 6136TIP3    H139967   5.824   3.094   8.928  1.9758 -2.2514  0.0734
 6136TIP3    H239968   5.955   3.097   8.853  0.7007  0.8913 -2.2803
 6137TIP3   OH239969   1.972   5.576   0.417  0.5381 -0.2882 -0.1515
 6137TIP3    H139970   2.004   5.629   0.344 -1.2970  0.7242 -0.2771
 6137TIP3    H239971   1.878   5.593   0.419  0.5293 -0.3663  2.4072
 6138TIP3   OH239972   2.380   1.262   2.176  0.0314  0.3941  0.0612
 6138TIP3    H139973   2.321   1.189   2.199  0.4649  0.1464  0.4009
 6138TIP3    H239974   2.324   1.323   2.129 -0.0451 -0.8040 -1.5035
 6139TIP3   OH239975   5.844   5.699   2.408 -1.2030  0.3630 -0.5667
 6139TIP3    H139976   5.851   5.605   2.424  0.1401  0.4448 -0.5708
 6139TIP3    H239977   5.757   5.723   2.440 -1.8331 -0.9961 -1.2098
 6140TIP3   OH239978   0.414   1.807   0.832 -0.6958  0.0239 -0.8130
 6140TIP3    H139979   0.339   1.863   0.853  0.0791  0.4865  0.8372
 6140TIP3    H239980   0.486   1.842   0.884  0.6597 -0.5049 -2.2393
 6141TIP3   OH239981   3.648   6.266   1.203  0.2859 -0.1778 -0.1337
 6141TIP3    H139982   3.624   6.345   1.155 -1.2545 -0.3175  0.3298
 6141TIP3    H239983   3.590   6.198   1.167  0.3600 -0.6827  0.6733
 6142TIP3   OH239984   0.990   1.153   0.792 -0.4397 -0.4010 -0.1078
 6142TIP3    H139985   0.990   1.147   0.697  3.0882 -0.6957 -0.2318
 6142TIP3    H239986   0.915   1.101   0.820 -2.6877  1.1925 -2.6930
 6143TIP3   OH239987   3.545   4.833   8.323  0.5566 -0.3313 -0.2506
 6143TIP3    H139988   3.500   4.766   8.271 -0.9121 -0.2495  0.8318
 6143TIP3    H239989   3.575   4.787   8.401 -1.2506  0.3644  0.9344
 6144TIP3   OH239990   5.163   3.678   8.117 -0.7438 -0.0088  0.5312
 6144TIP3    H139991   5.069   3.668   8.126 -1.0944  1.0010 -1.4588
 6144TIP3    H239992   5.198   3.589   8.123 -2.1407 -0.7488 -1.3896
 6145TIP3   OH239993   1.313   5.145   0.621 -0.2759 -0.2317  0.0223
 6145TIP3    H139994   1.222   5.133   0.651 -0.1543 -1.3218 -0.0140
 6145TIP3    H239995   1.348   5.056   0.616  1.5749  0.2863  2.3841
 6146TIP3   OH239996   4.110   0.664   2.386  0.1843 -0.1283  0.3010
 6146TIP3    H139997   4.024   0.677   2.426  0.3358  1.5346  0.1793
 6146TIP3    H239998   4.099   0.691   2.295  0.7648 -0.2046  0.1999
 6147TIP3   OH239999   5.491   2.225   1.575  0.1558 -0.0140  0.3929
 6147TIP3    H140000   5.564   2.264   1.525  0.8488 -1.2978  0.3385
 6147TIP3    H240001   5.418   2.224   1.513  0.6761 -0.5172 -0.2377
 6148TIP3   OH240002   4.036   5.411   1.994  0.1771  0.1259  0.0850
 6148TIP3    H140003   3.990   5.494   2.010 -0.4365  0.0382 -1.0635
 6148TIP3    H240004   4.083   5.393   2.075  2.3982  2.8795 -0.4349
 6149TIP3   OH240005   3.669   5.715   2.310 -0.3339  0.3426 -0.1218
 6149TIP3    H140006   3.657   5.809   2.302 -0.2196  0.3446 -0.2603
 6149TIP3    H240007   3.610   5.689   2.381 -0.8905  0.4156 -0.5444
 6150TIP3   OH240008   0.717   5.762   1.465  0.3132 -0.1867 -0.2926
 6150TIP3    H140009   0.747   5.671   1.466 -1.0373 -0.6758 -1.0848
 6150TIP3    H240010   0.722   5.788   1.373 -1.5548 -0.2806 -0.4578
 6151TIP3   OH240011   5.802   3.559   8.488 -0.0149  0.0516  0.0764
 6151TIP3    H140012   5.803   3.622   8.416 -0.3621  0.5757  0.5176
 6151TIP3    H240013   5.776   3.477   8.448  0.2549  0.2311 -0.4766
 6152TIP3   OH240014   6.244   6.529   0.967 -0.4895  0.5935 -0.0256
 6152TIP3    H140015   6.310   6.597   0.954  0.4205 -0.3122 -0.2982
 6152TIP3    H240016   6.193   6.559   1.042  0.6329  1.0248  0.5968
 6153TIP3   OH240017   0.400   3.851   2.888  0.1161  0.1919 -0.8823
 6153TIP3    H140018   0.426   3.795   2.961 -2.0518 -0.4465 -0.5365
 6153TIP3    H240019   0.312   3.821   2.865 -0.3657  2.2379 -1.9136
 6154TIP3   OH240020   0.386   1.005   0.228  0.0785 -0.2905 -0.2859
 6154TIP3    H140021   0.335   0.924   0.232  2.4538 -1.9188 -0.7800
 6154TIP3    H240022   0.387   1.036   0.319 -1.5645 -0.2838 -0.2300
 6155TIP3   OH240023   5.521   0.788   2.398 -0.4602 -0.3103 -0.3774
 6155TIP3    H140024   5.450   0.848   2.419 -1.9536 -2.1185  0.0621
 6155TIP3    H240025   5.528   0.792   2.303 -0.2488  0.8333 -0.3278
 6156TIP3   OH240026   5.872   0.578   2.220 -0.3951 -0.5648  0.1726
 6156TIP3    H140027   5.955   0.611   2.187 -1.2490  2.6135  0.8449
 6156TIP3    H240028   5.806   0.617   2.162 -1.5624 -0.2455  1.6542
 6157TIP3   OH240029   0.093   0.751   7.836 -0.4044  0.2113  0.1324
 6157TIP3    H140030   0.088   0.660   7.866  0.4019 -0.2124 -0.9462
 6157TIP3    H240031   0.115   0.801   7.915  0.9645 -0.7794  0.4206
 6158TIP3   OH240032   1.842   4.333   6.940 -0.0398 -0.0057 -0.7285
 6158TIP3    H140033   1.862   4.277   7.015  1.8411  1.4179 -0.0706
 6158TIP3    H240034   1.843   4.273   6.865  0.9172 -1.0384  0.0600
 6159TIP3   OH240035   0.855   1.428   2.476 -0.0036  0.0213  0.0576
 6159TIP3    H140036   0.770   1.446   2.517  0.8532  2.3704  0.9550
 6159TIP3    H240037   0.841   1.447   2.383 -0.6044 -0.1985  0.0948
 6160TIP3   OH240038   6.361   3.265   8.243 -0.1574  0.3930  0.6165
 6160TIP3    H140039   6.428   3.196   8.240 -0.5449  0.0560 -1.1470
 6160TIP3    H240040   6.365   3.298   8.333  3.7693  1.7589  0.1372
 6161TIP3   OH240041   4.797   3.111   7.864 -0.1202 -0.1002  0.0516
 6161TIP3    H140042   4.778   3.058   7.787  0.9475 -0.9226  0.3288
 6161TIP3    H240043   4.834   3.192   7.829  3.0109 -1.5320 -0.3301
 6162TIP3   OH240044   3.234   2.319   0.850  0.3347  0.0681 -0.2792
 6162TIP3    H140045   3.280   2.271   0.781  1.9370  1.9069 -0.5482
 6162TIP3    H240046   3.285   2.398   0.863 -0.4321  0.2125  2.4284
 6163TIP3   OH240047   3.648   0.136   2.291  0.0152 -0.1112  0.3492
 6163TIP3    H140048   3.610   0.111   2.375  1.1863 -0.9194  0.6724
 6163TIP3    H240049   3.628   0.063   2.233 -1.3620  0.7397 -0.2807
 6164TIP3   OH240050   3.322   0.554   0.183 -0.3407  0.5060 -0.3029
 6164TIP3    H140051   3.358   0.609   0.113 -1.1596  0.9082 -0.4190
 6164TIP3    H240052   3.240   0.521   0.147  0.2065 -0.9354 -0.2937
 6165TIP3   OH240053   1.729   3.164   7.529  0.3259  0.3767 -0.3083
 6165TIP3    H140054   1.736   3.216   7.449 -0.0824  0.6535 -0.1687
 6165TIP3    H240055   1.730   3.229   7.600  2.1696  0.0601  0.0054
 6166TIP3   OH240056   4.480   6.731   0.098  0.2566 -0.2702 -0.4293
 6166TIP3    H140057   4.400   6.689   0.129  0.5156  0.0762  0.7525
 6166TIP3    H240058   4.462   6.752   0.006 -1.0510 -0.0833 -0.1506
 6167TIP3   OH240059   2.803   4.385   0.407  0.2248  0.3288  0.3782
 6167TIP3    H140060   2.871   4.413   0.469  0.2396 -1.1590  1.1075
 6167TIP3    H240061   2.723   4.386   0.459 -0.2599  1.7066 -0.3747
 6168TIP3   OH240062   0.699   2.183   2.604 -0.2048  0.1731  0.1023
 6168TIP3    H140063   0.611   2.220   2.601 -0.3544 -0.2136 -2.9885
 6168TIP3    H240064   0.757   2.259   2.616 -0.8768  0.5101  1.3556
 6169TIP3   OH240065   0.211   3.133   0.437 -0.3452 -1.0040  0.3677
 6169TIP3    H140066   0.242   3.107   0.524 -0.6795  0.7779  1.0562
 6169TIP3    H240067   0.278   3.191   0.403 -0.4119 -1.3678 -0.4219
 6170TIP3   OH240068   3.413   0.522   0.440  0.8978 -0.1747 -0.3376
 6170TIP3    H140069   3.503   0.492   0.438  0.5779 -1.1064 -1.1656
 6170TIP3    H240070   3.387   0.528   0.348  0.1954  0.3591 -0.1186
 6171TIP3   OH240071   4.861   1.777   1.345  0.6948  0.0662  0.3501
 6171TIP3    H140072   4.817   1.744   1.422  0.6618  0.7324  0.6241
 6171TIP3    H240073   4.945   1.810   1.377  0.1624  1.5224  0.3370
 6172TIP3   OH240074   1.516   4.237   7.553 -0.4596 -0.5775 -0.0283
 6172TIP3    H140075   1.552   4.260   7.638 -0.0175  1.4317 -0.6943
 6172TIP3    H240076   1.592   4.208   7.502  0.1823  2.3994 -1.0165
 6173TIP3   OH240077   1.501   5.898   1.610  0.1190  0.0771  0.4233
 6173TIP3    H140078   1.417   5.926   1.646  1.0787  2.0723  1.2590
 6173TIP3    H240079   1.564   5.913   1.681  1.4023 -0.0023 -0.6493
 6174TIP3   OH240080   6.534   4.284   0.919 -0.0243 -0.7334  0.6301
 6174TIP3    H140081   6.611   4.229   0.926 -0.2967 -1.2972 -0.5881
 6174TIP3    H240082   6.470   4.230   0.873 -0.6174  0.2645  0.2497
 6175TIP3   OH240083   4.927   6.354   1.386 -0.4243 -0.0991  0.4009
 6175TIP3    H140084   4.925   6.259   1.381  0.2037 -0.0972  0.1162
 6175TIP3    H240085   4.994   6.374   1.451 -1.0842  0.1404  1.0325
 6176TIP3   OH240086   2.270   0.614   3.193 -0.0203  0.3247 -0.1652
 6176TIP3    H140087   2.262   0.633   3.100 -1.1599 -1.7317 -0.5434
 6176TIP3    H240088   2.359   0.582   3.204 -0.0985 -0.0786 -0.6878
 6177TIP3   OH240089   0.599   0.939   7.710  0.2322  0.2776  0.3456
 6177TIP3    H140090   0.516   0.904   7.678  0.3996 -0.1196  0.3482
 6177TIP3    H240091   0.591   0.938   7.806 -1.6202  4.5649  0.4817
 6178TIP3   OH240092   5.789   2.900   2.012 -0.6016  0.3005 -0.1718
 6178TIP3    H140093   5.834   2.980   1.985 -3.4354  2.0392 -0.2077
 6178TIP3    H240094   5.707   2.931   2.050 -1.3224 -2.5834  0.8436
 6179TIP3   OH240095   4.156   2.541   0.183  0.4014  0.3971  0.5705
 6179TIP3    H140096   4.104   2.478   0.233 -0.6531  0.3724 -0.5149
 6179TIP3    H240097   4.195   2.598   0.249  1.0097 -1.1065  1.5440
 6180TIP3   OH240098   1.116   3.341   0.038  0.0212 -0.4594  0.2572
 6180TIP3    H140099   1.028   3.373   0.015  1.0148  2.7120  0.3180
 6180TIP3    H240100   1.146   3.295  -0.041 -1.1826 -0.4257 -0.2443
 6181TIP3   OH240101   2.505   0.196   2.056 -0.6908 -0.0345  0.1380
 6181TIP3    H140102   2.540   0.233   1.975 -0.6449 -2.0724 -0.8295
 6181TIP3    H240103   2.582   0.172   2.107 -0.7060  0.0211  0.1868
 6182TIP3   OH240104   0.728   0.052   1.825 -0.3941 -0.6440  0.5937
 6182TIP3    H140105   0.779  -0.012   1.875 -0.0550 -0.4050  0.5562
 6182TIP3    H240106   0.769   0.136   1.845 -0.7452 -0.4550  0.5246
 6183TIP3   OH240107   6.648   4.473   8.595 -0.0490  0.1606 -0.4901
 6183TIP3    H140108   6.624   4.505   8.682 -1.2501 -0.9833 -0.3770
 6183TIP3    H240109   6.590   4.520   8.535 -0.0163  0.0985 -0.5710
 6184TIP3   OH240110   0.792   4.876   1.154 -0.0886 -0.3406  0.0722
 6184TIP3    H140111   0.840   4.883   1.071 -0.2277 -0.6175 -0.0327
 6184TIP3    H240112   0.860   4.864   1.220 -0.0862 -2.8131 -0.3067
 6185TIP3   OH240113   3.085   0.460   2.907 -0.1522 -0.1057 -0.4733
 6185TIP3    H140114   3.152   0.455   2.974  0.5170  0.0683 -1.1090
 6185TIP3    H240115   3.082   0.372   2.868 -2.5037 -1.0530  1.5834
 6186TIP3   OH240116   0.471   4.968   0.180 -0.5322 -0.2220  0.1347
 6186TIP3    H140117   0.421   5.049   0.182 -1.5052 -0.7785 -0.3927
 6186TIP3    H240118   0.547   4.984   0.235 -1.9374  0.2415  2.0497
 6187TIP3   OH240119   5.089   3.239   7.379 -0.4062  0.1236  0.5117
 6187TIP3    H140120   5.139   3.278   7.450 -0.4697  0.0452  0.5999
 6187TIP3    H240121   5.147   3.244   7.303 -0.4808  0.5507  0.4785
 6188TIP3   OH240122   5.179   3.533   2.361  0.1430  1.2698  0.3618
 6188TIP3    H140123   5.177   3.450   2.409  1.6040  0.2124 -1.2804
 6188TIP3    H240124   5.215   3.596   2.423  0.8499  0.2223  1.0429
 6189TIP3   OH240125   3.209   0.533   1.961 -0.1269 -0.5537 -0.2226
 6189TIP3    H140126   3.256   0.548   2.043 -1.0683 -3.0480  0.8615
 6189TIP3    H240127   3.270   0.480   1.908  1.1170  2.3162 -1.8969
 6190TIP3   OH240128   5.838   6.517   7.902 -0.2830  0.0086 -0.4828
 6190TIP3    H140129   5.793   6.453   7.959 -0.7381 -0.4407 -1.3228
 6190TIP3    H240130   5.928   6.486   7.899  0.3144  1.3160  1.7901
 6191TIP3   OH240131   6.229   5.301   0.389  0.7514  0.3218  1.1190
 6191TIP3    H140132   6.279   5.269   0.313  0.0646  0.9311  0.3954
 6191TIP3    H240133   6.137   5.285   0.366  0.4627  1.6103  1.2943
 6192TIP3   OH240134   3.849   2.790   0.123  0.2405 -0.1306  0.3815
 6192TIP3    H140135   3.925   2.836   0.158  0.9018  1.0558 -2.3215
 6192TIP3    H240136   3.819   2.734   0.195  1.8019  1.6129  2.5191
 6193TIP3   OH240137   5.036   2.805   8.118 -0.1408  0.3517  0.3229
 6193TIP3    H140138   4.997   2.749   8.051 -0.6915  0.8192  0.2452
 6193TIP3    H240139   4.999   2.892   8.102 -0.9785  0.2909  1.7689
 6194TIP3   OH240140   4.826   1.700   8.251 -0.1569 -0.2730 -0.4372
 6194TIP3    H140141   4.744   1.689   8.297 -0.6569  1.9203 -0.6873
 6194TIP3    H240142   4.883   1.747   8.312  0.0021  0.5112 -1.1643
 6195TIP3   OH240143   3.590   2.043   8.191 -0.4209 -0.4212  0.3521
 6195TIP3    H140144   3.621   2.066   8.103 -0.5348  1.3982  0.7512
 6195TIP3    H240145   3.644   2.095   8.250 -1.7528 -0.0114  1.2518
 6196TIP3   OH240146   1.852   0.686   1.293  0.0068  0.0053 -0.6302
 6196TIP3    H140147   1.758   0.700   1.303 -0.0644 -1.4766  1.3585
 6196TIP3    H240148   1.860   0.635   1.213 -0.9552 -0.3779 -0.4954
 6197TIP3   OH240149   5.065   0.470   8.282  0.9461 -0.2968  0.0536
 6197TIP3    H140150   5.054   0.375   8.280  1.6050 -0.4331  1.5016
 6197TIP3    H240151   5.025   0.497   8.364  2.3600  0.4274  0.5406
 6198TIP3   OH240152   1.356   5.230   1.451  0.1319  0.1263 -0.1250
 6198TIP3    H140153   1.339   5.322   1.472 -2.7969  0.0103 -1.4494
 6198TIP3    H240154   1.320   5.182   1.526 -1.2215  0.0182 -0.8131
 6199TIP3   OH240155   1.710   3.941   0.449  0.5027 -0.3111 -0.0577
 6199TIP3    H140156   1.756   3.904   0.373 -0.1625 -1.2373 -0.0339
 6199TIP3    H240157   1.680   3.864   0.498 -0.4333  0.2703  0.3018
 6200TIP3   OH240158   2.390   2.331   7.168 -0.0610  0.7161  0.2930
 6200TIP3    H140159   2.345   2.344   7.085 -0.0472  0.4343  0.2416
 6200TIP3    H240160   2.482   2.321   7.144 -0.2861 -1.3395  0.1507
 6201TIP3   OH240161   4.517   5.005   0.801 -0.4816  0.1352 -0.1228
 6201TIP3    H140162   4.602   4.965   0.818 -0.1971  1.0501  0.7034
 6201TIP3    H240163   4.534   5.070   0.734 -0.4490  0.5842  0.3175
 6202TIP3   OH240164   0.664   6.484   8.707 -0.3222  0.5164  0.2775
 6202TIP3    H140165   0.713   6.405   8.683  1.6440  1.9645 -0.7215
 6202TIP3    H240166   0.692   6.504   8.796 -0.5915  0.2676  0.4194
 6203TIP3   OH240167   2.746   3.637   1.981  0.3231  1.2658 -0.7038
 6203TIP3    H140168   2.775   3.583   2.055 -1.3080  0.6793 -0.4411
 6203TIP3    H240169   2.813   3.624   1.914  1.5493  1.3697  0.4611
 6204TIP3   OH240170   2.369   1.063   0.325  0.4624  0.3387  0.0968
 6204TIP3    H140171   2.402   1.121   0.394  2.0195  0.8697 -1.0375
 6204TIP3    H240172   2.422   0.984   0.334 -0.7397 -0.4194  0.7790
 6205TIP3   OH240173   4.537   1.325   0.678 -0.1032 -0.3438  0.2464
 6205TIP3    H140174   4.510   1.240   0.713  0.8308 -1.2577 -1.1678
 6205TIP3    H240175   4.625   1.338   0.712  0.2571 -0.5668 -0.5819
 6206TIP3   OH240176   4.311   0.465   1.308 -0.1519  0.2208  0.4857
 6206TIP3    H140177   4.290   0.552   1.341  1.9017 -0.1539  3.1880
 6206TIP3    H240178   4.228   0.417   1.313 -1.1354  1.7637 -0.2996
 6207TIP3   OH240179   5.388   5.503   1.131 -0.0123 -0.0408  0.5303
 6207TIP3    H140180   5.311   5.452   1.106  1.9792 -3.2305  0.3839
 6207TIP3    H240181   5.432   5.450   1.197  2.3537  1.3789  0.2144
 6208TIP3   OH240182   2.498   3.267   8.252 -0.3073  0.0330  1.1330
 6208TIP3    H140183   2.579   3.221   8.229 -0.8023  0.5873 -2.3551
 6208TIP3    H240184   2.524   3.359   8.259 -0.7128  0.4347 -1.4590
 6209TIP3   OH240185   4.530   1.513   1.250  0.0840 -0.4556 -0.7338
 6209TIP3    H140186   4.440   1.488   1.228 -0.1842 -0.3254  0.1826
 6209TIP3    H240187   4.582   1.484   1.174 -0.7369 -0.4225 -1.3270
 6210TIP3   OH240188   6.419   3.905   0.065 -0.2492 -0.1732  0.7048
 6210TIP3    H140189   6.495   3.957   0.089  0.5565  0.2011 -2.2545
 6210TIP3    H240190   6.455   3.821   0.037 -0.6843  0.4008 -1.8529
 6211TIP3   OH240191   4.532   5.418   6.938  0.4330 -0.2477  0.2126
 6211TIP3    H140192   4.560   5.475   7.009 -0.7761 -0.3005  0.7615
 6211TIP3    H240193   4.456   5.462   6.900 -0.4898 -1.4439  0.6031
 6212TIP3   OH240194   0.959   2.329   6.864  0.1730  0.8982  0.6051
 6212TIP3    H140195   0.935   2.420   6.879  1.6703  1.7717 -1.8140
 6212TIP3    H240196   0.877   2.281   6.874 -1.1662  2.8409 -0.4965
 6213TIP3   OH240197   5.195   2.771   2.034 -0.3876  0.0133  0.0159
 6213TIP3    H140198   5.284   2.773   2.070 -0.1110 -0.9334 -0.5738
 6213TIP3    H240199   5.189   2.686   1.991 -1.1831  0.5598 -0.9800
 6214TIP3   OH240200   4.037   5.960   7.816 -0.3905 -0.6519  0.3351
 6214TIP3    H140201   4.084   5.935   7.736 -0.2313  1.1467 -0.1697
 6214TIP3    H240202   3.961   5.901   7.818  0.2080 -1.4828 -0.5267
 6215TIP3   OH240203   2.292   2.342   6.927 -0.0338  0.1391 -0.1685
 6215TIP3    H140204   2.357   2.332   6.858 -1.3294  2.9604 -1.9982
 6215TIP3    H240205   2.224   2.277   6.907  0.4634 -0.2939 -0.4539
 6216TIP3   OH240206   0.618   6.479   2.212  0.0770  0.3470 -0.1415
 6216TIP3    H140207   0.703   6.464   2.252 -0.4152  0.2433  0.8799
 6216TIP3    H240208   0.593   6.567   2.240 -1.1042 -0.4278  1.3631
 6217TIP3   OH240209   2.179   0.736   0.697  0.1957 -0.2128 -0.1250
 6217TIP3    H140210   2.177   0.822   0.657  0.8336 -0.1602 -0.0449
 6217TIP3    H240211   2.226   0.748   0.779 -0.6224 -0.4305  0.3936
 6218TIP3   OH240212   3.299   2.111   1.511  0.2702  0.7503  0.2366
 6218TIP3    H140213   3.305   2.173   1.438 -0.2978  1.1197  0.5021
 6218TIP3    H240214   3.329   2.028   1.473  1.7421  1.3161  0.0623
 6219TIP3   OH240215   0.666   6.001   1.834 -0.1056  0.2020 -0.2665
 6219TIP3    H140216   0.605   6.040   1.772 -0.9749 -0.2713  0.2683
 6219TIP3    H240217   0.699   6.075   1.886  1.9697  0.8674 -2.3541
 6220TIP3   OH240218   1.536   1.458   8.699 -0.0458 -0.2304  0.4773
 6220TIP3    H140219   1.505   1.493   8.783  2.6964  1.5499  0.8777
 6220TIP3    H240220   1.620   1.415   8.720  0.9864  0.7446 -1.3786
 6221TIP3   OH240221   0.918   4.042   2.045  0.2044  0.2943  0.3826
 6221TIP3    H140222   0.863   3.981   2.095 -0.4407  0.2538 -0.3536
 6221TIP3    H240223   0.868   4.124   2.044 -1.2510 -0.4845 -2.6274
 6222TIP3   OH240224   2.522   2.487   1.369 -0.5845  0.2693 -0.0522
 6222TIP3    H140225   2.474   2.568   1.389 -0.4904  0.5091 -0.7646
 6222TIP3    H240226   2.471   2.446   1.299  0.6577  0.9277 -1.3816
 6223TIP3   OH240227   4.375   0.605   7.990 -0.1045  0.1282  0.1383
 6223TIP3    H140228   4.312   0.650   7.934 -0.4165 -0.3905  0.0588
 6223TIP3    H240229   4.321   0.552   8.049  0.2539 -1.1483 -0.6298
 6224TIP3   OH240230   0.190   4.834   2.079 -0.1339 -0.0309  0.0073
 6224TIP3    H140231   0.232   4.810   2.162  0.4200 -1.6921 -0.7108
 6224TIP3    H240232   0.128   4.763   2.063 -0.6393  0.5661 -0.7221
 6225TIP3   OH240233   4.006   0.701   2.130 -0.4424  1.0951  0.2241
 6225TIP3    H140234   3.917   0.727   2.154 -1.6532 -0.7921 -1.7847
 6225TIP3    H240235   3.999   0.676   2.037  1.7270 -0.9963  0.5140
 6226TIP3   OH240236   3.168   4.126   7.608  0.3752 -0.3460  0.1998
 6226TIP3    H140237   3.139   4.213   7.578 -1.9229 -1.7771 -2.1708
 6226TIP3    H240238   3.142   4.123   7.700  0.4874  1.4790  0.3211
 6227TIP3   OH240239   2.425   3.687   2.326  0.2264 -0.8353  0.6378
 6227TIP3    H140240   2.350   3.747   2.323  1.3752  0.6417  0.4411
 6227TIP3    H240241   2.388   3.601   2.304 -1.6250 -0.3822  1.7994
 6228TIP3   OH240242   6.635   4.057   0.326  0.0522 -0.5691  0.0524
 6228TIP3    H140243   6.686   3.984   0.360 -0.0285 -0.9050 -0.5456
 6228TIP3    H240244   6.694   4.132   0.332  0.5524 -0.9197 -0.4728
 6229TIP3   OH240245   0.679   6.096   0.612 -0.5047  0.8274 -0.0484
 6229TIP3    H140246   0.652   6.075   0.701 -0.1806 -0.0697 -0.1408
 6229TIP3    H240247   0.670   6.013   0.564 -0.1198  1.1526 -0.7041
 6230TIP3   OH240248   1.123   6.592   1.088  0.2495  0.1329 -0.0061
 6230TIP3    H140249   1.086   6.680   1.091  1.7373  0.8279 -1.0181
 6230TIP3    H240250   1.188   6.592   1.158  2.0632  0.7406 -1.6246
 6231TIP3   OH240251   4.562   5.523   1.278 -0.2971 -0.0596  0.1038
 6231TIP3    H140252   4.509   5.453   1.241  2.1568 -1.7690 -0.3988
 6231TIP3    H240253   4.567   5.502   1.371  1.0317 -1.0302 -0.1614
 6232TIP3   OH240254   3.481   6.558   0.493  0.6534  0.0216  0.2502
 6232TIP3    H140255   3.570   6.590   0.510  1.4496 -2.5872  1.4068
 6232TIP3    H240256   3.476   6.475   0.539 -1.1606 -1.7107 -2.7399
 6233TIP3   OH240257   0.134   0.940   7.436 -0.2791  0.1204 -0.2204
 6233TIP3    H140258   0.085   0.944   7.518 -1.8933 -2.7246 -0.9016
 6233TIP3    H240259   0.221   0.973   7.458 -1.2324  1.3403  2.0834
 6234TIP3   OH240260   5.452   0.380   7.805 -0.2489  0.2251 -0.0999
 6234TIP3    H140261   5.534   0.358   7.761 -0.3776 -0.1916 -0.1314
 6234TIP3    H240262   5.458   0.336   7.890 -0.4379  0.2025 -0.0989
 6235TIP3   OH240263   5.600   3.662   0.400  0.3340 -0.2536  0.2595
 6235TIP3    H140264   5.683   3.671   0.354  0.2198 -1.3801 -0.2008
 6235TIP3    H240265   5.545   3.612   0.340 -0.2497 -0.6303  1.0883
 6236TIP3   OH240266   3.830   6.183   0.942  0.0648  0.4109 -0.0010
 6236TIP3    H140267   3.743   6.146   0.928  0.8549 -1.3294 -0.6466
 6236TIP3    H240268   3.837   6.195   1.036 -0.5986 -0.1919  0.1296
 6237TIP3   OH240269   3.897   0.486   0.274 -0.2053  0.0681 -0.4940
 6237TIP3    H140270   3.959   0.451   0.211  0.5015  1.6999 -0.7548
 6237TIP3    H240271   3.823   0.425   0.271  0.3745 -0.6092 -1.9113
 6238TIP3   OH240272   2.771   4.235   0.685 -0.4156 -0.3595 -0.1544
 6238TIP3    H140273   2.829   4.252   0.760 -0.0322  1.1848 -0.7507
 6238TIP3    H240274   2.697   4.294   0.699  0.9314  2.0103 -2.3025
 6239TIP3   OH240275   3.355   0.399   1.795  0.1471  0.3110 -0.0258
 6239TIP3    H140276   3.426   0.454   1.761  1.0058 -0.1243  1.0261
 6239TIP3    H240277   3.398   0.338   1.854 -0.8115 -1.3978 -1.0369
 6240TIP3   OH240278   2.717   2.170   0.153 -0.4784 -0.1219  0.2255
 6240TIP3    H140279   2.626   2.193   0.174  0.2591  1.5518  1.8045
 6240TIP3    H240280   2.755   2.143   0.237  0.5119 -0.7928 -0.4183
 6241TIP3   OH240281   2.582   0.937   7.187 -0.4104  0.3465 -0.4121
 6241TIP3    H140282   2.552   1.007   7.245  0.0009 -1.3179  1.9603
 6241TIP3    H240283   2.600   0.981   7.103  0.0415  3.1006  1.0197
 6242TIP3   OH240284   3.325   5.446   2.086 -0.4131 -0.1501 -0.5847
 6242TIP3    H140285   3.240   5.426   2.048  0.3513 -1.0010 -1.9293
 6242TIP3    H240286   3.379   5.472   2.012  0.6572 -0.1829  0.1558
 6243TIP3   OH240287   0.304   4.021   8.728  0.6622 -0.0013 -0.6393
 6243TIP3    H140288   0.252   4.055   8.802  1.4826  0.2470 -0.1715
 6243TIP3    H240289   0.315   4.095   8.670  1.2357  0.1756 -0.3106
 6244TIP3   OH240290   5.846   3.483   0.076  0.0547 -0.3088 -0.3358
 6244TIP3    H140291   5.774   3.429   0.044 -0.1093  0.3410 -1.1052
 6244TIP3    H240292   5.864   3.543   0.004  2.8140 -1.8272 -1.0355
 6245TIP3   OH240293   6.382   5.259   7.637 -0.0327  0.0314 -1.0177
 6245TIP3    H140294   6.445   5.313   7.590 -0.5968 -0.3840 -2.2823
 6245TIP3    H240295   6.394   5.171   7.602 -0.7985 -0.1993 -0.7384
 6246TIP3   OH240296   0.277   5.765   0.722  0.0776 -0.4347 -0.0135
 6246TIP3    H140297   0.260   5.736   0.632 -0.0886 -2.7549  0.7208
 6246TIP3    H240298   0.373   5.765   0.729  0.1911  1.6093 -0.6977
 6247TIP3   OH240299   3.698   4.933   7.539  0.3546 -0.1747  0.2238
 6247TIP3    H140300   3.728   4.851   7.578  0.0974 -1.0621 -1.3317
 6247TIP3    H240301   3.608   4.914   7.512  0.2248  0.6950  0.0335
 6248TIP3   OH240302   4.576   1.383   2.054  0.6537  0.3629  0.5244
 6248TIP3    H140303   4.518   1.433   1.996  1.4859  0.4829 -0.2363
 6248TIP3    H240304   4.553   1.292   2.036  0.5176  0.4148  0.4268
 6249TIP3   OH240305   5.908   5.667   8.841 -0.4747 -0.2023 -0.1958
 6249TIP3    H140306   5.950   5.749   8.816 -0.2460 -0.1174  0.4641
 6249TIP3    H240307   5.939   5.604   8.776 -1.3771  0.4196 -1.2651
 6250TIP3   OH240308   3.424   5.472   2.754 -0.6884  0.0969  0.6267
 6250TIP3    H140309   3.423   5.460   2.849 -0.7544 -2.5981  0.3557
 6250TIP3    H240310   3.332   5.470   2.728 -0.7395  1.8705  0.5678
 6251TIP3   OH240311   2.699   4.398   1.069  0.4550  0.2453 -0.4487
 6251TIP3    H140312   2.669   4.389   1.159 -0.6844  2.3245 -0.5504
 6251TIP3    H240313   2.747   4.318   1.051  1.3775  0.1085  2.2508
 6252TIP3   OH240314   4.455   3.004   0.389 -0.6962  0.2580  0.4544
 6252TIP3    H140315   4.391   2.975   0.455 -0.9792  0.7781  0.4128
 6252TIP3    H240316   4.425   3.092   0.364 -0.3690  0.2166 -0.0879
 6253TIP3   OH240317   0.985   5.199   1.436  0.4448  0.6910  0.2208
 6253TIP3    H140318   1.010   5.226   1.524  1.7741  0.0428  0.0730
 6253TIP3    H240319   1.062   5.153   1.403  0.0697  1.1417 -1.3697
 6254TIP3   OH240320   6.290   6.725   1.341 -0.3582 -0.4261 -0.3323
 6254TIP3    H140321   6.341   6.799   1.307 -0.6081  0.2191  0.6802
 6254TIP3    H240322   6.352   6.652   1.342  0.4776  0.2663  0.5687
 6255TIP3   OH240323   6.774   2.045   7.821  0.8682  0.8740  0.0522
 6255TIP3    H140324   6.752   2.137   7.806  0.5142  0.6720 -0.7137
 6255TIP3    H240325   6.759   2.031   7.914  2.1548  1.9184  0.4464
 6256TIP3   OH240326   1.444   0.342   0.172 -0.4245  0.5351 -0.3160
 6256TIP3    H140327   1.487   0.268   0.130 -0.4555 -0.4581  1.3117
 6256TIP3    H240328   1.487   0.350   0.257  0.6131  3.3545 -0.9633
 6257TIP3   OH240329   3.563   0.330   8.198 -0.4553 -0.0983 -0.1088
 6257TIP3    H140330   3.580   0.404   8.140  0.5697  0.2601  0.6230
 6257TIP3    H240331   3.584   0.362   8.286  0.0379 -1.2519  0.2221
 6258TIP3   OH240332   4.528   6.401   8.668  0.0555  0.2307 -0.3133
 6258TIP3    H140333   4.467   6.399   8.742  0.8084  1.8858  0.3908
 6258TIP3    H240334   4.573   6.485   8.676  2.7341 -1.0802 -0.5590
 6259TIP3   OH240335   1.604   3.661   7.767  0.5887 -0.2046  0.4953
 6259TIP3    H140336   1.680   3.671   7.824  0.8660 -0.2110  0.1268
 6259TIP3    H240337   1.640   3.641   7.681  0.2132  1.0470  0.0336
 6260TIP3   OH240338   2.864   3.605   0.241  0.2806 -0.1106  0.9683
 6260TIP3    H140339   2.941   3.649   0.277  0.2165  0.8465  0.0031
 6260TIP3    H240340   2.814   3.676   0.199  0.1677 -1.0823 -0.6265
 6261TIP3   OH240341   4.146   4.204   8.349 -0.1499  0.2737  0.6434
 6261TIP3    H140342   4.087   4.220   8.275 -0.9590 -0.6453  1.0771
 6261TIP3    H240343   4.094   4.153   8.411  1.3331 -1.2500  0.7015
 6262TIP3   OH240344   3.812   2.479   0.391 -0.0007  0.1964  0.0960
 6262TIP3    H140345   3.888   2.421   0.402 -0.4923 -0.1894  1.8316
 6262TIP3    H240346   3.792   2.475   0.298 -0.0809 -2.5443  0.1378
 6263TIP3   OH240347   6.769   2.018   8.100 -0.2005 -0.2786  0.3183
 6263TIP3    H140348   6.706   2.057   8.161  0.7608  0.4179  0.8912
 6263TIP3    H240349   6.843   1.993   8.154  1.6265  2.3639 -0.7901
 6264TIP3   OH240350   5.969   4.461   8.224 -0.0839  0.5047  0.0760
 6264TIP3    H140351   6.000   4.428   8.140 -0.4559  2.0924 -0.7303
 6264TIP3    H240352   5.874   4.449   8.222 -0.0003 -0.2938  0.6654
 6265TIP3   OH240353   0.828   6.531   0.083  0.2160 -0.3621 -0.0619
 6265TIP3    H140354   0.763   6.597   0.107  1.1352  0.6056 -0.1730
 6265TIP3    H240355   0.912   6.575   0.092  0.7391 -0.5135 -3.1716
 6266TIP3   OH240356   2.738   1.034   1.458  0.1497 -0.7040 -0.3886
 6266TIP3    H140357   2.822   1.061   1.420  0.1513 -0.4738 -0.2293
 6266TIP3    H240358   2.752   1.039   1.553  0.5298 -2.4765 -0.3328
 6267TIP3   OH240359   5.832   6.227   7.144 -0.2192  0.1198  0.2379
 6267TIP3    H140360   5.896   6.260   7.082 -0.2809  0.3867  0.3142
 6267TIP3    H240361   5.749   6.228   7.097 -0.1647 -0.2281  0.1380
 6268TIP3   OH240362   1.259   3.473   1.416 -0.2036 -0.1622 -0.5861
 6268TIP3    H140363   1.345   3.486   1.376  0.1706 -2.4206 -0.6646
 6268TIP3    H240364   1.271   3.499   1.507 -0.4811  2.9624 -1.3294
 6269TIP3   OH240365   5.356   0.783   8.706  0.1011  0.1722  0.7090
 6269TIP3    H140366   5.450   0.800   8.714  0.2741 -0.7943  0.9175
 6269TIP3    H240367   5.324   0.781   8.796  0.0735 -0.4440  0.6927
 6270TIP3   OH240368   3.162   6.227   0.234 -0.1343  0.0468  0.6865
 6270TIP3    H140369   3.098   6.293   0.259  0.2673  1.0667 -0.8017
 6270TIP3    H240370   3.237   6.277   0.202  0.6283 -1.1257  0.5794
 6271TIP3   OH240371   4.222   4.293   1.311  0.4863  0.6239 -0.2364
 6271TIP3    H140372   4.131   4.265   1.320  0.9372 -0.5324  1.0361
 6271TIP3    H240373   4.269   4.214   1.286  1.2643  1.0383 -0.1148
 6272TIP3   OH240374   0.352   0.701   2.601 -0.0512 -0.2204  0.5657
 6272TIP3    H140375   0.350   0.794   2.582  1.2410 -0.6081 -1.7968
 6272TIP3    H240376   0.264   0.680   2.632  0.2646  2.1707  3.5550
 6273TIP3   OH240377   3.729   2.450   8.413 -0.0617  0.0202  0.1702
 6273TIP3    H140378   3.783   2.511   8.362  0.4810  0.9974  1.8228
 6273TIP3    H240379   3.651   2.435   8.359  0.9973  0.0476 -1.4471
 6274TIP3   OH240380   3.283   5.931   8.188 -0.2661  0.0219 -0.6252
 6274TIP3    H140381   3.299   5.850   8.141 -1.3546 -1.1167  0.8544
 6274TIP3    H240382   3.257   5.994   8.121  0.5946 -0.8413 -1.7951
 6275TIP3   OH240383   1.391   0.476   0.973 -0.5847  0.2311  0.3099
 6275TIP3    H140384   1.485   0.490   0.961 -0.7836  2.1476  0.6097
 6275TIP3    H240385   1.363   0.433   0.892  0.0823  2.3726 -1.1478
 6276TIP3   OH240386   6.668   5.467   8.281 -0.2168  0.1338 -0.1328
 6276TIP3    H140387   6.713   5.459   8.365  0.4719  0.7858 -0.4315
 6276TIP3    H240388   6.728   5.426   8.218 -0.0737  0.9253 -0.5171
 6277TIP3   OH240389   6.105   4.962   1.237  0.4893 -0.4594  0.3120
 6277TIP3    H140390   6.112   4.895   1.169  0.5097 -1.5085  1.3166
 6277TIP3    H240391   6.011   4.979   1.245  0.5362  0.2165 -0.4819
 6278TIP3   OH240392   5.415   5.754   1.389  0.4021  0.5130  0.4575
 6278TIP3    H140393   5.493   5.705   1.363 -0.4914 -0.5624 -0.2472
 6278TIP3    H240394   5.347   5.688   1.402 -0.2491  1.3679  1.7169
 6279TIP3   OH240395   3.574   1.273   7.341 -0.0269  0.6843 -0.0161
 6279TIP3    H140396   3.482   1.261   7.364 -0.3918  0.6260 -1.4120
 6279TIP3    H240397   3.584   1.226   7.258  1.3258  0.4921  0.2288
 6280TIP3   OH240398   5.899   2.401   0.230 -0.4382 -0.2730  0.1076
 6280TIP3    H140399   5.867   2.312   0.217  0.1399 -0.2403 -1.9430
 6280TIP3    H240400   5.954   2.397   0.308 -2.2781 -1.1580  1.4352
 6281TIP3   OH240401   2.850   2.265   1.580 -0.1599  0.9770 -0.4602
 6281TIP3    H140402   2.888   2.341   1.624 -0.8774  0.7254  0.6346
 6281TIP3    H240403   2.890   2.189   1.625  0.7398  0.6852 -1.7056
 6282TIP3   OH240404   5.926   2.442   8.663  0.0544  0.7273 -0.1624
 6282TIP3    H140405   5.926   2.348   8.682 -0.0064  1.0315  1.5348
 6282TIP3    H240406   5.953   2.448   8.572  0.4907 -0.9112 -0.1796
 6283TIP3   OH240407   5.389   3.331   6.940  0.3407  0.1810  0.2876
 6283TIP3    H140408   5.414   3.336   6.848 -1.9911  1.2057 -0.3581
 6283TIP3    H240409   5.450   3.268   6.978  3.3996  2.0194 -1.2149
 6284TIP3   OH240410   4.182   3.530   2.212 -0.6250  0.4121 -0.2211
 6284TIP3    H140411   4.125   3.575   2.275 -1.3791 -0.2614 -0.4049
 6284TIP3    H240412   4.122   3.498   2.145 -0.0736 -0.5745 -0.2588
 6285TIP3   OH240413   5.040   3.772   0.891 -0.3457  0.5080  0.5526
 6285TIP3    H140414   5.071   3.687   0.923  0.3807  0.3644 -0.4740
 6285TIP3    H240415   4.979   3.750   0.820 -2.1580  0.8094  1.9436
 6286TIP3   OH240416   3.198   0.480   2.292 -0.8251  0.2289 -0.4438
 6286TIP3    H140417   3.116   0.479   2.342 -1.7584  0.0697 -1.9371
 6286TIP3    H240418   3.218   0.572   2.281  0.3274  0.2839  1.6625
 6287TIP3   OH240419   3.092   4.694   0.294 -0.0448  0.1751 -0.1297
 6287TIP3    H140420   3.155   4.677   0.225  1.5657  0.7281  1.1553
 6287TIP3    H240421   3.056   4.780   0.274 -1.5859 -0.7526 -1.6886
 6288TIP3   OH240422   4.680   0.173   1.841 -0.1399  0.6002  0.0788
 6288TIP3    H140423   4.598   0.190   1.795  0.2598  2.1517 -0.1221
 6288TIP3    H240424   4.688   0.077   1.841 -2.4809  0.3373  1.0947
 6289TIP3   OH240425   3.239   2.190   2.442  0.0381 -0.2053 -0.1808
 6289TIP3    H140426   3.171   2.123   2.451  0.2293 -0.1938  1.8719
 6289TIP3    H240427   3.198   2.270   2.475  1.6904 -0.7103  3.5862
 6290TIP3   OH240428   1.073   2.400   2.277  0.8721 -0.4697  0.1220
 6290TIP3    H140429   1.074   2.374   2.185  0.6070  0.6680 -0.2207
 6290TIP3    H240430   1.008   2.471   2.281  2.6677  1.2603  0.6763
 6291TIP3   OH240431   4.673   2.736   0.184  0.6825 -0.2858  0.3951
 6291TIP3    H140432   4.759   2.762   0.216  1.7877 -1.8465 -1.1116
 6291TIP3    H240433   4.679   2.641   0.173 -2.2595 -0.9649  3.1048
 6292TIP3   OH240434   1.092   4.927   6.792 -0.0745 -0.7562 -0.0208
 6292TIP3    H140435   1.119   4.903   6.704 -0.7512 -1.5870 -0.0119
 6292TIP3    H240436   1.119   4.854   6.847  2.0688  0.5616  0.8267
 6293TIP3   OH240437   3.427   2.411   8.703  0.6555  0.4553 -0.0318
 6293TIP3    H140438   3.342   2.454   8.716  1.1151  1.4909 -0.4056
 6293TIP3    H240439   3.405   2.318   8.692 -0.2438  0.3164  2.2685
 6294TIP3   OH240440   2.362   1.376   8.041 -0.5133  0.0954  0.1039
 6294TIP3    H140441   2.291   1.440   8.042 -2.5214 -1.9157 -2.3165
 6294TIP3    H240442   2.334   1.308   8.103  0.7362  0.5824  1.2705
 6295TIP3   OH240443   3.528   0.884   2.248  0.5070  0.3100  0.0505
 6295TIP3    H140444   3.531   0.857   2.340  0.3843  1.4273  0.4027
 6295TIP3    H240445   3.604   0.941   2.237 -0.2099  1.2532 -0.1733
 6296TIP3   OH240446   0.379   6.471   2.056 -0.5017 -0.9324  0.6924
 6296TIP3    H140447   0.346   6.388   2.091  0.2048 -1.3281  0.4351
 6296TIP3    H240448   0.471   6.472   2.081 -0.6295  0.0305  1.1652
 6297TIP3   OH240449   2.801   3.123   6.995  0.0652 -0.1108 -0.4000
 6297TIP3    H140450   2.812   3.205   7.044  0.1038 -0.8490  0.8706
 6297TIP3    H240451   2.726   3.140   6.938 -1.6856 -0.0185  1.7676
 6298TIP3   OH240452   1.183   6.131   8.085 -0.3120 -0.5629 -0.5785
 6298TIP3    H140453   1.276   6.148   8.105 -0.5383  0.5717 -0.4191
 6298TIP3    H240454   1.136   6.203   8.127 -1.2629 -1.0541 -0.7766
 6299TIP3   OH240455   5.125   0.814   0.564  0.6786 -0.3341  0.0040
 6299TIP3    H140456   5.192   0.751   0.590  0.2753 -0.7018  0.1601
 6299TIP3    H240457   5.063   0.814   0.637 -0.4123 -1.2806 -0.8952
 6300TIP3   OH240458   2.942   4.762   8.174 -0.0370  0.0855 -0.3939
 6300TIP3    H140459   2.969   4.691   8.231 -0.1982  0.5763  0.3106
 6300TIP3    H240460   2.848   4.753   8.166 -0.2953  1.1313  1.0078
 6301TIP3   OH240461   6.782   0.881   8.771  0.3882  0.0762 -0.0008
 6301TIP3    H140462   6.824   0.901   8.854  0.1426 -0.5326  0.2746
 6301TIP3    H240463   6.839   0.815   8.730 -0.2261 -0.6782  0.3290
 6302TIP3   OH240464   6.631   1.638   1.032  0.1453 -0.1262 -0.4166
 6302TIP3    H140465   6.547   1.678   1.012  0.4435  0.7713  0.0676
 6302TIP3    H240466   6.612   1.545   1.045 -0.4822 -0.2542 -2.0732
 6303TIP3   OH240467   3.186   5.689   1.037 -0.0900 -0.5524 -0.4070
 6303TIP3    H140468   3.150   5.770   1.002 -1.4503 -1.0865 -0.3072
 6303TIP3    H240469   3.161   5.622   0.975 -0.4604 -1.1499  0.3697
 6304TIP3   OH240470   0.027   5.460   2.731  0.3391 -0.1230  0.3883
 6304TIP3    H140471   0.006   5.457   2.638 -0.6352  0.9257  0.5578
 6304TIP3    H240472  -0.050   5.422   2.775  1.1035 -1.3205  0.7444
 6305TIP3   OH240473   0.275   4.605   3.176  0.2817  0.3674 -0.5124
 6305TIP3    H140474   0.260   4.552   3.254 -1.0961  1.5535  0.0719
 6305TIP3    H240475   0.370   4.603   3.163  0.4203 -0.7680  0.5070
 6306TIP3   OH240476   2.754   2.356   1.344  0.6980  0.2277 -0.0421
 6306TIP3    H140477   2.670   2.399   1.357 -0.6211 -1.7681 -1.3520
 6306TIP3    H240478   2.781   2.327   1.431  0.1780  1.1222  0.4258
 6307TIP3   OH240479   2.094   4.057   1.543  0.7345 -0.0945  0.1731
 6307TIP3    H140480   2.115   4.101   1.461  0.1478  1.1875  0.6889
 6307TIP3    H240481   2.019   4.105   1.578  1.5274 -0.0321  1.8992
 6308TIP3   OH240482   2.656   0.518   8.842  0.6047 -0.2963  0.2097
 6308TIP3    H140483   2.720   0.448   8.851 -0.4704 -1.6195 -1.8319
 6308TIP3    H240484   2.571   0.476   8.858  0.0644  1.0558  1.1653
 6309TIP3   OH240485   3.234   4.705   2.422  0.6600  0.5515 -0.0095
 6309TIP3    H140486   3.311   4.648   2.434 -0.1254 -0.4636  0.3476
 6309TIP3    H240487   3.193   4.708   2.508 -0.8895 -0.6984 -0.6528
 6310TIP3   OH240488   5.498   0.878   0.352  0.1713  0.2422 -0.2064
 6310TIP3    H140489   5.474   0.967   0.329 -1.6172 -0.1956 -0.1568
 6310TIP3    H240490   5.584   0.865   0.311  0.3174  1.8616 -0.4721
 6311TIP3   OH240491   2.686   1.481   7.048  0.0173 -0.2214  0.4904
 6311TIP3    H140492   2.630   1.425   6.995  0.7901 -0.9902  0.4592
 6311TIP3    H240493   2.626   1.538   7.096 -0.7193  0.3191 -0.9961
 6312TIP3   OH240494   1.841   5.896   1.779 -0.0936 -0.1309  0.8076
 6312TIP3    H140495   1.769   5.925   1.835 -1.0309  2.3381 -1.4736
 6312TIP3    H240496   1.876   5.976   1.740  0.0011 -1.6718 -2.6423
 6313TIP3   OH240497   3.196   2.613   1.083  0.4674 -0.3631  0.4264
 6313TIP3    H140498   3.107   2.592   1.054  0.4287 -2.1171  1.6515
 6313TIP3    H240499   3.248   2.616   1.002 -0.4713 -0.4965 -0.1975
 6314TIP3   OH240500   2.963   4.526   0.770  0.3396  0.0341  0.0010
 6314TIP3    H140501   2.957   4.598   0.832 -2.0331  0.4303 -0.6091
 6314TIP3    H240502   2.878   4.482   0.775  0.6292 -0.8634 -1.8213
 6315TIP3   OH240503   4.935   1.278   1.231 -0.3588  0.7221  0.2072
 6315TIP3    H140504   5.025   1.264   1.258 -0.6590 -0.9665  0.4644
 6315TIP3    H240505   4.906   1.356   1.278  0.2770 -0.0182  1.8668
 6316TIP3   OH240506   3.372   4.450   7.596 -0.5470 -0.0634  0.0678
 6316TIP3    H140507   3.288   4.487   7.571  0.2596  1.4811 -0.4599
 6316TIP3    H240508   3.390   4.383   7.530 -0.7422  0.5271 -0.5815
 6317TIP3   OH240509   0.157   1.978   0.836  0.0772 -0.6277 -0.9018
 6317TIP3    H140510   0.140   2.039   0.765 -0.5410 -0.0357 -0.2689
 6317TIP3    H240511   0.076   1.927   0.844 -0.5933  0.5672  0.5552
 6318TIP3   OH240512   6.579   3.152   1.131  0.5072 -0.5111 -0.2239
 6318TIP3    H140513   6.663   3.157   1.176  1.5384  0.1823 -2.1139
 6318TIP3    H240514   6.542   3.240   1.142  1.2200 -0.0233 -1.4951
 6319TIP3   OH240515   2.039   4.997   0.420 -0.2335 -0.3237  0.2254
 6319TIP3    H140516   2.077   5.085   0.426  0.4783 -0.6800  1.3486
 6319TIP3    H240517   1.962   5.001   0.475  0.7415 -0.8464  1.6791
 6320TIP3   OH240518   2.855   5.835   7.314  0.4095  0.0317  0.0312
 6320TIP3    H140519   2.829   5.896   7.244  0.4427  1.2610  1.0597
 6320TIP3    H240520   2.818   5.751   7.287  1.4785  0.1626 -2.0992
 6321TIP3   OH240521   3.664   3.659   0.315 -0.2013 -0.6090  0.2496
 6321TIP3    H140522   3.578   3.626   0.289 -0.2035  0.1573 -0.7810
 6321TIP3    H240523   3.726   3.601   0.269 -0.1966  0.0321 -0.5772
 6322TIP3   OH240524   6.306   1.866   8.661 -0.1189  0.3313 -0.2817
 6322TIP3    H140525   6.277   1.845   8.750 -0.1379  0.7577 -0.1880
 6322TIP3    H240526   6.352   1.787   8.632  0.8676  0.5930  0.5173
 6323TIP3   OH240527   0.793   0.977   6.806  0.0795 -0.1009  0.3751
 6323TIP3    H140528   0.798   0.900   6.863  1.3708 -1.0375 -0.9441
 6323TIP3    H240529   0.822   0.946   6.720  1.2069  1.9679 -0.0730
 6324TIP3   OH240530   6.022   2.932   0.812 -0.3780  0.0154  0.2114
 6324TIP3    H140531   5.973   3.015   0.815 -1.6265 -0.6639 -0.4405
 6324TIP3    H240532   6.111   2.957   0.790 -1.4807  0.9806 -4.1503
 6325TIP3   OH240533   1.685   0.348   2.484  0.2315  0.4234 -0.2598
 6325TIP3    H140534   1.602   0.331   2.529  1.1722 -1.0993  1.0023
 6325TIP3    H240535   1.737   0.399   2.546 -0.5232  3.4693 -1.9366
 6326TIP3   OH240536   6.661   3.689   8.436  0.5118 -0.2101  0.2905
 6326TIP3    H140537   6.608   3.763   8.405  0.9248  0.9790  2.2428
 6326TIP3    H240538   6.597   3.624   8.463  0.0723  0.3967  0.7493
 6327TIP3   OH240539   0.995   1.911   7.555 -0.4614  0.2521  0.8006
 6327TIP3    H140540   1.075   1.941   7.599 -0.3541 -0.2699  0.9591
 6327TIP3    H240541   0.968   1.834   7.604 -0.1248 -0.5679 -0.2804
 6328TIP3   OH240542   1.434   1.979   8.277  0.0292  0.0394  0.0219
 6328TIP3    H140543   1.494   2.003   8.347  1.1269 -1.0607 -0.5231
 6328TIP3    H240544   1.365   1.929   8.320  1.1319 -1.3601  0.2436
 6329TIP3   OH240545   4.742   1.677   1.588 -0.8896  0.1730  0.1064
 6329TIP3    H140546   4.802   1.647   1.656  0.4392 -1.9356 -1.8576
 6329TIP3    H240547   4.655   1.650   1.617 -0.3403 -0.7350  0.9244
 6330TIP3   OH240548   6.505   6.121   2.014  0.1854 -0.0518  0.2055
 6330TIP3    H140549   6.480   6.170   1.935  1.6289 -1.6601 -1.3541
 6330TIP3    H240550   6.438   6.053   2.022 -1.1119  1.3137  1.6376
 6331TIP3   OH240551   6.716   5.241   1.062  0.2582 -0.1115  0.3534
 6331TIP3    H140552   6.703   5.229   0.968  0.4430  1.2957  0.1245
 6331TIP3    H240553   6.627   5.239   1.099  0.1510 -0.2290  0.0927
 6332TIP3   OH240554   1.715   0.289   1.970 -0.1242  0.7337 -0.2907
 6332TIP3    H140555   1.801   0.325   1.989  0.7804 -0.7147 -1.3980
 6332TIP3    H240556   1.664   0.306   2.049  0.9554  2.2108  0.1293
 6333TIP3   OH240557   0.851   3.064   1.470 -0.7432 -0.4750  0.4685
 6333TIP3    H140558   0.816   2.976   1.484  0.6815 -1.0118  0.8157
 6333TIP3    H240559   0.890   3.061   1.383 -0.9043 -0.1025  0.3808
 6334TIP3   OH240560   2.540   5.255   1.942  0.2754 -0.4944  0.2847
 6334TIP3    H140561   2.519   5.288   2.030  0.0462 -0.3029  0.1583
 6334TIP3    H240562   2.631   5.282   1.928 -1.0760  3.8637 -1.4950
 6335TIP3   OH240563   3.331   1.139   0.657  0.0474 -0.5350 -0.3719
 6335TIP3    H140564   3.274   1.184   0.719 -0.4914 -0.5056 -0.8774
 6335TIP3    H240565   3.328   1.047   0.683 -0.2330 -0.5325 -0.3976
 6336TIP3   OH240566   3.582   6.045   0.934  0.3665 -0.0674 -0.1010
 6336TIP3    H140567   3.549   5.993   0.860  0.1429  0.4947 -0.4062
 6336TIP3    H240568   3.511   6.106   0.954 -0.1293 -1.1003  1.4808
 6337TIP3   OH240569   0.448   2.942   2.484 -0.3605 -0.0014 -0.0622
 6337TIP3    H140570   0.353   2.949   2.491 -0.3225 -0.1133  0.6102
 6337TIP3    H240571   0.481   3.026   2.515 -0.2508  0.2037 -0.7148
 6338TIP3   OH240572   4.022   6.510   2.793  0.9645 -0.6915  0.6788
 6338TIP3    H140573   3.928   6.524   2.806  0.0049 -0.4517 -4.3738
 6338TIP3    H240574   4.063   6.586   2.834 -1.3945  0.9085  0.3141
 6339TIP3   OH240575   2.066   4.748   0.327  0.2767 -0.2270  0.4211
 6339TIP3    H140576   2.105   4.763   0.241 -0.8609 -0.6824 -0.2035
 6339TIP3    H240577   2.051   4.836   0.362  0.9544 -0.0433  0.2475
 6340TIP3   OH240578   0.631   5.171   2.141  0.6708 -0.5177 -0.2346
 6340TIP3    H140579   0.672   5.085   2.134 -0.3455 -0.8903 -2.0218
 6340TIP3    H240580   0.613   5.197   2.051 -0.8640  0.6725  0.3721
 6341TIP3   OH240581   0.405   2.220   0.877 -0.2523  0.2081 -0.5032
 6341TIP3    H140582   0.315   2.252   0.883 -0.9673 -1.7367 -0.1836
 6341TIP3    H240583   0.402   2.149   0.813  0.6184 -1.1984  0.9403
 6342TIP3   OH240584   4.455   5.799   1.117  0.0606 -0.3125 -0.2743
 6342TIP3    H140585   4.487   5.710   1.105 -0.0914 -0.3683 -0.2741
 6342TIP3    H240586   4.419   5.824   1.032  0.7611  0.0198 -0.4795
 6343TIP3   OH240587   1.039   5.971   7.536 -0.5173 -0.4074 -0.4110
 6343TIP3    H140588   0.966   5.941   7.591 -0.3972 -1.6019 -0.8636
 6343TIP3    H240589   1.023   5.928   7.452 -1.0419  1.8592 -1.5417
 6344TIP3   OH240590   3.977   6.255   1.161  0.0971  0.8093  0.2035
 6344TIP3    H140591   4.038   6.282   1.092  1.6973  0.2631  1.3499
 6344TIP3    H240592   4.007   6.301   1.239  1.4297 -2.2479  1.6697
 6345TIP3   OH240593   3.784   5.961   1.795  0.3562  0.0394  0.5234
 6345TIP3    H140594   3.844   5.928   1.728 -1.0605 -0.5726 -0.4861
 6345TIP3    H240595   3.785   6.056   1.782 -0.1220 -0.0933 -0.5801
 6346TIP3   OH240596   6.549   6.208   2.875  0.7376 -0.5812 -0.2739
 6346TIP3    H140597   6.536   6.116   2.901 -0.9434 -1.2297 -2.9945
 6346TIP3    H240598   6.461   6.243   2.867  1.2539  0.4188 -1.9780
 6347TIP3   OH240599   2.399   3.116   8.027  0.4273  0.3515  0.0378
 6347TIP3    H140600   2.420   3.190   8.084  0.3520  1.6315 -1.5233
 6347TIP3    H240601   2.474   3.110   7.968 -0.0622 -0.1273 -0.5396
 6348TIP3   OH240602   1.072   5.416   0.025  0.3915  0.5160 -0.2626
 6348TIP3    H140603   0.998   5.470   0.053 -1.3438 -2.6857  1.9857
 6348TIP3    H240604   1.033   5.332   0.000  3.2397 -1.8465  2.4304
 6349TIP3   OH240605   0.198   2.201   0.139 -0.5162 -0.3731  0.2344
 6349TIP3    H140606   0.108   2.172   0.154 -0.7176 -0.0165 -0.2697
 6349TIP3    H240607   0.230   2.225   0.226 -0.7160 -1.0260  0.5017
 6350TIP3   OH240608   1.937   4.651   8.040  0.5635 -0.5725 -0.3198
 6350TIP3    H140609   1.967   4.742   8.039  1.6701 -0.9138  0.2404
 6350TIP3    H240610   2.001   4.605   7.986 -0.7717 -0.8147 -1.7844
 6351TIP3   OH240611   3.784   3.792   1.289 -0.0582  0.0559  0.2815
 6351TIP3    H140612   3.855   3.821   1.347  0.9377 -0.4831 -0.6441
 6351TIP3    H240613   3.787   3.852   1.215 -0.2136 -0.3256 -0.0355
 6352TIP3   OH240614   6.056   2.434   0.479  0.1647 -0.2560 -0.6037
 6352TIP3    H140615   6.059   2.517   0.526 -0.6851 -0.7712  0.4082
 6352TIP3    H240616   6.147   2.415   0.458  0.5699  0.0480  0.7556
 6353TIP3   OH240617   1.860   6.559   8.410  0.4463  0.7768 -0.1036
 6353TIP3    H140618   1.835   6.600   8.327  0.9166 -1.4486 -1.4075
 6353TIP3    H240619   1.947   6.595   8.430  1.2030 -0.1330 -1.6329
 6354TIP3   OH240620   5.321   1.631   2.306 -1.1605  0.6140  0.2915
 6354TIP3    H140621   5.375   1.595   2.236 -2.3653 -2.5732  0.8251
 6354TIP3    H240622   5.248   1.674   2.260 -0.5818  0.8611 -0.4090
 6355TIP3   OH240623   4.920   3.684   0.487  0.4873 -0.1923  0.0250
 6355TIP3    H140624   4.874   3.760   0.451  1.5014 -0.0226 -0.9437
 6355TIP3    H240625   4.900   3.687   0.581  0.1018  0.9768 -0.0764
 6356TIP3   OH240626   2.250   0.238   1.446 -0.4883 -0.2310 -0.2612
 6356TIP3    H140627   2.342   0.264   1.434 -0.3571 -0.8801 -0.7320
 6356TIP3    H240628   2.248   0.145   1.422 -1.1464 -0.3875  0.3710
 6357TIP3   OH240629   3.894   4.563   8.535  0.4359  0.0267  0.3114
 6357TIP3    H140630   3.839   4.557   8.457  0.5924  1.7186  0.0437
 6357TIP3    H240631   3.844   4.518   8.603  0.2857 -1.4615 -0.7284
 6358TIP3   OH240632   6.444   1.777   2.868 -0.1534  0.7306 -0.4358
 6358TIP3    H140633   6.425   1.861   2.911  1.5946  1.3510 -0.7925
 6358TIP3    H240634   6.359   1.747   2.835 -1.3016  0.9872  2.0509
 6359TIP3   OH240635   4.910   1.030   1.671 -0.0198  0.0435 -1.2367
 6359TIP3    H140636   4.933   1.102   1.613 -1.6978 -0.7076 -2.9491
 6359TIP3    H240637   4.842   0.982   1.624 -0.7854 -1.1777  0.9574
 6360TIP3   OH240638   6.193   3.434   7.621 -0.2194 -0.4615 -0.4249
 6360TIP3    H140639   6.206   3.429   7.716 -1.6943 -0.1358 -0.1763
 6360TIP3    H240640   6.102   3.407   7.608 -0.7880  1.7433 -1.5076
 6361TIP3   OH240641   4.649   6.704   8.376  0.6369 -0.1483  0.0856
 6361TIP3    H140642   4.641   6.626   8.322  1.4125 -0.7505  0.8032
 6361TIP3    H240643   4.561   6.721   8.409  0.2588 -0.0799 -0.9228
 6362TIP3   OH240644   1.218   6.581   1.394 -0.1991 -0.8912  0.6897
 6362TIP3    H140645   1.239   6.665   1.436 -0.9688 -0.3100 -0.0420
 6362TIP3    H240646   1.285   6.521   1.426  1.5046  0.4435 -0.1750
 6363TIP3   OH240647   1.170   4.643   7.255  0.3038 -0.1339 -0.8336
 6363TIP3    H140648   1.087   4.643   7.209  0.7204  1.3165 -1.6593
 6363TIP3    H240649   1.231   4.601   7.194  0.4645  0.1011 -0.8375
 6364TIP3   OH240650   1.767   3.344   7.319 -0.1056 -0.5080 -0.1463
 6364TIP3    H140651   1.731   3.328   7.232  0.6953 -0.9927 -0.4025
 6364TIP3    H240652   1.862   3.343   7.306  0.0200 -0.2700  0.6822
 6365TIP3   OH240653   6.454   3.741   1.728  0.0653  0.3126  0.1907
 6365TIP3    H140654   6.400   3.784   1.795  0.7151  0.4379  0.6353
 6365TIP3    H240655   6.521   3.694   1.777  0.1286 -0.1705 -0.3504
 6366TIP3   OH240656   4.264   1.870   0.818  0.3642 -0.2610 -0.3044
 6366TIP3    H140657   4.173   1.895   0.831  0.0654 -0.8962 -1.1073
 6366TIP3    H240658   4.300   1.864   0.906 -0.3600  0.0180  0.0153
 6367TIP3   OH240659   3.647   2.986   7.261  0.1868 -0.8855 -0.1959
 6367TIP3    H140660   3.646   2.972   7.166 -1.9403 -0.3532 -0.2934
 6367TIP3    H240661   3.664   2.899   7.298  1.2079 -1.0690 -1.0371
 6368TIP3   OH240662   0.723   0.204   0.774 -0.0664  0.0891  0.3860
 6368TIP3    H140663   0.774   0.131   0.810 -0.3943 -0.0657  0.5387
 6368TIP3    H240664   0.633   0.173   0.776 -0.3169  0.8488  1.3117
 6369TIP3   OH240665   3.782   1.120   8.376 -0.1795  0.2020  0.1480
 6369TIP3    H140666   3.816   1.208   8.365  0.1516  0.0661  0.0633
 6369TIP3    H240667   3.716   1.110   8.307 -1.3089  0.9031  1.0892
 6370TIP3   OH240668   0.801   2.523   7.662  0.7433  0.3490  0.8606
 6370TIP3    H140669   0.823   2.471   7.739  0.9810 -0.5661  0.1857
 6370TIP3    H240670   0.867   2.592   7.660  3.1889 -1.8330 -0.6284
 6371TIP3   OH240671   5.981   0.709   7.931  0.3054  0.1719  0.1915
 6371TIP3    H140672   5.920   0.776   7.961  1.6730  0.9719  1.3071
 6371TIP3    H240673   6.060   0.723   7.983  1.0232 -1.6116 -0.3393
 6372TIP3   OH240674   0.396   3.291   1.364 -0.5140  0.2356 -0.5368
 6372TIP3    H140675   0.424   3.380   1.342 -1.1470  0.5541 -0.0908
 6372TIP3    H240676   0.429   3.276   1.452  0.2443 -0.2634 -0.8988
 6373TIP3   OH240677   3.858   4.936   7.262 -0.6006 -0.0482  0.2721
 6373TIP3    H140678   3.768   4.964   7.278 -0.0580  2.5091 -0.6767
 6373TIP3    H240679   3.849   4.855   7.212 -2.3219 -0.5429  1.2790
 6374TIP3   OH240680   6.201   6.640   8.590 -0.3345  0.0678  0.4139
 6374TIP3    H140681   6.188   6.583   8.515 -1.4714 -0.1599  0.7597
 6374TIP3    H240682   6.220   6.581   8.663  0.4774  0.2665  0.3664
 6375TIP3   OH240683   1.832   2.706   6.577  0.6143 -0.0143 -0.0539
 6375TIP3    H140684   1.768   2.656   6.527 -0.5485  1.9653 -0.6772
 6375TIP3    H240685   1.782   2.778   6.615  2.0206  0.1607  1.6183
 6376TIP3   OH240686   3.162   6.514   1.343  0.6401 -0.5665 -0.1190
 6376TIP3    H140687   3.159   6.548   1.254  1.8854 -0.0027  0.0428
 6376TIP3    H240688   3.224   6.442   1.339 -1.2627 -2.3034 -0.2491
 6377TIP3   OH240689   2.535   2.146   8.702  0.4676 -0.4075 -0.0846
 6377TIP3    H140690   2.607   2.194   8.744  0.4447  0.1213 -0.6315
 6377TIP3    H240691   2.472   2.214   8.678  0.0547 -0.8042 -0.1398
 6378TIP3   OH240692   0.932   0.873   0.061  0.3424 -0.1465 -0.2413
 6378TIP3    H140693   0.863   0.842   0.119  1.9765 -1.7974  0.9279
 6378TIP3    H240694   0.974   0.944   0.110  0.4619 -0.2049 -0.2574
 6379TIP3   OH240695   2.354   1.747   8.063 -0.0449  0.2845 -0.7114
 6379TIP3    H140696   2.265   1.760   8.094 -0.0177 -0.9313 -0.0551
 6379TIP3    H240697   2.401   1.713   8.139  0.8622  0.4599 -1.1780
 6380TIP3   OH240698   1.708   0.575   0.897 -0.2473 -0.0679 -0.3129
 6380TIP3    H140699   1.772   0.590   0.827  0.9094 -0.8356  0.5405
 6380TIP3    H240700   1.703   0.659   0.943 -0.4641  0.2265 -0.8683
 6381TIP3   OH240701   5.664   0.918   8.502  0.1411 -0.1319  0.2007
 6381TIP3    H140702   5.609   0.868   8.441 -1.2844  1.7095 -0.1308
 6381TIP3    H240703   5.742   0.864   8.514  0.3328 -0.7604 -2.9802
 6382TIP3   OH240704   3.660   3.227   0.127  0.3369 -0.0289 -0.7362
 6382TIP3    H140705   3.684   3.142   0.089 -0.9026 -0.8335  0.1986
 6382TIP3    H240706   3.574   3.212   0.167  1.0674  1.0442  1.4020
 6383TIP3   OH240707   6.408   5.696   8.155  0.0884  0.1311  0.3731
 6383TIP3    H140708   6.342   5.690   8.223  1.8159 -1.1688  2.0242
 6383TIP3    H240709   6.481   5.744   8.196  0.1437  1.8022 -1.4835
 6384TIP3   OH240710   2.202   4.422   7.799 -0.6486 -0.2801 -0.3737
 6384TIP3    H140711   2.147   4.358   7.845 -0.4852  0.5642  1.0880
 6384TIP3    H240712   2.288   4.380   7.794  0.0312  0.5063  2.4500
 6385TIP3   OH240713   6.603   6.365   2.507 -0.6518  0.4743  0.2128
 6385TIP3    H140714   6.635   6.387   2.595 -0.7860  0.9311  0.1475
 6385TIP3    H240715   6.654   6.421   2.448 -0.4099  0.0147 -0.0211
 6386TIP3   OH240716   0.107   2.293   7.939 -0.0500 -0.2532  0.4604
 6386TIP3    H140717   0.021   2.318   7.906  0.0035 -1.1064 -0.3551
 6386TIP3    H240718   0.096   2.203   7.970  1.1282 -1.3501 -2.0542
 6387TIP3   OH240719   0.432   5.614   0.319  0.6996 -0.6188  0.1375
 6387TIP3    H140720   0.483   5.693   0.303  0.8344 -0.7615 -0.1475
 6387TIP3    H240721   0.498   5.544   0.328  0.5904 -0.6684  0.5614
 6388TIP3   OH240722   2.478   2.084   0.616  0.5133  0.1799 -0.2303
 6388TIP3    H140723   2.566   2.106   0.648  0.6345 -0.7524  0.0979
 6388TIP3    H240724   2.491   2.008   0.560 -0.0706  0.1233 -0.2960
 6389TIP3   OH240725   5.508   5.544   0.328 -0.1365 -0.8596 -0.1877
 6389TIP3    H140726   5.469   5.457   0.319 -0.5202 -0.7727  0.5332
 6389TIP3    H240727   5.564   5.554   0.251  0.1389 -1.8590 -0.1280
 6390TIP3   OH240728   5.419   4.455   0.096 -0.4591 -0.3172 -0.5077
 6390TIP3    H140729   5.452   4.426   0.181 -1.3818 -0.2642 -0.1223
 6390TIP3    H240730   5.382   4.376   0.056  0.7042 -0.5220 -1.2276
 6391TIP3   OH240731   2.583   3.176   6.815  0.0360  0.0044 -0.3636
 6391TIP3    H140732   2.526   3.220   6.878 -0.7778 -0.8451 -0.4693
 6391TIP3    H240733   2.630   3.246   6.771 -0.4016  0.6883  0.2388
 6392TIP3   OH240734   3.371   4.522   1.865 -0.2630 -0.5361  0.3977
 6392TIP3    H140735   3.354   4.490   1.953  1.1657  0.6237  1.1413
 6392TIP3    H240736   3.348   4.615   1.868 -1.1969 -0.7059 -0.7673
 6393TIP3   OH240737   1.473   4.032   1.418 -0.9146  0.4678  0.1898
 6393TIP3    H140738   1.523   4.030   1.337 -1.0172  1.3799  0.1006
 6393TIP3    H240739   1.470   3.940   1.446  1.4778  0.4466  0.6187
 6394TIP3   OH240740   1.925   5.917   8.670 -0.3320  0.1975  0.3349
 6394TIP3    H140741   1.935   5.823   8.660 -0.0937  0.3113 -0.5407
 6394TIP3    H240742   1.888   5.947   8.587  1.0728  1.0713 -0.0185
 6395TIP3   OH240743   4.870   4.219   0.423  0.2172 -0.0391 -0.1772
 6395TIP3    H140744   4.910   4.139   0.458 -1.9854 -0.6931  0.9981
 6395TIP3    H240745   4.890   4.217   0.330 -1.2160 -2.9022 -0.5214
 6396TIP3   OH240746   2.732   4.508   2.300 -0.8358 -0.1252 -0.2627
 6396TIP3    H140747   2.710   4.590   2.344 -0.3565 -0.3223  0.3655
 6396TIP3    H240748   2.665   4.447   2.329  0.1886 -0.5956  1.2585
 6397TIP3   OH240749   0.202   2.942   1.455  0.0134 -0.2727 -0.3616
 6397TIP3    H140750   0.275   2.958   1.515  0.7451 -3.3594 -0.2407
 6397TIP3    H240751   0.126   2.978   1.499  1.0877  0.7944  0.6912
 6398TIP3   OH240752   6.543   0.268   8.234 -0.1689 -0.6739 -0.2009
 6398TIP3    H140753   6.576   0.192   8.282 -0.4226  0.6162  2.1356
 6398TIP3    H240754   6.471   0.234   8.181 -2.2313 -1.6644  2.9747
 6399TIP3   OH240755   2.742   2.761   0.556  0.0185 -0.0512  0.5790
 6399TIP3    H140756   2.663   2.805   0.526 -1.2569 -1.6925  1.3655
 6399TIP3    H240757   2.710   2.689   0.610  2.0672 -0.7209  0.9845
 6400TIP3   OH240758   6.759   1.371   0.974 -0.0021 -0.0253 -0.0459
 6400TIP3    H140759   6.844   1.334   0.949  0.0774 -0.2281  0.5096
 6400TIP3    H240760   6.746   1.341   1.064 -0.4108  0.4619  0.0595
 6401TIP3   OH240761   5.042   3.352   0.194  0.2551  0.5155  0.6736
 6401TIP3    H140762   5.037   3.354   0.290  0.2174  2.0227  0.6631
 6401TIP3    H240763   5.128   3.390   0.174  0.1541  0.4449  0.1099
 6402TIP3   OH240764   4.631   0.290   7.883  0.2531 -0.0541 -0.3053
 6402TIP3    H140765   4.612   0.383   7.869 -1.2557 -0.3624 -0.5083
 6402TIP3    H240766   4.575   0.265   7.956 -0.9812 -1.2877 -1.6174
 6403TIP3   OH240767   1.573   1.806   0.427 -0.0409  0.1345  0.4547
 6403TIP3    H140768   1.646   1.775   0.373  0.1314 -0.6827  1.1304
 6403TIP3    H240769   1.510   1.842   0.364 -0.2204 -1.5613 -0.3871
 6404TIP3   OH240770   4.357   4.600   0.614  0.0490 -0.5444  0.1280
 6404TIP3    H140771   4.301   4.674   0.637 -1.7833 -1.3060 -1.5441
 6404TIP3    H240772   4.435   4.640   0.575 -0.2347  0.5169  0.6095
 6405TIP3   OH240773   6.207   4.823   8.386 -0.0798 -0.3828  0.6808
 6405TIP3    H140774   6.248   4.903   8.352  4.1899 -1.7880  1.8002
 6405TIP3    H240775   6.150   4.853   8.456  1.7353  1.7422  1.3709
 6406TIP3   OH240776   2.657   5.086   0.065 -0.2296  0.0218  0.4708
 6406TIP3    H140777   2.614   5.160   0.110  1.5210  0.4693  1.5162
 6406TIP3    H240778   2.722   5.128   0.008 -0.7705 -0.6612 -0.6889
 6407TIP3   OH240779   0.265   2.843   1.210  0.0823  0.2363 -0.3908
 6407TIP3    H140780   0.240   2.752   1.201  1.4046 -0.2314  0.4055
 6407TIP3    H240781   0.240   2.867   1.299  1.0512  0.1894 -0.0862
 6408TIP3   OH240782   2.468   5.813   1.712  0.4203 -0.5253  0.4725
 6408TIP3    H140783   2.379   5.848   1.717  0.6074  0.1302 -0.5108
 6408TIP3    H240784   2.504   5.826   1.799 -0.7267 -1.5912  1.1423
 6409TIP3   OH240785   4.712   4.618   0.746 -0.7608  0.2240  0.0376
 6409TIP3    H140786   4.793   4.592   0.790  0.4494  1.3508 -1.3931
 6409TIP3    H240787   4.669   4.535   0.726  0.2448 -0.4326  0.4797
 6410TIP3   OH240788   2.457   6.713   2.892 -0.1757  0.0864  0.4692
 6410TIP3    H140789   2.527   6.668   2.940 -1.0964 -1.9973 -0.0416
 6410TIP3    H240790   2.398   6.643   2.865 -1.9405  1.6932  0.0033
 6411TIP3   OH240791   0.218   0.764   2.084 -0.4953 -0.2051  0.3989
 6411TIP3    H140792   0.159   0.745   2.011 -1.1574 -1.6321  1.2583
 6411TIP3    H240793   0.185   0.846   2.120 -2.6832 -1.4463  1.4688
 6412TIP3   OH240794   4.616   2.218   7.018 -0.5511 -0.1020  0.4856
 6412TIP3    H140795   4.627   2.177   7.104 -1.5149  1.7279  1.5409
 6412TIP3    H240796   4.681   2.176   6.963  1.1652 -0.2509  2.5093
 6413TIP3   OH240797   6.401   4.255   1.182  0.1251  0.0288 -0.4510
 6413TIP3    H140798   6.475   4.221   1.232  1.1786 -0.0613 -1.9907
 6413TIP3    H240799   6.437   4.330   1.134 -1.3043  1.2477  0.2850
 6414TIP3   OH240800   1.361   3.566   8.447 -0.6686  0.4712 -0.1451
 6414TIP3    H140801   1.350   3.651   8.403  0.3677  1.2505  1.0160
 6414TIP3    H240802   1.422   3.584   8.518 -0.9205 -1.1356  0.5213
 6415TIP3   OH240803   2.079   1.839   1.137 -0.5924 -0.1842 -0.1114
 6415TIP3    H140804   2.138   1.809   1.068 -1.1602  2.1386 -1.7226
 6415TIP3    H240805   2.008   1.775   1.138 -0.0583 -0.8029 -0.9820
 6416TIP3   OH240806   5.603   1.568   0.330 -0.1496  0.0901  0.3662
 6416TIP3    H140807   5.612   1.646   0.385 -0.8667 -0.3072  1.0606
 6416TIP3    H240808   5.511   1.544   0.336 -0.2728  0.0921 -1.1097
 6417TIP3   OH240809   4.644   6.636   8.664 -0.6681 -0.5614 -0.0437
 6417TIP3    H140810   4.631   6.699   8.593 -0.3722  0.0677  0.4482
 6417TIP3    H240811   4.728   6.661   8.703 -0.3854 -1.4789 -0.0548
 6418TIP3   OH240812   2.569   3.330   7.599  0.1870  0.0493  0.4685
 6418TIP3    H140813   2.524   3.246   7.594 -0.2416  0.1002  2.5631
 6418TIP3    H240814   2.503   3.389   7.637  1.3767  0.6150  1.7085
 6419TIP3   OH240815   0.160   0.779   1.500  0.5039  0.3317 -0.3170
 6419TIP3    H140816   0.213   0.733   1.435 -0.5287  0.8182 -1.5398
 6419TIP3    H240817   0.127   0.710   1.557  0.7470 -0.1997 -0.8062
 6420TIP3   OH240818   1.320   5.382   7.333 -0.1026  0.2148  0.3251
 6420TIP3    H140819   1.394   5.431   7.370 -1.4008  2.0163  0.6755
 6420TIP3    H240820   1.245   5.441   7.344 -1.2949 -0.8735 -1.5066
 6421TIP3   OH240821   5.630   6.265   8.320 -0.4468 -0.5956 -0.3052
 6421TIP3    H140822   5.596   6.185   8.361 -0.2221 -0.2478  0.5691
 6421TIP3    H240823   5.563   6.331   8.336  0.0921 -0.1990  0.4286
 6422TIP3   OH240824   0.640   2.771   2.305  0.0996  0.1807  0.8753
 6422TIP3    H140825   0.593   2.720   2.239 -0.0861  0.0032  1.1386
 6422TIP3    H240826   0.585   2.848   2.320 -0.3515 -0.2486  1.5126
 6423TIP3   OH240827   3.310   1.116   2.869  0.2921  0.5593  0.0363
 6423TIP3    H140828   3.393   1.078   2.899 -0.7818 -1.3009  0.8292
 6423TIP3    H240829   3.333   1.168   2.792  1.9399 -1.4881 -0.9513
 6424TIP3   OH240830   1.547   0.142   0.552  0.1114  0.2898 -0.1038
 6424TIP3    H140831   1.635   0.120   0.522  0.0608  0.6069 -0.4789
 6424TIP3    H240832   1.517   0.212   0.494 -0.2263  0.4760  0.2831
 6425TIP3   OH240833   0.367   1.712   8.734  0.3586  0.1371 -0.5922
 6425TIP3    H140834   0.347   1.687   8.824 -0.4150  0.2649 -0.7220
 6425TIP3    H240835   0.449   1.762   8.741  0.0175  0.6175  0.1078
 6426TIP3   OH240836   3.748   0.986   2.465  0.2952  0.4371 -0.2849
 6426TIP3    H140837   3.794   1.013   2.545 -0.8569 -0.2307  0.6349
 6426TIP3    H240838   3.753   0.891   2.465 -0.6405  0.3763 -0.4305
 6427TIP3   OH240839   5.355   2.301   0.823 -0.7240 -0.1364  0.2652
 6427TIP3    H140840   5.346   2.285   0.917 -0.3870 -4.8620 -0.2704
 6427TIP3    H240841   5.448   2.286   0.805 -0.5927  1.6186 -0.7966
 6428TIP3   OH240842   0.671   5.328   8.142  0.1915  0.0489  0.4391
 6428TIP3    H140843   0.739   5.266   8.167 -0.4944 -0.2939  1.5330
 6428TIP3    H240844   0.654   5.310   8.050  2.8430  1.3703 -0.4125
 6429TIP3   OH240845   0.151   6.217   1.414 -0.2211 -0.3550 -0.4989
 6429TIP3    H140846   0.143   6.272   1.336  0.6987  1.4216  0.5832
 6429TIP3    H240847   0.235   6.172   1.403  0.9937  1.5630  0.3931
 6430TIP3   OH240848   5.743   0.183   8.508  0.5032  0.3947  0.1606
 6430TIP3    H140849   5.696   0.123   8.450 -1.6231  0.9727  1.1931
 6430TIP3    H240850   5.772   0.128   8.581 -3.7318  0.8166  2.4750
 6431TIP3   OH240851   0.671   1.077   1.329  1.1151  0.3867 -0.0108
 6431TIP3    H140852   0.644   1.157   1.375 -3.4647 -1.1211  0.5055
 6431TIP3    H240853   0.627   1.007   1.377  0.5216 -1.8557 -3.4819
 6432TIP3   OH240854   0.867   4.326   6.955 -0.1944  0.0799  0.0280
 6432TIP3    H140855   0.790   4.314   7.012  1.0156  1.9506  2.2074
 6432TIP3    H240856   0.870   4.420   6.938 -0.0189 -0.3270 -2.5636
 6433TIP3   OH240857   1.213   2.508   0.072 -0.0769  0.0368 -0.7226
 6433TIP3    H140858   1.183   2.456  -0.004 -0.5517 -1.0902  0.2036
 6433TIP3    H240859   1.175   2.463   0.147 -0.4047  1.6960  0.1391
 6434TIP3   OH240860   6.675   4.735   1.914  0.3263 -0.1624  0.1683
 6434TIP3    H140861   6.614   4.681   1.864  1.1025 -0.7368 -0.1958
 6434TIP3    H240862   6.760   4.721   1.871  0.2744  2.7726 -1.0948
 6435TIP3   OH240863   1.921   1.615   8.371  0.4658  0.0637  0.2552
 6435TIP3    H140864   1.844   1.667   8.345  0.9299  0.7859  0.2905
 6435TIP3    H240865   1.886   1.529   8.393 -0.3829  0.4990  0.6421
 6436TIP3   OH240866   0.921   3.646   1.192 -0.1523 -0.0404 -0.2483
 6436TIP3    H140867   0.858   3.661   1.262  1.6808  0.4995  1.3554
 6436TIP3    H240868   0.884   3.572   1.143 -0.2716 -2.2571  2.8780
 6437TIP3   OH240869   3.164   5.981   0.473 -0.6173 -0.4037 -0.9654
 6437TIP3    H140870   3.225   5.983   0.547 -2.3094  1.6950  0.4772
 6437TIP3    H240871   3.164   6.070   0.439 -0.4433 -1.1482 -3.0961
 6438TIP3   OH240872   5.549   0.690   7.708  0.3305 -0.4465 -0.7674
 6438TIP3    H140873   5.592   0.721   7.628 -0.3568 -1.3760 -1.5273
 6438TIP3    H240874   5.594   0.736   7.779  1.2217  0.1016 -1.6565
 6439TIP3   OH240875   0.202   3.483   7.807  0.0748  0.4474 -0.1934
 6439TIP3    H140876   0.191   3.577   7.793  1.2809  0.5483 -0.5385
 6439TIP3    H240877   0.262   3.455   7.738 -0.5495 -0.6548 -0.3196
 6440TIP3   OH240878   0.225   2.193   1.166  0.0575  0.2567 -0.4161
 6440TIP3    H140879   0.307   2.231   1.197 -0.6219  1.4151  0.0079
 6440TIP3    H240880   0.249   2.104   1.139  1.6131  0.8638 -1.1448
 6441TIP3   OH240881   3.035   3.104   2.541  0.1237 -0.4862 -0.8865
 6441TIP3    H140882   3.020   3.046   2.467  0.1462 -1.9399  0.1893
 6441TIP3    H240883   3.077   3.048   2.607 -0.6073  0.5306  0.5048
 6442TIP3   OH240884   1.449   3.924   8.444 -0.1327 -0.7229  0.1014
 6442TIP3    H140885   1.356   3.915   8.461 -0.2520 -1.1939 -0.7037
 6442TIP3    H240886   1.491   3.913   8.529 -0.7239 -2.1313  0.2454
 6443TIP3   OH240887   0.767   3.272   8.164  0.1338  0.3097  0.1039
 6443TIP3    H140888   0.855   3.256   8.130 -0.4049 -1.1662 -0.6968
 6443TIP3    H240889   0.725   3.327   8.098 -0.5139 -1.5537 -1.1261
 6444TIP3   OH240890   0.912   4.677   7.198  0.3867 -0.3543 -0.4807
 6444TIP3    H140891   0.828   4.638   7.223  0.2557 -0.7004 -1.4434
 6444TIP3    H240892   0.912   4.762   7.242 -0.8658  0.0281 -1.1636
 6445TIP3   OH240893   4.723   0.417   8.233 -0.4683  0.4102  0.2703
 6445TIP3    H140894   4.767   0.429   8.149 -1.3855  2.0524 -0.0378
 6445TIP3    H240895   4.696   0.326   8.234  1.4533 -0.2025 -0.2366
 6446TIP3   OH240896   2.329   4.299   0.956 -0.3170 -0.7443 -0.1402
 6446TIP3    H140897   2.320   4.330   0.866  0.1215 -1.2944 -0.3799
 6446TIP3    H240898   2.418   4.262   0.959 -0.5237 -1.2057  0.3676
 6447TIP3   OH240899   1.192   2.894   0.279  0.1149  0.7328  0.0136
 6447TIP3    H140900   1.118   2.893   0.219  0.1269  0.5616  0.0017
 6447TIP3    H240901   1.221   2.803   0.283  0.7968  0.9071 -0.5717
 6448TIP3   OH240902   2.087   4.077   0.147 -0.1306 -0.1030 -0.0116
 6448TIP3    H140903   2.079   4.024   0.068 -2.9934  2.7573 -1.9207
 6448TIP3    H240904   2.170   4.123   0.137  0.3251 -0.9980 -0.4909
 6449TIP3   OH240905   3.353   6.293   8.211  0.1470  0.0806  0.1953
 6449TIP3    H140906   3.396   6.275   8.128 -3.0796  1.9855 -2.1391
 6449TIP3    H240907   3.362   6.388   8.223  0.8266 -0.1869  2.2718
 6450TIP3   OH240908   5.431   2.024   8.195  0.4326 -0.5496  0.3010
 6450TIP3    H140909   5.447   1.937   8.158 -0.8416 -0.2105 -1.1670
 6450TIP3    H240910   5.498   2.079   8.155 -1.0679 -0.1421 -1.8008
 6451TIP3   OH240911   2.322   2.912   1.223 -0.0664  0.2715 -0.4370
 6451TIP3    H140912   2.304   2.884   1.133  0.2925  3.0475 -1.4622
 6451TIP3    H240913   2.238   2.904   1.268  0.0462 -2.4728 -0.5421
 6452TIP3   OH240914   1.874   0.603   7.815 -0.4193  0.2579  0.0592
 6452TIP3    H140915   1.925   0.547   7.756 -1.9940 -1.8241  0.5832
 6452TIP3    H240916   1.921   0.600   7.898 -1.5989 -2.2482  0.7558
 6453TIP3   OH240917   2.217   5.275   0.714  0.3911 -0.1260 -0.3241
 6453TIP3    H140918   2.310   5.253   0.717  0.2250 -0.7570  1.3162
 6453TIP3    H240919   2.208   5.331   0.637  2.6002  2.1243  0.8961
 6454TIP3   OH240920   5.607   1.571   0.945  0.5387 -0.2702  0.0016
 6454TIP3    H140921   5.657   1.523   0.878  1.6067  1.1562 -0.2652
 6454TIP3    H240922   5.657   1.651   0.959 -2.0114  1.5699 -0.7708
 6455TIP3   OH240923   4.336   2.910   0.613 -0.6667  0.3758  0.0152
 6455TIP3    H140924   4.408   2.884   0.671  0.7399  1.5480 -1.1364
 6455TIP3    H240925   4.261   2.921   0.672 -0.4169 -2.4680  1.0441
 6456TIP3   OH240926   4.859   3.860   1.794 -0.4753 -0.6306  0.8619
 6456TIP3    H140927   4.810   3.936   1.826  2.2291  2.2316 -1.0409
 6456TIP3    H240928   4.808   3.829   1.719 -0.8913  0.3151  0.7371
 6457TIP3   OH240929   3.671   1.820   1.624 -0.0289 -0.0253 -0.2153
 6457TIP3    H140930   3.733   1.806   1.696 -0.5700  1.7304  0.6511
 6457TIP3    H240931   3.720   1.873   1.561  0.6409 -2.0502 -1.4935
 6458TIP3   OH240932   6.662   2.602   1.301  0.6984 -0.2456 -0.1871
 6458TIP3    H140933   6.681   2.619   1.209  0.1722  1.0034 -0.0843
 6458TIP3    H240934   6.572   2.569   1.300 -0.0204  1.5733  0.0049
 6459TIP3   OH240935   2.040   4.333   0.335 -0.7865 -0.1678  0.0364
 6459TIP3    H140936   2.127   4.305   0.363 -0.8822 -1.8855 -1.2054
 6459TIP3    H240937   1.980   4.277   0.385 -1.2408  1.3084  1.2194
 6460TIP3   OH240938   1.366   1.216   1.223 -0.5138 -0.6592  0.3042
 6460TIP3    H140939   1.307   1.259   1.285 -0.2155  0.0715  0.0817
 6460TIP3    H240940   1.309   1.193   1.149 -0.4895  0.2354 -0.0042
 6461TIP3   OH240941   4.028   6.553   1.537  0.1267 -0.7459  0.4887
 6461TIP3    H140942   4.021   6.531   1.444 -0.3416  0.5851  0.1916
 6461TIP3    H240943   3.998   6.644   1.543  1.4409 -0.3441  1.7377
 6462TIP3   OH240944   4.470   2.372   1.829 -0.2744  0.1316  0.0602
 6462TIP3    H140945   4.478   2.277   1.831 -0.6021  0.0882 -0.5880
 6462TIP3    H240946   4.532   2.402   1.896 -0.1460 -0.5312  0.2481
 6463TIP3   OH240947   5.742   2.166   7.150 -0.1587 -0.1059 -0.2370
 6463TIP3    H140948   5.779   2.182   7.063  0.6141 -1.2692 -0.1422
 6463TIP3    H240949   5.660   2.215   7.150 -0.5527 -0.6870 -1.9063
 6464TIP3   OH240950   1.906   4.888   2.016  0.0681  0.2348 -0.0608
 6464TIP3    H140951   1.881   4.796   2.008  0.3343  0.0325  1.2499
 6464TIP3    H240952   1.998   4.886   2.043  0.1732  0.8870 -0.3605
 6465TIP3   OH240953   5.738   4.764   7.913 -0.7943 -0.3856 -0.7368
 6465TIP3    H140954   5.714   4.673   7.897 -0.7312 -0.7914  1.2641
 6465TIP3    H240955   5.794   4.787   7.839  0.0633 -2.3135 -0.7523
 6466TIP3   OH240956   6.783   3.699   7.945 -0.0330 -0.1358  0.2466
 6466TIP3    H140957   6.802   3.609   7.974 -0.4776 -0.1106  0.6222
 6466TIP3    H240958   6.799   3.752   8.023  0.0644  0.0972  0.0692
 6467TIP3   OH240959   6.638   2.094   0.941  0.0516 -0.3509 -0.0840
 6467TIP3    H140960   6.708   2.150   0.909  2.0108 -2.2878  0.5758
 6467TIP3    H240961   6.570   2.154   0.971  1.6006  1.6089 -0.3470
 6468TIP3   OH240962   5.651   1.459   8.407 -0.1408 -0.1933 -0.0642
 6468TIP3    H140963   5.676   1.369   8.427  0.1472 -0.3031 -0.8749
 6468TIP3    H240964   5.566   1.451   8.362 -1.4951  0.1448  2.2560
 6469TIP3   OH240965   6.076   1.981   1.456  0.4816 -0.0968 -0.9275
 6469TIP3    H140966   6.121   2.065   1.467  1.5247 -0.6140 -1.1497
 6469TIP3    H240967   6.080   1.940   1.542  0.2630 -0.0775 -0.9052
 6470TIP3   OH240968   1.616   1.424   0.127 -0.2611 -0.3213 -0.4730
 6470TIP3    H140969   1.553   1.357   0.101  0.5608 -0.7351 -1.4693
 6470TIP3    H240970   1.628   1.411   0.221 -1.9706  0.0604 -0.1686
 6471TIP3   OH240971   1.788   1.145   7.716  0.0915  0.3403  0.1289
 6471TIP3    H140972   1.849   1.103   7.777 -0.5553 -1.0729 -0.1617
 6471TIP3    H240973   1.809   1.106   7.631 -1.2479 -0.2261  0.0359
 6472TIP3   OH240974   6.790   4.453   2.597  0.7552 -0.4453 -0.0775
 6472TIP3    H140975   6.781   4.537   2.643  0.8975 -0.3081 -0.2946
 6472TIP3    H240976   6.723   4.397   2.635  1.3693 -0.5769  0.8375
 6473TIP3   OH240977   2.860   3.280   8.361  0.6306 -0.3609  0.3261
 6473TIP3    H140978   2.866   3.348   8.294  0.7170 -2.2235 -1.6879
 6473TIP3    H240979   2.951   3.261   8.384  0.6742 -0.7948 -0.1980
 6474TIP3   OH240980   3.851   6.714   0.838  0.3790 -0.5101 -0.1258
 6474TIP3    H140981   3.813   6.798   0.811  0.5420 -0.7673 -1.2131
 6474TIP3    H240982   3.944   6.722   0.817  0.0080 -1.8554 -2.7085
 6475TIP3   OH240983   5.519   5.984   8.019 -0.0274  0.9952  0.4725
 6475TIP3    H140984   5.564   6.059   7.980 -0.0701 -0.1960 -2.0949
 6475TIP3    H240985   5.426   6.000   8.001 -0.1107  0.7070  0.6297
 6476TIP3   OH240986   1.592   4.888   1.508  0.6376 -0.1430 -0.3437
 6476TIP3    H140987   1.510   4.844   1.530  0.2541  0.7860  0.1670
 6476TIP3    H240988   1.634   4.906   1.592  0.9209  0.2102 -0.5549
 6477TIP3   OH240989   5.057   0.340   2.121  0.5223  0.9058  0.1253
 6477TIP3    H140990   5.053   0.419   2.066 -0.4265  0.9408  0.2380
 6477TIP3    H240991   5.111   0.366   2.195  2.3763  0.6697 -1.0722
 6478TIP3   OH240992   4.411   1.831   2.639  0.0637 -0.1760 -0.9494
 6478TIP3    H140993   4.361   1.763   2.683  0.5974 -1.6146 -2.4736
 6478TIP3    H240994   4.497   1.829   2.681 -0.7550  1.6149  0.9854
 6479TIP3   OH240995   4.035   3.075   2.097  0.2473 -0.2176  0.0982
 6479TIP3    H140996   4.077   3.122   2.170  0.2104 -0.3701  0.2183
 6479TIP3    H240997   3.944   3.066   2.124  0.1406  0.0859 -0.1497
 6480TIP3   OH240998   0.916   1.481   1.607  0.0381  0.1034  0.0978
 6480TIP3    H140999   0.965   1.494   1.688 -0.0758  0.0193  0.1798
 6480TIP3    H241000   0.973   1.517   1.539  0.3017 -0.1811  0.1701
 6481TIP3   OH241001   3.472   1.554   0.470  0.4632  0.2993  0.6284
 6481TIP3    H141002   3.474   1.459   0.469 -0.6498  0.2606 -0.5364
 6481TIP3    H241003   3.380   1.576   0.456  0.9400  1.5424 -0.8214
 6482TIP3   OH241004   1.365   0.019   2.020  0.6634  0.5327 -0.5921
 6482TIP3    H141005   1.413  -0.038   1.960 -0.4049 -1.8023  0.6663
 6482TIP3    H241006   1.382  -0.017   2.107 -4.0629 -1.1267 -0.1147
 6483TIP3   OH241007   2.702   0.751   1.443 -0.0860 -0.1645  0.2023
 6483TIP3    H141008   2.708   0.845   1.427  2.7343 -0.3896 -0.5298
 6483TIP3    H241009   2.703   0.743   1.538  0.5939  0.5226  0.2586
 6484TIP3   OH241010   2.903   0.390   0.224 -0.0928 -0.0053 -0.1706
 6484TIP3    H141011   2.980   0.393   0.167  0.0767  1.0279  0.1033
 6484TIP3    H241012   2.845   0.326   0.181 -0.4753  1.5605 -2.1496
 6485TIP3   OH241013   3.121   3.572   0.026  0.0043 -0.2196  0.1702
 6485TIP3    H141014   3.184   3.515   0.069 -0.5500 -0.3746  0.8001
 6485TIP3    H241015   3.119   3.651   0.081 -0.3592 -0.2289  0.1771
 6486TIP3   OH241016   1.213   6.147   1.004 -0.4601  0.3319  0.3734
 6486TIP3    H141017   1.121   6.127   1.020  0.0053 -1.3675  1.2121
 6486TIP3    H241018   1.212   6.230   0.956 -2.3807  0.6470  0.8823
 6487TIP3   OH241019   3.030   0.887   0.550 -0.2584 -0.0701  1.1369
 6487TIP3    H141020   3.019   0.914   0.641 -1.5913 -0.8453  1.2294
 6487TIP3    H241021   3.083   0.808   0.554 -2.9908 -2.0388  1.6031
 6488TIP3   OH241022   6.098   6.502   0.118 -0.1444 -0.4090 -0.1506
 6488TIP3    H141023   6.032   6.436   0.138 -0.4300 -1.5484 -4.0385
 6488TIP3    H241024   6.052   6.586   0.131 -0.8366 -1.0129  1.5953
 6489TIP3   OH241025   1.852   4.166   1.728  0.3176  0.5865 -0.0163
 6489TIP3    H141026   1.915   4.137   1.794 -1.7171 -1.0305  1.3231
 6489TIP3    H241027   1.769   4.172   1.775 -0.7980  1.4160 -1.9953
 6490TIP3   OH241028   0.857   1.666   7.624 -0.1469  0.0385 -0.0294
 6490TIP3    H141029   0.854   1.643   7.531  2.3505  0.8549 -0.3904
 6490TIP3    H241030   0.841   1.583   7.670 -2.7798 -0.1438 -1.0908
 6491TIP3   OH241031   1.940   2.406   2.998  0.6644  0.3166  0.3055
 6491TIP3    H141032   2.021   2.410   3.047  0.2493 -0.9072  1.1217
 6491TIP3    H241033   1.956   2.340   2.930  0.2629 -0.1764  0.6786
 6492TIP3   OH241034   5.528   3.892   1.915 -0.9067  0.2734  0.2173
 6492TIP3    H141035   5.521   3.983   1.945  0.8907  0.2122  1.0098
 6492TIP3    H241036   5.590   3.852   1.977  0.8928 -0.6068 -1.9894
 6493TIP3   OH241037   2.143   0.631   8.521 -0.1920  0.1620 -0.5124
 6493TIP3    H141038   2.205   0.674   8.462  0.3527  2.6947  1.6896
 6493TIP3    H241039   2.082   0.586   8.463  1.6389  0.5162 -2.8867
 6494TIP3   OH241040   5.818   6.160   1.807 -0.1859 -0.0727  0.6139
 6494TIP3    H141041   5.803   6.149   1.714 -0.4633  0.5838  0.5772
 6494TIP3    H241042   5.866   6.242   1.815  2.4830 -1.5478  0.8232
 6495TIP3   OH241043   3.199   4.392   7.004  0.0356  0.1453  0.6072
 6495TIP3    H141044   3.270   4.420   7.063  1.3117  0.0435 -0.8161
 6495TIP3    H241045   3.166   4.474   6.967  0.1547  0.1194  0.4450
 6496TIP3   OH241046   5.192   4.214   0.818  0.2053 -0.6443  0.1360
 6496TIP3    H141047   5.215   4.207   0.725  2.0139  0.0957  0.4949
 6496TIP3    H241048   5.267   4.176   0.864  0.9682  2.1234  1.3903
 6497TIP3   OH241049   4.977   5.882   0.565 -0.1347 -0.0041 -0.0882
 6497TIP3    H141050   4.905   5.827   0.534  0.6666  0.5038 -3.1964
 6497TIP3    H241051   5.055   5.846   0.522  1.4413 -0.1095  2.6428
 6498TIP3   OH241052   0.740   1.628   0.667  0.4413  0.3996 -0.3373
 6498TIP3    H141053   0.754   1.548   0.719  2.2867  0.8102 -0.1310
 6498TIP3    H241054   0.785   1.696   0.717  1.6382  0.9485 -2.1017
 6499TIP3   OH241055   2.949   6.283   7.094 -0.3104 -0.0085  0.2704
 6499TIP3    H141056   2.871   6.324   7.130 -1.0476  0.3595 -1.6532
 6499TIP3    H241057   2.958   6.319   7.006 -0.6601 -3.4409 -1.3308
 6500TIP3   OH241058   1.550   5.880   2.403  0.0409  0.2092  0.1329
 6500TIP3    H141059   1.617   5.812   2.414  0.3661  0.3923 -0.7056
 6500TIP3    H241060   1.487   5.862   2.474 -0.0226 -1.1406 -0.2288
 6501TIP3   OH241061   3.710   4.735   8.061 -0.2621  0.5514  0.3467
 6501TIP3    H141062   3.784   4.719   8.119  0.1423  0.7180 -0.1119
 6501TIP3    H241063   3.725   4.677   7.986  1.6052  3.3549 -1.6963
 6502TIP3   OH241064   3.706   0.278   3.097  0.8052  0.7599  0.2148
 6502TIP3    H141065   3.610   0.281   3.104  0.8909  1.9323  1.1584
 6502TIP3    H241066   3.730   0.362   3.059  1.5168  0.8662  0.8710
 6503TIP3   OH241067   1.906   2.650   2.473 -0.0476  0.2361 -0.4384
 6503TIP3    H141068   1.934   2.655   2.564 -0.0687  1.0696 -0.4716
 6503TIP3    H241069   1.870   2.737   2.454  1.1397  0.4957 -1.6175
 6504TIP3   OH241070   4.513   3.957   1.765 -0.0133 -0.2619  0.2342
 6504TIP3    H141071   4.530   4.039   1.718 -0.0636 -0.1514  0.4056
 6504TIP3    H241072   4.449   3.911   1.709 -2.7922  1.4004  1.7963
 6505TIP3   OH241073   3.537   1.189   1.187  0.2000 -0.4854 -0.5869
 6505TIP3    H141074   3.516   1.099   1.161 -1.2193 -0.2328 -0.4263
 6505TIP3    H241075   3.471   1.210   1.253  1.5043  0.1442  0.5608
 6506TIP3   OH241076   0.416   6.646   0.959  0.5051  0.0028 -0.4405
 6506TIP3    H141077   0.441   6.556   0.978  1.7678  0.3086 -0.5676
 6506TIP3    H241078   0.399   6.685   1.045 -1.9837 -0.8467 -0.4691
 6507TIP3   OH241079   6.755   1.763   2.182  0.0070 -0.6854 -0.4342
 6507TIP3    H141080   6.737   1.682   2.136 -0.0057 -0.6410 -0.5071
 6507TIP3    H241081   6.797   1.735   2.263 -1.4250 -0.8651  0.2838
 6508TIP3   OH241082   1.229   2.208   2.687  0.9100  0.2266  0.6160
 6508TIP3    H141083   1.322   2.198   2.704  1.0346  2.5592  1.6440
 6508TIP3    H241084   1.196   2.260   2.760 -0.9962  0.3413 -0.2545
 6509TIP3   OH241085   6.149   6.211   8.207  0.3517 -0.2594  0.7670
 6509TIP3    H141086   6.061   6.242   8.231  0.7717  1.5594  0.1222
 6509TIP3    H241087   6.147   6.206   8.111  0.6104 -1.3765  0.8034
 6510TIP3   OH241088   0.398   0.529   2.413 -0.2279 -0.3822 -0.0912
 6510TIP3    H141089   0.364   0.582   2.484  0.6614 -0.7039  0.5937
 6510TIP3    H241090   0.475   0.577   2.382  0.2810 -1.0015  0.1938
 6511TIP3   OH241091   1.913   1.772   7.048 -0.3441  0.8993  0.7547
 6511TIP3    H141092   1.887   1.680   7.040  1.4732  0.4994 -1.6442
 6511TIP3    H241093   1.858   1.818   6.984  0.0490  1.1796  0.6154
 6512TIP3   OH241094   0.079   2.577   2.053 -0.0340 -0.2255  0.3231
 6512TIP3    H141095   0.039   2.610   2.134 -0.8781 -1.7888  0.5838
 6512TIP3    H241096   0.059   2.644   1.988 -0.8834  0.2331  1.0299
 6513TIP3   OH241097   5.860   5.975   8.329  0.4020 -0.3121 -0.4421
 6513TIP3    H141098   5.841   5.935   8.413  0.9201  0.8431  0.2492
 6513TIP3    H241099   5.875   6.067   8.348  0.9293 -0.0936 -1.7389
 6514TIP3   OH241100   6.066   0.889   7.158 -0.2026 -0.3121 -0.1041
 6514TIP3    H141101   5.984   0.848   7.132 -0.9533  0.6136  0.7497
 6514TIP3    H241102   6.092   0.941   7.082 -1.4803  1.0041  0.3206
 6515TIP3   OH241103   6.074   2.290   2.039 -0.2908 -0.3944 -0.7495
 6515TIP3    H141104   6.076   2.207   2.085  0.6876 -0.2490 -0.5045
 6515TIP3    H241105   6.162   2.327   2.051 -1.3673  1.7869  1.1763
 6516TIP3   OH241106   2.632   0.129   8.093 -0.3726 -0.2086 -0.6620
 6516TIP3    H141107   2.540   0.113   8.117 -0.7451  0.0850 -1.8219
 6516TIP3    H241108   2.632   0.218   8.058  0.7617  0.5790  1.2459
 6517TIP3   OH241109   5.356   5.716   8.102 -0.1790  0.1402 -0.7699
 6517TIP3    H141110   5.337   5.670   8.184 -0.7251  0.4519 -0.7121
 6517TIP3    H241111   5.334   5.653   8.034  1.0005 -0.3900 -0.6789
 6518TIP3   OH241112   5.468   5.148   6.795  0.8748 -0.0486  0.0766
 6518TIP3    H141113   5.517   5.219   6.755  0.4682  0.7321  0.9367
 6518TIP3    H241114   5.386   5.188   6.824 -0.4333 -1.3844 -1.5863
 6519TIP3   OH241115   6.306   5.496   0.735 -0.1975  0.1487  0.1407
 6519TIP3    H141116   6.295   5.401   0.725  0.0693  0.1104  0.1875
 6519TIP3    H241117   6.264   5.516   0.819  2.0870 -0.3794  1.5066
 6520TIP3   OH241118   1.551   5.274   0.528  0.5559  0.1619  0.0527
 6520TIP3    H141119   1.476   5.230   0.567 -1.0830  2.9675  0.3225
 6520TIP3    H241120   1.531   5.277   0.435 -1.3358  3.5569  0.4252
 6521TIP3   OH241121   5.033   4.805   8.403  0.5142 -0.0119 -0.2716
 6521TIP3    H141122   5.113   4.755   8.392 -0.1636 -1.4046  0.8211
 6521TIP3    H241123   5.057   4.879   8.458  1.2161  0.0704 -0.6808
 6522TIP3   OH241124   1.605   4.799   2.223  0.5245 -0.4740 -0.0306
 6522TIP3    H141125   1.657   4.877   2.244 -0.0633 -0.0617 -0.0905
 6522TIP3    H241126   1.669   4.736   2.189  0.8290  0.4481 -1.2428
 6523TIP3   OH241127   5.325   2.603   0.500 -0.4557  0.1744  0.8752
 6523TIP3    H141128   5.354   2.680   0.550  2.1439  0.3074 -0.6779
 6523TIP3    H241129   5.268   2.640   0.432 -2.3687  0.2111  2.4096
 6524TIP3   OH241130   2.061   5.653   1.872 -0.1918 -0.3810 -0.3956
 6524TIP3    H141131   2.075   5.738   1.829 -0.2382  0.7453  1.6570
 6524TIP3    H241132   2.149   5.623   1.894 -0.2320 -0.1953  0.0399
 6525TIP3   OH241133   0.016   0.554   1.614 -0.0225 -0.5535  0.0840
 6525TIP3    H141134  -0.051   0.493   1.584 -0.6032  0.1413 -0.0423
 6525TIP3    H241135   0.075   0.500   1.668 -0.8261 -1.1171  0.4126
 6526TIP3   OH241136   2.327   2.663   6.573 -0.1318  0.2211  0.2164
 6526TIP3    H141137   2.281   2.634   6.494  2.3050  0.4871 -1.4326
 6526TIP3    H241138   2.310   2.758   6.576 -1.0365  0.0561  0.6117
 6527TIP3   OH241139   2.301   5.444   1.366 -0.6119  0.5554 -0.2698
 6527TIP3    H141140   2.263   5.463   1.281 -2.0451  1.5614  0.5511
 6527TIP3    H241141   2.347   5.525   1.390  0.7039 -0.0887 -0.5343
 6528TIP3   OH241142   4.363   3.228   0.277 -0.0315  0.0373  0.6026
 6528TIP3    H141143   4.317   3.312   0.285 -0.6710 -0.0844 -1.2144
 6528TIP3    H241144   4.412   3.236   0.195 -0.0980 -1.3719  0.4110
 6529TIP3   OH241145   0.744   3.701   2.725 -0.4389  0.3401  0.0627
 6529TIP3    H141146   0.672   3.715   2.664  0.3317 -0.6915 -1.1467
 6529TIP3    H241147   0.708   3.646   2.794 -0.3837 -1.9553 -1.5961
 6530TIP3   OH241148   6.583   6.016   0.012 -0.0633 -0.5997 -0.3140
 6530TIP3    H141149   6.630   5.976   0.086  1.2507  0.0734 -0.7587
 6530TIP3    H241150   6.491   5.999   0.031  0.1734  0.2259  1.9133
 6531TIP3   OH241151   4.724   3.284   7.048 -0.5189 -0.2574 -0.2777
 6531TIP3    H141152   4.811   3.256   7.074  0.1557  0.1604 -1.9183
 6531TIP3    H241153   4.670   3.274   7.126  0.7101 -1.7231  0.4244
 6532TIP3   OH241154   2.822   3.297   1.139  0.3954  0.1245 -0.0068
 6532TIP3    H141155   2.787   3.281   1.051  0.2843 -1.4634  0.2958
 6532TIP3    H241156   2.886   3.367   1.127 -0.7325  1.0257 -1.0738
 6533TIP3   OH241157   0.619   5.382   8.549 -0.4783  0.3130  0.2702
 6533TIP3    H141158   0.631   5.453   8.613 -0.2340 -0.6386  1.2986
 6533TIP3    H241159   0.667   5.308   8.586 -1.1808 -0.5624 -0.5288
 6534TIP3   OH241160   2.276   0.890   1.143 -0.3376 -0.0795  0.2501
 6534TIP3    H141161   2.303   0.861   1.231  2.3544  0.9495 -0.1231
 6534TIP3    H241162   2.271   0.985   1.150  0.3122  0.0437 -0.7732
 6535TIP3   OH241163   4.696   6.777   2.471  0.1394  0.3332  0.2027
 6535TIP3    H141164   4.774   6.782   2.527 -0.3452 -1.7406  1.1982
 6535TIP3    H241165   4.723   6.813   2.387  2.5624 -1.3683  0.1578
 6536TIP3   OH241166   3.304   2.113   2.151  0.0818 -0.4727 -0.2282
 6536TIP3    H141167   3.224   2.093   2.200 -0.4052  1.1244 -0.3226
 6536TIP3    H241168   3.274   2.155   2.071  1.0052  0.1464 -0.2674
 6537TIP3   OH241169   3.256   1.694   0.787  0.3342  0.5867  0.4003
 6537TIP3    H141170   3.255   1.702   0.883  1.2454  1.1936  0.3732
 6537TIP3    H241171   3.345   1.664   0.767 -0.2874 -1.0054 -0.1726
 6538TIP3   OH241172   6.241   5.482   7.542  0.3011 -0.4131 -0.1685
 6538TIP3    H141173   6.219   5.500   7.634  0.9138 -1.2067  0.1394
 6538TIP3    H241174   6.296   5.404   7.545  2.0956  0.7499 -1.0343
 6539TIP3   OH241175   6.328   1.410   7.704  0.1132  0.0105 -0.2852
 6539TIP3    H141176   6.307   1.433   7.794 -0.2914  0.1108 -0.4022
 6539TIP3    H241177   6.391   1.339   7.711 -1.5256 -1.4557  0.0842
 6540TIP3   OH241178   4.726   5.269   8.561 -0.2988  0.0189 -0.2405
 6540TIP3    H141179   4.812   5.229   8.575  0.0093  0.8910  0.4742
 6540TIP3    H241180   4.726   5.346   8.618 -0.8549  1.0728 -1.6068
 6541TIP3   OH241181   2.276   2.283   1.945 -0.1538  0.1450  0.1400
 6541TIP3    H141182   2.247   2.342   2.015 -1.1747  0.2992 -0.3904
 6541TIP3    H241183   2.370   2.299   1.939 -0.3347  1.4433  0.2866
 6542TIP3   OH241184   5.715   1.002   0.933  0.2946  0.3308 -0.0374
 6542TIP3    H141185   5.716   1.078   0.990 -2.3631  0.6292 -0.2678
 6542TIP3    H241186   5.737   1.036   0.846  1.3064  0.4065  0.2339
 6543TIP3   OH241187   6.533   6.656   0.117 -0.0598  0.1505 -0.7741
 6543TIP3    H141188   6.569   6.624   0.035  1.3277  0.0456 -0.1559
 6543TIP3    H241189   6.609   6.691   0.165 -1.1471  2.1393 -0.3945
 6544TIP3   OH241190   6.631   6.179   7.797  0.0204 -0.4003 -0.1047
 6544TIP3    H141191   6.640   6.213   7.886  0.0778  1.0043 -0.6236
 6544TIP3    H241192   6.606   6.087   7.809 -2.0998  0.2812  1.4012
 6545TIP3   OH241193   6.547   2.917   0.352  0.0126  0.2542  0.6761
 6545TIP3    H141194   6.512   2.901   0.439 -1.0327  1.5727  0.5349
 6545TIP3    H241195   6.637   2.944   0.367  1.3850 -3.8361  1.0108
 6546TIP3   OH241196   4.255   5.344   1.309 -0.6180  0.5432  0.2354
 6546TIP3    H141197   4.262   5.284   1.383 -0.2238  0.8404  0.4385
 6546TIP3    H241198   4.254   5.286   1.232 -0.9352  0.2428  0.4640
 6547TIP3   OH241199   3.776   5.220   2.304  0.5873 -0.4637  0.0855
 6547TIP3    H141200   3.701   5.271   2.333  0.9806  0.7805 -0.9710
 6547TIP3    H241201   3.842   5.234   2.372  0.3576 -0.3846  0.2953
 6548TIP3   OH241202   1.274   5.792   0.150 -0.1508  0.3486 -0.3573
 6548TIP3    H141203   1.321   5.875   0.156  1.4831 -0.6124  1.1298
 6548TIP3    H241204   1.183   5.815   0.169  0.3925  1.6932  0.8281
 6549TIP3   OH241205   4.005   4.420   0.389 -0.1500  0.1340  0.2224
 6549TIP3    H141206   4.015   4.341   0.337  0.3960  0.7032 -0.5511
 6549TIP3    H241207   4.020   4.492   0.328  0.3094  0.8211  1.1121
 6550TIP3   OH241208   5.501   0.823   2.135  0.2109 -0.3101  0.6334
 6550TIP3    H141209   5.504   0.914   2.107  3.0404 -1.1752 -2.6871
 6550TIP3    H241210   5.422   0.788   2.094  1.9101 -0.4239 -2.9602
 6551TIP3   OH241211   4.829   3.410   6.685  0.2790  0.3411  0.1186
 6551TIP3    H141212   4.903   3.351   6.701 -0.8218 -0.9205  0.7598
 6551TIP3    H241213   4.827   3.467   6.762  1.6604  1.6363 -0.7352
 6552TIP3   OH241214   0.069   6.566   2.930  0.6771  0.4223 -0.2656
 6552TIP3    H141215   0.156   6.539   2.960 -0.0989 -2.8655 -0.5424
 6552TIP3    H241216   0.085   6.621   2.854  2.6474 -2.6659 -2.3179
 6553TIP3   OH241217   2.536   1.157   8.831  0.1575  0.6324 -0.5189
 6553TIP3    H141218   2.615   1.136   8.780  0.7654  0.3030  0.5410
 6553TIP3    H241219   2.501   1.072   8.858 -0.7556  0.7595 -1.2401
 6554TIP3   OH241220   6.703   6.565   8.501 -0.0048 -0.0713  0.1238
 6554TIP3    H141221   6.759   6.593   8.429  0.2273 -0.0401  0.3175
 6554TIP3    H241222   6.640   6.636   8.511 -0.4819 -0.3932 -0.5183
 6555TIP3   OH241223   0.509   5.442   0.003 -0.1909 -0.1078  0.0706
 6555TIP3    H141224   0.557   5.455   0.084 -0.2091  0.5796 -0.0249
 6555TIP3    H241225   0.489   5.530  -0.028 -1.9785 -0.3858  0.3742
 6556TIP3   OH241226   1.696   1.712   1.568 -0.0165  0.1059  0.1940
 6556TIP3    H141227   1.744   1.731   1.488 -2.3930 -1.8385 -1.8327
 6556TIP3    H241228   1.659   1.796   1.595  0.6928  0.7574 -0.8188
 6557TIP3   OH241229   3.582   5.726   7.734 -0.2314 -0.3012  0.1682
 6557TIP3    H141230   3.536   5.801   7.772  1.3003  0.6519  0.2138
 6557TIP3    H241231   3.515   5.679   7.684 -0.9122  1.9867 -1.1818
 6558TIP3   OH241232   5.854   6.538   8.429  0.8425  0.1786 -0.4690
 6558TIP3    H141233   5.786   6.590   8.386  0.2936 -0.0217  0.1455
 6558TIP3    H241234   5.935   6.587   8.415  0.7341 -0.0282 -1.9800
 6559TIP3   OH241235   2.557   4.391   7.989 -0.2906 -0.7211  0.0695
 6559TIP3    H141236   2.627   4.429   7.936  0.0296 -0.2143  0.8359
 6559TIP3    H241237   2.510   4.334   7.929 -0.1916  0.1560 -0.8702
 6560TIP3   OH241238   1.376   5.505   8.420 -0.0247  0.4447 -0.3993
 6560TIP3    H141239   1.422   5.588   8.403  0.0644  0.1448 -1.6739
 6560TIP3    H241240   1.433   5.438   8.384 -1.5155  0.0757 -2.1938
 6561TIP3   OH241241   6.140   6.097   0.300  0.3626  0.2731 -0.1071
 6561TIP3    H141242   6.069   6.064   0.356  0.6196 -0.0282  0.0460
 6561TIP3    H241243   6.220   6.064   0.342  0.6020  0.7558 -0.1833
 6562TIP3   OH241244   1.582   0.232   2.242 -0.5421  0.3978 -0.0992
 6562TIP3    H141245   1.500   0.264   2.279 -0.4822 -1.1861  1.5140
 6562TIP3    H241246   1.641   0.224   2.317  0.9789  1.1315 -1.1735
 6563TIP3   OH241247   1.187   0.679   0.754  0.2526 -0.3754 -0.1337
 6563TIP3    H141248   1.205   0.729   0.834  0.4183 -0.2309 -0.2626
 6563TIP3    H241249   1.132   0.607   0.784  0.2849 -0.3024  0.1069
 6564TIP3   OH241250   3.587   5.574   0.840  0.2249  0.0009  0.3248
 6564TIP3    H141251   3.559   5.665   0.845  1.7119  0.5194 -0.0853
 6564TIP3    H241252   3.530   5.528   0.902 -1.6586  0.8842 -0.6738
 6565TIP3   OH241253   1.269   3.704   8.836  0.2574  0.1198  0.2589
 6565TIP3    H141254   1.245   3.658   8.756 -1.0444  0.9504  0.1444
 6565TIP3    H241255   1.351   3.663   8.863 -0.5906 -1.9483 -0.0863
 6566TIP3   OH241256   3.397   4.704   7.990  0.1306 -0.1366 -0.6383
 6566TIP3    H141257   3.376   4.796   8.006  1.1184 -0.1674  1.1379
 6566TIP3    H241258   3.487   4.705   7.958  0.7312 -0.5447  0.9494
 6567TIP3   OH241259   3.778   3.823   2.170 -0.2723  0.1763  0.3227
 6567TIP3    H141260   3.810   3.817   2.260  0.0964 -0.8834  0.1313
 6567TIP3    H241261   3.704   3.884   2.175 -0.3770 -0.0175  1.3798
 6568TIP3   OH241262   0.471   4.608   2.130  0.1189 -0.5992 -0.0270
 6568TIP3    H141263   0.446   4.700   2.125  1.5434 -0.2500 -1.4598
 6568TIP3    H241264   0.452   4.573   2.044  0.6816 -1.3352  0.1370
 6569TIP3   OH241265   2.460   1.754   8.476 -0.1502  0.1420  0.1741
 6569TIP3    H141266   2.533   1.695   8.458  0.6933  1.0270  0.6167
 6569TIP3    H241267   2.383   1.706   8.445  0.6607 -0.5903 -0.7862
 6570TIP3   OH241268   2.294   0.532   1.123  0.1443  0.5187  0.4568
 6570TIP3    H141269   2.221   0.479   1.152  0.3920  0.6771  1.4133
 6570TIP3    H241270   2.352   0.537   1.200  0.8363  0.9289 -0.0798
 6571TIP3   OH241271   5.275   4.509   0.902  0.1673  0.2760  0.9053
 6571TIP3    H141272   5.230   4.428   0.928  0.1830  0.4279  1.4191
 6571TIP3    H241273   5.353   4.479   0.856 -0.6977  0.0044 -0.4577
 6572TIP3   OH241274   1.466   2.259   0.208  0.1167  0.7762  0.0147
 6572TIP3    H141275   1.457   2.282   0.115  2.1652  0.3194 -0.3439
 6572TIP3    H241276   1.377   2.261   0.241 -0.8509 -0.2834 -2.2665
 6573TIP3   OH241277   1.236   1.514   0.255  0.2364  0.1784 -0.2379
 6573TIP3    H141278   1.308   1.567   0.222 -0.3941  0.4079 -1.2969
 6573TIP3    H241279   1.259   1.496   0.346  1.4883  0.4764 -0.4747
 6574TIP3   OH241280   5.828   3.970   0.517  0.5820  0.1508  0.2125
 6574TIP3    H141281   5.828   4.043   0.454 -0.0273  0.5602  0.6660
 6574TIP3    H241282   5.903   3.916   0.492 -0.1613 -0.2004 -1.4486
 6575TIP3   OH241283   5.446   2.517   0.123 -0.1229  0.2871 -0.4931
 6575TIP3    H141284   5.374   2.581   0.127 -0.5102 -0.0797 -1.2625
 6575TIP3    H241285   5.424   2.462   0.047  0.2346 -0.7214  0.1129
 6576TIP3   OH241286   2.161   3.082   7.892 -0.1732  0.2034  0.3108
 6576TIP3    H141287   2.087   3.092   7.952 -0.9262  3.5314 -0.9569
 6576TIP3    H241288   2.238   3.077   7.949 -1.1777 -2.3229  1.6104
 6577TIP3   OH241289   6.477   6.641   1.011 -0.2853 -0.3189 -0.2159
 6577TIP3    H141290   6.467   6.586   1.088 -0.7716  1.9196  1.4194
 6577TIP3    H241291   6.571   6.648   0.998 -0.1437  0.3179  1.0035
 6578TIP3   OH241292   6.240   5.455   8.151  1.0280 -0.6788 -0.0653
 6578TIP3    H141293   6.207   5.538   8.117  1.5404 -1.1061 -1.6991
 6578TIP3    H241294   6.180   5.389   8.115  2.6900 -1.3219 -1.8322
 6579TIP3   OH241295   6.178   6.280   1.569  0.7538  0.7156  0.6615
 6579TIP3    H141296   6.193   6.332   1.489  2.1957  1.4918  1.4006
 6579TIP3    H241297   6.094   6.312   1.603 -1.6207 -1.8388 -2.1486
 6580TIP3   OH241298   5.280   1.382   1.958  0.1058  0.1585  0.0483
 6580TIP3    H141299   5.264   1.475   1.939 -2.0984 -0.1752 -0.0300
 6580TIP3    H241300   5.326   1.349   1.881  2.1620  1.4447  0.6606
 6581TIP3   OH241301   4.825   2.390   1.751  0.4295  0.0995  0.7522
 6581TIP3    H141302   4.745   2.439   1.774 -0.2736 -0.1076 -1.0853
 6581TIP3    H241303   4.891   2.457   1.738  0.1143  0.3968  0.6560
 6582TIP3   OH241304   2.363   0.578   1.850  0.0068  0.3296 -0.1745
 6582TIP3    H141305   2.386   0.503   1.795  1.5186  0.4960  0.1857
 6582TIP3    H241306   2.272   0.562   1.875 -0.4170 -0.2025 -1.9510
 6583TIP3   OH241307   5.393   2.125   0.573  0.7933  0.0422 -0.1284
 6583TIP3    H141308   5.323   2.125   0.638  0.8828 -2.4549  0.0335
 6583TIP3    H241309   5.435   2.210   0.584 -1.1945  0.9706  0.8484
 6584TIP3   OH241310   6.130   1.639   8.142 -0.5962  0.1254 -0.2797
 6584TIP3    H141311   6.095   1.553   8.166 -1.2827 -0.0429 -1.7235
 6584TIP3    H241312   6.181   1.666   8.217  0.7524 -2.1426 -0.2836
 6585TIP3   OH241313   0.275   5.798   0.185  0.2087 -0.7764 -0.1954
 6585TIP3    H141314   0.346   5.734   0.178  0.5418 -0.5558  0.8665
 6585TIP3    H241315   0.298   5.850   0.262  0.5426  1.3690 -1.6466
 6586TIP3   OH241316   3.788   1.803   7.936 -0.4003 -0.3343  0.0485
 6586TIP3    H141317   3.727   1.737   7.967 -0.4260  0.2135  1.2036
 6586TIP3    H241318   3.815   1.772   7.850 -1.9037 -0.8491 -0.2662
 6587TIP3   OH241319   6.704   1.869   6.782  0.2407  0.0269 -0.3046
 6587TIP3    H141320   6.649   1.925   6.728 -0.5195 -0.3863  0.0281
 6587TIP3    H241321   6.776   1.843   6.725  1.4568  2.5368 -0.0532
 6588TIP3   OH241322   1.950   1.424   0.399  0.0419  0.4600 -0.3192
 6588TIP3    H141323   1.945   1.467   0.313 -0.3618  1.6730  0.2857
 6588TIP3    H241324   1.954   1.496   0.461 -1.3582 -0.3656  0.7818
 6589TIP3   OH241325   6.600   1.546   2.072  0.0926 -0.2036  0.4036
 6589TIP3    H141326   6.532   1.599   2.030  1.3263 -0.6077 -2.3077
 6589TIP3    H241327   6.556   1.464   2.094 -0.7568  0.2653  0.5024
 6590TIP3   OH241328   3.982   5.062   7.574  0.0190 -0.0336  0.1912
 6590TIP3    H141329   4.025   5.106   7.500 -0.8148  0.0007 -0.2903
 6590TIP3    H241330   3.892   5.050   7.544 -0.1224 -0.7453  0.9019
 6591TIP3   OH241331   1.340   5.414   0.756 -0.1478  0.0802  0.0585
 6591TIP3    H141332   1.323   5.328   0.717  2.0499  0.3311 -1.6620
 6591TIP3    H241333   1.375   5.395   0.842 -0.4559 -0.7231  0.0120
 6592TIP3   OH241334   1.390   3.014   0.066 -0.1817  0.2536  0.6003
 6592TIP3    H141335   1.297   3.019   0.048  0.2602  0.2737 -2.0789
 6592TIP3    H241336   1.412   2.921   0.054  0.7177  0.7675 -2.7188
 6593TIP3   OH241337   3.726   5.984   7.018  0.3989  0.3014  0.1728
 6593TIP3    H141338   3.701   5.896   7.047  0.3599  0.7968  1.7621
 6593TIP3    H241339   3.764   6.024   7.097  0.7145  1.5968 -0.6189
 6594TIP3   OH241340   0.171   3.022   8.638  0.3018  0.3694 -0.4124
 6594TIP3    H141341   0.097   3.008   8.696  0.6246  1.5631  0.3232
 6594TIP3    H241342   0.185   3.117   8.639  1.2014  0.2694 -1.3353
 6595TIP3   OH241343   3.065   4.673   8.536 -0.1103  0.2461  0.0407
 6595TIP3    H141344   3.071   4.654   8.442  1.2414  0.3900  0.0815
 6595TIP3    H241345   3.079   4.768   8.542 -0.0445  0.2154  0.3996
 6596TIP3   OH241346   4.250   3.596   1.434  0.2086 -0.3674 -0.1077
 6596TIP3    H141347   4.301   3.583   1.354  1.7454 -1.8391  1.0368
 6596TIP3    H241348   4.184   3.526   1.432 -0.2576  0.0715 -0.4337
 6597TIP3   OH241349   1.534   1.049   8.668  0.2040  0.0082  0.1952
 6597TIP3    H141350   1.479   1.107   8.616  1.6646 -0.2837 -1.8045
 6597TIP3    H241351   1.491   0.964   8.664  0.5161 -0.1051 -0.9388
 6598TIP3   OH241352   2.895   5.442   8.198 -0.0058 -0.0613 -0.0908
 6598TIP3    H141353   2.879   5.426   8.105 -1.2264  1.3202 -0.1663
 6598TIP3    H241354   2.872   5.360   8.241 -1.3605 -0.1183 -0.8491
 6599TIP3   OH241355   1.367   3.192   6.735 -0.1462 -0.5601 -0.3514
 6599TIP3    H141356   1.330   3.270   6.778 -4.2392 -3.0202  1.1458
 6599TIP3    H241357   1.449   3.176   6.782  1.4624  3.2204 -1.4152
 6600TIP3   OH241358   0.315   1.213   1.528  0.3584  0.2661 -0.0775
 6600TIP3    H141359   0.357   1.146   1.582  0.3504  0.4052  0.1055
 6600TIP3    H241360   0.243   1.245   1.583  1.8639  2.2062  0.9152
 6601TIP3   OH241361   4.852   6.128   0.531 -0.1035  0.5961 -0.1629
 6601TIP3    H141362   4.872   6.149   0.622 -0.6192  3.3366 -0.5993
 6601TIP3    H241363   4.886   6.039   0.519 -0.0161  0.1535  2.6656
 6602TIP3   OH241364   1.528   2.942   7.376  0.7013  0.0853 -0.1833
 6602TIP3    H141365   1.452   2.894   7.344  1.5963 -1.4612 -0.0678
 6602TIP3    H241366   1.504   3.034   7.364 -0.6818 -0.3758 -1.2949
 6603TIP3   OH241367   1.910   5.013   6.495 -0.2904 -0.2237  0.2967
 6603TIP3    H141368   1.881   5.083   6.554 -3.1983 -0.7821 -0.3229
 6603TIP3    H241369   1.837   4.951   6.495  0.9570 -1.7759 -1.4986
 6604TIP3   OH241370   1.589   6.001   1.848 -0.1841 -0.3918  0.3858
 6604TIP3    H141371   1.630   6.086   1.860  0.7083 -0.9970  1.8904
 6604TIP3    H241372   1.544   5.983   1.930 -0.2512 -1.4260  0.1462
 6605TIP3   OH241373   5.113   6.214   1.043 -0.2061 -0.0706  0.3744
 6605TIP3    H141374   5.180   6.279   1.066  0.4218 -0.2559 -0.8534
 6605TIP3    H241375   5.149   6.168   0.968 -1.0336 -1.2651  0.6802
 6606TIP3   OH241376   5.454   5.359   1.616 -0.5849 -0.0217  0.3380
 6606TIP3    H141377   5.499   5.277   1.596 -1.0130 -0.8043  2.2955
 6606TIP3    H241378   5.399   5.375   1.540  0.6655 -0.6888 -0.7634
 6607TIP3   OH241379   2.106   1.242   0.904 -0.0922  0.0797 -0.2721
 6607TIP3    H141380   2.122   1.322   0.955 -1.6152  0.2041  0.0602
 6607TIP3    H241381   2.104   1.172   0.969 -1.6095  0.1805 -0.1732
 6608TIP3   OH241382   1.125   1.820   7.169  0.7780 -0.0851 -0.0212
 6608TIP3    H141383   1.139   1.726   7.170 -0.4887 -0.2893  0.1738
 6608TIP3    H241384   1.207   1.857   7.137  1.7767 -1.1597  1.2164
 6609TIP3   OH241385   0.141   1.906   2.799  0.1127  0.6971 -0.2771
 6609TIP3    H141386   0.129   1.968   2.871  0.0562 -1.1683  1.3853
 6609TIP3    H241387   0.057   1.862   2.791  0.4649  0.0859 -0.7059
 6610TIP3   OH241388   6.382   4.411   2.094 -0.1670 -1.0508  0.2319
 6610TIP3    H141389   6.409   4.424   2.185 -2.6553 -0.5276  0.9636
 6610TIP3    H241390   6.347   4.496   2.067 -0.7446 -1.5835 -0.7436
 6611TIP3   OH241391   3.758   6.792   7.327 -0.1368 -0.1011  0.1792
 6611TIP3    H141392   3.789   6.707   7.296 -0.1400 -0.5178  1.2766
 6611TIP3    H241393   3.837   6.841   7.348 -0.0546  0.8053 -1.9692
 6612TIP3   OH241394   6.036   1.641   0.858 -0.9450 -0.5765  0.2573
 6612TIP3    H141395   6.073   1.693   0.929  0.0859  0.2551 -0.8354
 6612TIP3    H241396   6.088   1.561   0.856 -1.0095 -0.6233  0.4748
 6613TIP3   OH241397   1.120   2.103   7.306  0.5428 -0.5473  0.1159
 6613TIP3    H141398   1.102   2.032   7.366  1.0238 -0.3655  0.4788
 6613TIP3    H241399   1.153   2.174   7.361  1.5937 -0.5967 -0.4271
 6614TIP3   OH241400   5.354   3.883   2.560  0.2252  0.2978  0.3049
 6614TIP3    H141401   5.391   3.970   2.575  0.3650  0.0759  1.3420
 6614TIP3    H241402   5.429   3.824   2.563  0.3507  0.2647 -1.9596
 6615TIP3   OH241403   3.871   2.198   1.544  0.4037 -0.2258 -0.1603
 6615TIP3    H141404   3.827   2.274   1.581  0.6892  0.3813 -1.0280
 6615TIP3    H241405   3.945   2.182   1.603  1.3876  1.2938 -0.9250
 6616TIP3   OH241406   3.124   4.699   7.956  0.1160  0.2436  0.0289
 6616TIP3    H141407   3.215   4.699   7.987  0.0307 -0.6945  0.2898
 6616TIP3    H241408   3.075   4.743   8.025 -0.0661 -1.7793  1.2312
 6617TIP3   OH241409   1.474   5.696   2.638 -0.2721  0.7959  0.0072
 6617TIP3    H141410   1.443   5.619   2.590 -1.3686  1.5438 -0.5180
 6617TIP3    H241411   1.528   5.660   2.709  0.2511 -0.3913 -0.9563
 6618TIP3   OH241412   4.589   1.798   0.855  0.0339 -0.0736 -0.4061
 6618TIP3    H141413   4.555   1.741   0.787  0.6251  0.1936 -0.9396
 6618TIP3    H241414   4.674   1.760   0.878  0.5887  0.7679 -1.0100
 6619TIP3   OH241415   1.109   5.656   3.116 -0.0797  0.2760 -0.4055
 6619TIP3    H141416   1.189   5.602   3.114 -1.8835 -2.7893  1.6233
 6619TIP3    H241417   1.051   5.614   3.053 -1.1004  0.6375  0.2757
 6620TIP3   OH241418   3.514   4.229   8.702  0.3520  0.2429 -0.4084
 6620TIP3    H141419   3.482   4.194   8.785  1.4751 -0.0480 -0.0693
 6620TIP3    H241420   3.445   4.209   8.639  0.2990 -1.2510  0.0788
 6621TIP3   OH241421   1.045   3.947   0.417  0.4272  0.1577 -0.2360
 6621TIP3    H141422   1.096   3.967   0.496  1.1515 -0.3132 -0.5717
 6621TIP3    H241423   0.980   3.884   0.445  0.4731  0.2374  0.0549
 6622TIP3   OH241424   6.456   2.490   0.951 -0.9237 -0.3737 -0.0254
 6622TIP3    H141425   6.551   2.498   0.964 -0.7488 -1.0515 -0.7726
 6622TIP3    H241426   6.436   2.556   0.885 -0.9915 -0.1407  0.2299
 6623TIP3   OH241427   4.435   3.194   0.637 -0.5532 -1.1564  0.1709
 6623TIP3    H141428   4.519   3.155   0.615  0.2042  0.8568 -0.7693
 6623TIP3    H241429   4.370   3.134   0.599  0.3046 -3.4780  2.1156
 6624TIP3   OH241430   3.641   0.074   7.914 -1.2750 -0.5714  0.7565
 6624TIP3    H141431   3.679   0.148   7.867 -2.1092  0.7443  2.0682
 6624TIP3    H241432   3.548   0.096   7.922 -1.4495 -1.5477  1.5715
 6625TIP3   OH241433   1.012   2.410   7.135  0.1822 -0.0833  0.2984
 6625TIP3    H141434   1.106   2.424   7.140  0.3734 -0.8961 -0.6705
 6625TIP3    H241435   0.982   2.473   7.069  0.8042 -2.7884 -2.8673
 6626TIP3   OH241436   2.673   2.436   0.134 -0.2217 -0.1164  0.3523
 6626TIP3    H141437   2.673   2.527   0.164  1.1234  0.6345 -1.7191
 6626TIP3    H241438   2.713   2.387   0.206  1.9783  1.4362  0.2758
 6627TIP3   OH241439   2.660   5.567   1.797  0.1152 -0.2802 -0.5168
 6627TIP3    H141440   2.695   5.630   1.860  1.2583 -1.5260  0.1498
 6627TIP3    H241441   2.736   5.514   1.772 -0.7801 -1.2788 -1.1938
 6628TIP3   OH241442   5.006   2.768   6.297  0.0599 -0.1934  0.1381
 6628TIP3    H141443   4.990   2.761   6.391 -0.1673 -0.0534  0.1097
 6628TIP3    H241444   4.949   2.839   6.268  0.6048  0.2004  0.0066
 6629TIP3   OH241445   2.616   3.711   8.734  0.6941 -0.1015 -0.6643
 6629TIP3    H141446   2.681   3.677   8.672  2.2036 -1.6505  1.6087
 6629TIP3    H241447   2.532   3.681   8.699  1.4864 -0.9411 -1.9425
 6630TIP3   OH241448   4.205   0.994   1.942 -0.0122  0.1015  0.0845
 6630TIP3    H141449   4.197   0.927   1.874  0.6820  1.6059 -1.5594
 6630TIP3    H241450   4.116   1.028   1.953 -0.4415 -1.2987  1.2067
 6631TIP3   OH241451   0.786   5.832   1.205 -0.8493  0.3430 -0.7255
 6631TIP3    H141452   0.872   5.873   1.201 -0.0080 -1.4528 -3.0353
 6631TIP3    H241453   0.726   5.899   1.172 -0.2774  1.3400  0.1835
 6632TIP3   OH241454   3.481   3.423   8.689 -0.5545  0.0779 -0.3306
 6632TIP3    H141455   3.476   3.328   8.679  1.3205  0.0942 -2.1032
 6632TIP3    H241456   3.427   3.457   8.618 -0.5820  0.3276 -0.1901
 6633TIP3   OH241457   1.082   6.693   2.792 -0.9086  0.0402  0.0374
 6633TIP3    H141458   1.120   6.606   2.776 -1.1179 -0.1972  0.7532
 6633TIP3    H241459   1.018   6.677   2.862  1.1976  1.2806  2.3903
 6634TIP3   OH241460   1.456   0.414   0.490 -0.5880 -0.7665 -0.1860
 6634TIP3    H141461   1.474   0.412   0.584 -1.4110 -0.9719 -0.0301
 6634TIP3    H241462   1.402   0.492   0.477  0.2325 -0.2547 -0.6283
 6635TIP3   OH241463   2.634   2.239   1.077  0.0090  0.5136  0.0304
 6635TIP3    H141464   2.601   2.285   1.000  1.1102 -0.7333 -1.2513
 6635TIP3    H241465   2.656   2.308   1.140  0.6047  1.6813 -1.4160
 6636TIP3   OH241466   0.814   2.141   2.271  0.1810  0.2805  0.2542
 6636TIP3    H141467   0.890   2.143   2.328 -0.3517 -2.6613  1.2567
 6636TIP3    H241468   0.750   2.087   2.319 -2.3487  2.1485 -0.7889
 6637TIP3   OH241469   1.177   0.302   0.379  0.1903 -0.7064 -0.1995
 6637TIP3    H141470   1.263   0.323   0.343  0.7707 -1.1937  0.8763
 6637TIP3    H241471   1.116   0.324   0.308  1.0360  1.2917 -0.3665
 6638TIP3   OH241472   2.516   2.877   0.493 -0.1943 -0.1710 -0.6090
 6638TIP3    H141473   2.445   2.821   0.462 -0.0294 -0.6082 -0.2194
 6638TIP3    H241474   2.532   2.939   0.422 -1.2152  0.1732 -0.5456
 6639TIP3   OH241475   4.815   1.407   0.779 -0.0917 -0.1626  0.2567
 6639TIP3    H141476   4.810   1.470   0.707  0.8892 -1.5912 -1.1098
 6639TIP3    H241477   4.908   1.403   0.802  0.0322 -1.8849 -0.4195
 6640TIP3   OH241478   2.154   6.437   1.996 -0.0204  0.1294  0.8982
 6640TIP3    H141479   2.196   6.496   1.934 -2.0302  1.9857  1.1844
 6640TIP3    H241480   2.223   6.413   2.057  1.2102  0.9604 -0.1302
 6641TIP3   OH241481   6.387   3.142   0.551 -0.4125  0.0112  0.2918
 6641TIP3    H141482   6.394   3.237   0.562  2.3262 -0.2373  1.5960
 6641TIP3    H241483   6.464   3.118   0.501 -1.2119 -1.5357 -0.2478
 6642TIP3   OH241484   5.655   2.942   7.692 -0.2896  0.2318  0.4175
 6642TIP3    H141485   5.604   3.019   7.716  0.3465  0.6557  0.4233
 6642TIP3    H241486   5.606   2.903   7.619 -0.2655  1.0186 -0.0369
 6643TIP3   OH241487   1.195   3.535   7.364 -0.3482 -0.2491 -0.1572
 6643TIP3    H141488   1.110   3.580   7.366 -1.0729 -1.2173 -3.2074
 6643TIP3    H241489   1.217   3.531   7.271  2.3397 -1.3936  0.4435
 6644TIP3   OH241490   1.660   2.364   8.606 -0.1994  0.2601  0.5485
 6644TIP3    H141491   1.732   2.381   8.666  1.0939 -0.5412 -0.6912
 6644TIP3    H241492   1.582   2.369   8.660  0.7128  1.7587  1.8345
 6645TIP3   OH241493   4.717   6.451   2.073  0.4173  0.0432  0.4131
 6645TIP3    H141494   4.651   6.478   2.138  0.9685 -0.0502  1.0279
 6645TIP3    H241495   4.791   6.511   2.088  1.0420 -0.7874  0.7334
 6646TIP3   OH241496   3.605   3.026   8.069 -0.6681  0.1747  0.2060
 6646TIP3    H141497   3.635   3.095   8.127  0.2809 -1.4287  1.7135
 6646TIP3    H241498   3.647   2.946   8.102  0.5471 -0.7307 -3.1514
 6647TIP3   OH241499   2.835   5.390   7.061 -0.5438  0.1148  0.0379
 6647TIP3    H141500   2.794   5.375   6.976 -0.0673  0.0924 -0.1923
 6647TIP3    H241501   2.892   5.314   7.073 -0.6508  0.0907  0.4043
 6648TIP3   OH241502   4.583   5.067   1.434 -0.1904  0.2257 -0.0114
 6648TIP3    H141503   4.643   5.141   1.445 -0.0512  0.2261 -0.7104
 6648TIP3    H241504   4.506   5.104   1.391 -0.6124  0.1834  0.6895
 6649TIP3   OH241505   4.584   4.568   0.391 -0.3371  0.2162  0.1888
 6649TIP3    H141506   4.620   4.563   0.302 -1.2599  2.1078 -0.3434
 6649TIP3    H241507   4.511   4.507   0.391 -0.3196  0.1895 -0.3623
 6650TIP3   OH241508   0.025   0.315   1.344  0.6240 -0.0623 -0.0041
 6650TIP3    H141509  -0.057   0.339   1.388  0.3277 -0.3122 -0.4014
 6650TIP3    H241510   0.044   0.226   1.376  0.8574  0.0806  0.2535
 6651TIP3   OH241511   2.525   6.224   0.600  0.6708  0.2615 -1.0636
 6651TIP3    H141512   2.541   6.233   0.506 -1.3235 -1.2275 -1.6125
 6651TIP3    H241513   2.430   6.224   0.609  0.7893  2.1052  1.1910
 6652TIP3   OH241514   2.477   3.987   7.945 -1.0308 -0.5718  0.1896
 6652TIP3    H141515   2.513   4.009   7.859 -2.4606 -1.1085 -0.5832
 6652TIP3    H241516   2.511   4.055   8.004 -1.4289  0.8207 -1.1335
 6653TIP3   OH241517   0.538   6.463   0.601 -0.3652  0.1910  0.3069
 6653TIP3    H141518   0.451   6.471   0.640 -0.7663  0.4437 -0.5980
 6653TIP3    H241519   0.523   6.476   0.507  0.8093  1.5092  0.2618
 6654TIP3   OH241520   4.799   2.409   2.468 -0.4396  0.1603 -0.1465
 6654TIP3    H141521   4.842   2.480   2.516 -0.1265 -0.0857 -0.0626
 6654TIP3    H241522   4.708   2.411   2.500 -0.6872  1.1416 -0.8563
 6655TIP3   OH241523   3.037   0.187   2.471 -0.6008  0.4492 -0.3415
 6655TIP3    H141524   3.066   0.137   2.548  1.3284  0.9223 -0.7134
 6655TIP3    H241525   3.066   0.135   2.396 -2.1661  0.1618 -0.7807
 6656TIP3   OH241526   2.035   4.731   2.360  0.3745 -0.0232 -0.4257
 6656TIP3    H141527   2.086   4.809   2.383  2.1439 -1.3696  0.4461
 6656TIP3    H241528   2.099   4.660   2.357 -1.3288 -1.6491 -0.2081
 6657TIP3   OH241529   2.365   2.409   6.658  0.2674 -0.3493 -0.8560
 6657TIP3    H141530   2.275   2.399   6.688  0.8340  2.0638  2.0518
 6657TIP3    H241531   2.365   2.492   6.611  1.3791  0.8643  1.2065
 6658TIP3   OH241532   3.833   1.819   1.834  0.0775  0.1292  0.4196
 6658TIP3    H141533   3.866   1.905   1.861  1.8116  0.0226 -1.1507
 6658TIP3    H241534   3.802   1.779   1.915 -0.0743  1.9323  1.3088
 6659TIP3   OH241535   3.645   5.046   0.329 -0.0660 -0.4065  0.3222
 6659TIP3    H141536   3.607   5.130   0.355  0.8824 -0.1073  0.8296
 6659TIP3    H241537   3.720   5.036   0.388 -0.4929 -1.8857  0.6387
 6660TIP3   OH241538   2.585   5.074   3.046 -0.2192  0.0377  0.7251
 6660TIP3    H141539   2.667   5.105   3.007  0.2732 -2.2360 -0.2678
 6660TIP3    H241540   2.543   5.152   3.081  2.4522  1.2669  1.4466
 6661TIP3   OH241541   4.194   3.218   2.256  0.0037  0.5141  0.3284
 6661TIP3    H141542   4.199   3.314   2.258  0.3587  0.4943  1.7176
 6661TIP3    H241543   4.166   3.194   2.345 -0.5579 -0.6491 -0.1484
 6662TIP3   OH241544   6.651   2.786   8.223 -0.0769  0.9651 -0.4340
 6662TIP3    H141545   6.724   2.791   8.285  0.2159  1.5275 -0.8139
 6662TIP3    H241546   6.672   2.710   8.168 -1.5343 -1.0565  1.6072
 6663TIP3   OH241547   5.112   3.401   7.989  0.1218  0.2731  0.3347
 6663TIP3    H141548   5.047   3.458   7.948 -0.0786 -0.0355  0.2246
 6663TIP3    H241549   5.076   3.381   8.075  0.2155  0.3543  0.3927
 6664TIP3   OH241550   6.138   0.723   0.876 -0.3261 -0.3758 -0.2791
 6664TIP3    H141551   6.227   0.694   0.897 -1.2799 -3.0565  0.5138
 6664TIP3    H241552   6.131   0.809   0.918  1.9961  0.1243 -0.7466
 6665TIP3   OH241553   6.786   3.867   0.482 -0.4163  0.3726  0.0385
 6665TIP3    H141554   6.803   3.948   0.531  0.0457  0.3367 -0.0501
 6665TIP3    H241555   6.747   3.808   0.546  0.5573  0.1872  0.4797
 6666TIP3   OH241556   4.480   2.488   2.830  0.2516 -0.7346  0.2993
 6666TIP3    H141557   4.477   2.455   2.740 -2.4670  1.2107 -0.4212
 6666TIP3    H241558   4.567   2.527   2.838  0.1000  0.2092 -1.9639
 6667TIP3   OH241559   6.401   6.251   1.774  0.5764  0.1103 -0.2434
 6667TIP3    H141560   6.352   6.271   1.695 -0.1380  1.3115  0.4654
 6667TIP3    H241561   6.492   6.269   1.752  0.4297  0.0534 -0.8972
 6668TIP3   OH241562   3.253   0.927   0.825 -0.3492  0.3714  0.1922
 6668TIP3    H141563   3.270   0.841   0.861  0.8806  0.8029  0.6917
 6668TIP3    H241564   3.188   0.966   0.884 -0.5250 -0.0252  0.2582
 6669TIP3   OH241565   2.155   4.704   1.839  0.3199 -0.3681  0.3816
 6669TIP3    H141566   2.069   4.702   1.797  0.8742 -0.0294 -0.8347
 6669TIP3    H241567   2.182   4.796   1.832  0.5188 -0.3487  1.3164
 6670TIP3   OH241568   6.414   5.989   0.852 -0.4929 -0.1808 -0.1999
 6670TIP3    H141569   6.357   5.952   0.785 -1.5027  0.5191  0.2502
 6670TIP3    H241570   6.407   6.084   0.840  0.7297 -0.0709 -0.2515
 6671TIP3   OH241571   6.586   5.830   0.282  0.3195  0.2851 -0.8260
 6671TIP3    H141572   6.600   5.740   0.314 -1.1112  0.6438  0.9774
 6671TIP3    H241573   6.673   5.869   0.280  0.6241 -0.0618  1.9355
 6672TIP3   OH241574   6.279   1.695   8.358  1.0350  0.0083  0.4072
 6672TIP3    H141575   6.351   1.752   8.386 -0.2786  1.4967  0.9058
 6672TIP3    H241576   6.249   1.653   8.439  1.3029 -0.5720  0.2088
 6673TIP3   OH241577   1.357   4.291   1.468  0.6336  0.1598  0.3053
 6673TIP3    H141578   1.385   4.303   1.559  0.8680 -0.0094  0.2557
 6673TIP3    H241579   1.367   4.197   1.452  0.8591  0.2299  0.0192
 6674TIP3   OH241580   4.393   6.146   0.976 -0.5596  0.8644 -0.1097
 6674TIP3    H141581   4.479   6.164   0.939 -0.6985  3.2721  0.5291
 6674TIP3    H241582   4.336   6.136   0.899 -0.1305  1.7907 -0.5729
 6675TIP3   OH241583   1.718   5.454   8.206 -0.7362 -0.2228 -0.1688
 6675TIP3    H141584   1.627   5.427   8.204 -1.9036  3.1979  0.3843
 6675TIP3    H241585   1.731   5.486   8.295 -0.1750  2.7136 -1.2173
 6676TIP3   OH241586   6.582   5.342   0.185  0.4592  0.1037  0.2724
 6676TIP3    H141587   6.601   5.415   0.243  1.4017  0.1368 -0.0583
 6676TIP3    H241588   6.665   5.294   0.178 -0.1414 -1.0184  0.5006
 6677TIP3   OH241589   5.820   6.412   0.157  1.1153  0.0725 -0.8261
 6677TIP3    H141590   5.798   6.322   0.134 -1.3188  0.6161 -0.8391
 6677TIP3    H241591   5.844   6.408   0.249  0.9748 -0.5719 -0.8095
 6678TIP3   OH241592   5.801   4.418   8.650  0.1157 -0.0937  0.0406
 6678TIP3    H141593   5.839   4.334   8.675 -0.7714 -0.3643  0.5226
 6678TIP3    H241594   5.801   4.470   8.730  2.6088  1.1767 -0.6835
 6679TIP3   OH241595   1.899   0.889   8.117 -0.0601 -0.2050 -0.1914
 6679TIP3    H141596   1.900   0.981   8.141  0.3550 -0.2167 -0.1420
 6679TIP3    H241597   1.989   0.860   8.132 -0.2269 -0.6570 -0.0490
 6680TIP3   OH241598   1.896   5.308   2.323  0.1494 -0.4313 -0.2593
 6680TIP3    H141599   1.815   5.325   2.370  1.0316  0.9802  0.8500
 6680TIP3    H241600   1.912   5.214   2.334 -0.5370 -0.4305  0.8073
 6681TIP3   OH241601   5.511   4.039   0.390 -0.5189  0.5260  0.5215
 6681TIP3    H141602   5.543   4.006   0.306 -0.5321 -0.5268  0.9145
 6681TIP3    H241603   5.468   3.964   0.431 -1.3376  1.2781  1.0685
 6682TIP3   OH241604   3.347   6.294   2.072 -0.0395  0.5482 -0.1376
 6682TIP3    H141605   3.311   6.215   2.032  0.3655 -0.4537  1.3751
 6682TIP3    H241606   3.311   6.366   2.020 -0.8462 -0.5954 -1.2301
 6683TIP3   OH241607   3.998   4.271   8.105 -0.0893 -0.1209  1.1381
 6683TIP3    H141608   3.938   4.265   8.179 -0.4387 -0.3559  0.8391
 6683TIP3    H241609   3.948   4.315   8.037 -0.0856 -0.7192  0.7341
 6684TIP3   OH241610   5.439   2.880   7.447 -0.3081 -0.0042  0.2577
 6684TIP3    H141611   5.408   2.797   7.484 -0.2823 -1.3551 -2.4942
 6684TIP3    H241612   5.361   2.920   7.408  0.1748 -0.2507 -1.0321
 6685TIP3   OH241613   0.311   1.436   1.171 -0.3324 -0.2858 -0.1387
 6685TIP3    H141614   0.382   1.404   1.227 -0.6237 -1.4580 -0.4079
 6685TIP3    H241615   0.234   1.440   1.228 -0.1952  0.3975  0.0054
 6686TIP3   OH241616   0.481   2.294   1.303  0.0655 -0.1098  0.2566
 6686TIP3    H141617   0.511   2.325   1.218  0.0273  0.7392  0.5378
 6686TIP3    H241618   0.531   2.214   1.320  1.7079  0.9216  0.4330
 6687TIP3   OH241619   1.665   3.044   0.012 -0.1833  0.1633 -0.1599
 6687TIP3    H141620   1.574   3.014   0.010  0.2631 -1.3335  0.3446
 6687TIP3    H241621   1.659   3.139   0.006 -1.7595  0.0747 -0.5179
 6688TIP3   OH241622   6.003   6.678   1.596 -0.5864  0.8679 -0.0914
 6688TIP3    H141623   5.926   6.726   1.625 -1.7487 -2.2321  2.7208
 6688TIP3    H241624   5.969   6.613   1.534 -0.1881 -0.0090  0.5736
 6689TIP3   OH241625   2.848   4.898   1.715 -0.3470 -0.0324  0.1001
 6689TIP3    H141626   2.758   4.930   1.706 -1.0597 -1.3858  1.7223
 6689TIP3    H241627   2.872   4.867   1.628 -1.1399  1.1029 -0.5402
 6690TIP3   OH241628   1.191   3.642   7.873 -0.3158 -0.0016 -0.5527
 6690TIP3    H141629   1.160   3.704   7.939  1.8850  1.8451 -1.1197
 6690TIP3    H241630   1.142   3.666   7.794 -1.8154 -1.1863 -0.0234
 6691TIP3   OH241631   4.563   1.120   8.033  0.3748  0.0518 -0.5193
 6691TIP3    H141632   4.566   1.204   8.080 -0.0708  0.1830 -0.7261
 6691TIP3    H241633   4.653   1.106   8.004  0.8289 -0.3888  1.0027
 6692TIP3   OH241634   0.104   3.775   2.461  0.1736 -0.0036 -0.0539
 6692TIP3    H141635   0.118   3.862   2.425 -0.0358  0.0277 -0.0594
 6692TIP3    H241636   0.190   3.749   2.495 -0.0535  0.7436  1.1449
 6693TIP3   OH241637   1.982   5.056   8.538 -0.4604  1.1335  0.2090
 6693TIP3    H141638   1.964   4.987   8.474 -0.3025  0.2525  1.0867
 6693TIP3    H241639   2.068   5.089   8.514  0.4216 -0.4443  1.0140
 6694TIP3   OH241640   4.685   3.025   0.513  0.0502  0.1927  0.0732
 6694TIP3    H141641   4.604   3.031   0.463 -1.7954  0.2594  2.8445
 6694TIP3    H241642   4.695   2.931   0.531  1.3183  0.0376 -1.2660
 6695TIP3   OH241643   5.884   1.534   1.847 -0.7249  0.1174  0.4335
 6695TIP3    H141644   5.935   1.593   1.902 -1.0492  2.1569 -1.2968
 6695TIP3    H241645   5.885   1.576   1.760 -0.3189 -2.8422 -1.1279
 6696TIP3   OH241646   3.255   4.836   8.776 -0.3636 -0.4751  0.4007
 6696TIP3    H141647   3.208   4.753   8.767  0.1418 -0.8830  1.3496
 6696TIP3    H241648   3.344   4.811   8.799  0.8002  0.2303 -2.8058
 6697TIP3   OH241649   3.031   4.892   7.240  0.0636  0.3580 -0.3088
 6697TIP3    H141650   2.969   4.953   7.201  0.2256  0.4382 -0.4395
 6697TIP3    H241651   2.987   4.861   7.319 -1.7283 -2.3000 -2.1490
 6698TIP3   OH241652   1.888   3.927   8.102 -0.1362 -0.0072 -0.7224
 6698TIP3    H141653   1.862   3.958   8.015 -0.9926  1.1834 -0.0669
 6698TIP3    H241654   1.868   4.000   8.161  1.4686 -0.3609  0.3372
 6699TIP3   OH241655   3.444   1.091   1.716 -0.8105  0.9020 -0.4734
 6699TIP3    H141656   3.478   1.005   1.740 -2.6183 -0.0766 -1.2069
 6699TIP3    H241657   3.518   1.151   1.727  0.6296 -0.8220 -0.4466
 6700TIP3   OH241658   6.679   2.676   1.763 -0.2148  0.4550 -0.2129
 6700TIP3    H141659   6.723   2.687   1.678 -0.7565  2.2585 -0.2911
 6700TIP3    H241660   6.608   2.614   1.745  1.4579 -1.5240 -0.3632
 6701TIP3   OH241661   0.173   5.876   8.305 -0.0008  0.4081 -0.0284
 6701TIP3    H141662   0.199   5.878   8.212  1.7605 -1.7311  0.3454
 6701TIP3    H241663   0.095   5.821   8.307  0.2296  0.0743 -0.1875
 6702TIP3   OH241664   6.623   4.099   2.427 -0.1122  0.1491  0.4134
 6702TIP3    H141665   6.566   4.131   2.497 -1.0724 -0.9060  0.1447
 6702TIP3    H241666   6.567   4.041   2.375  1.1596 -0.7833  0.0321
 6703TIP3   OH241667   5.865   3.696   0.277  0.4212  0.6581 -0.5939
 6703TIP3    H141668   5.822   3.653   0.203 -1.6233  2.0767 -0.3059
 6703TIP3    H241669   5.899   3.778   0.242  2.0649  0.0409 -0.5613
 6704TIP3   OH241670   6.031   3.658   7.972 -0.1067 -0.2593 -0.4066
 6704TIP3    H141671   5.968   3.713   7.926 -0.4719 -0.6800 -0.4100
 6704TIP3    H241672   6.047   3.703   8.054  0.6554  0.5723 -0.9931
 6705TIP3   OH241673   5.423   0.561   0.992  0.0796  0.7012 -0.8106
 6705TIP3    H141674   5.458   0.570   0.903  0.4816 -0.2361 -0.7596
 6705TIP3    H241675   5.328   0.567   0.982  0.1187  0.4840 -1.3222
 6706TIP3   OH241676   1.742   1.378   8.150 -0.1420 -0.4212  0.5733
 6706TIP3    H141677   1.748   1.305   8.088 -0.8371 -0.5727  0.6755
 6706TIP3    H241678   1.827   1.422   8.143 -0.0244 -0.7348 -0.1176
 6707TIP3   OH241679   3.198   2.174   8.468  0.0328 -0.2374 -0.3393
 6707TIP3    H141680   3.173   2.103   8.408 -0.0380 -0.3227 -0.2107
 6707TIP3    H241681   3.252   2.130   8.535 -1.2810 -0.4701  0.6131
 6708TIP3   OH241682   4.253   5.412   0.201  0.1575 -0.1536 -0.2482
 6708TIP3    H141683   4.202   5.471   0.146 -0.3139  0.8753  1.2127
 6708TIP3    H241684   4.203   5.331   0.203 -0.9772  0.5316  0.4165
 6709TIP3   OH241685   1.787   4.114   6.747  0.0679 -0.3974  0.1314
 6709TIP3    H141686   1.693   4.125   6.730  0.0177 -1.0942 -0.0956
 6709TIP3    H241687   1.789   4.058   6.825  0.3004  0.7797  1.0040
 6710TIP3   OH241688   1.274   3.253   7.794  0.0134 -0.4832  0.6999
 6710TIP3    H141689   1.252   3.301   7.714 -1.8610  0.7704  1.9100
 6710TIP3    H241690   1.334   3.311   7.841 -1.1567  0.1072  1.5114
 6711TIP3   OH241691   1.899   5.567   2.236  0.3258  0.4301  0.4186
 6711TIP3    H141692   1.919   5.538   2.147 -1.1122 -0.0189  0.2218
 6711TIP3    H241693   1.927   5.495   2.292  0.5980  0.4231  0.2723
 6712TIP3   OH241694   5.483   3.000   1.565  1.0442 -0.9238  0.3941
 6712TIP3    H141695   5.511   2.908   1.574 -0.4169 -1.4881 -0.4694
 6712TIP3    H241696   5.435   3.019   1.645 -0.2889 -1.5507 -0.2329
 6713TIP3   OH241697   1.516   5.898   2.124  0.0344 -0.5224 -0.3088
 6713TIP3    H141698   1.603   5.858   2.117 -0.7549 -2.4678  0.2213
 6713TIP3    H241699   1.494   5.889   2.217 -0.4289  0.6472 -0.2956
 6714TIP3   OH241700   5.538   3.019   0.923 -0.2054 -0.0572  0.0614
 6714TIP3    H141701   5.469   3.073   0.963 -0.4176  0.7644 -1.3571
 6714TIP3    H241702   5.619   3.065   0.944 -0.2578  0.0206  0.0953
 6715TIP3   OH241703   5.912   2.184   8.693  0.1210 -0.0740 -0.2140
 6715TIP3    H141704   5.881   2.136   8.770 -2.7746  2.2344  0.2313
 6715TIP3    H241705   5.992   2.138   8.667  1.2630 -1.0113  4.1152
 6716TIP3   OH241706   6.513   2.372   8.380 -0.2161  0.1263  0.9148
 6716TIP3    H141707   6.438   2.314   8.370 -0.4763  0.5522  0.3598
 6716TIP3    H241708   6.476   2.459   8.388  0.1648  0.2142  1.9088
 6717TIP3   OH241709   4.131   6.725   0.456  0.5116 -0.1261 -0.4192
 6717TIP3    H141710   4.073   6.656   0.425  0.3917  0.1028 -0.7130
 6717TIP3    H241711   4.163   6.767   0.376  0.7199  0.0444 -0.2475
 6718TIP3   OH241712   3.571   0.240   8.552  0.3495 -0.8964  0.1090
 6718TIP3    H141713   3.584   0.330   8.520  0.9982 -1.1463 -0.3495
 6718TIP3    H241714   3.523   0.197   8.481 -1.1290 -0.5739  0.8752
 6719TIP3   OH241715   2.953   4.116   0.474  0.7228  0.2734  0.3083
 6719TIP3    H141716   2.884   4.159   0.525  0.1316 -0.9012  0.5270
 6719TIP3    H241717   3.033   4.135   0.523  0.4003  0.6434  0.7058
 6720TIP3   OH241718   1.416   6.278   7.831 -0.0511  0.1739  0.3783
 6720TIP3    H141719   1.357   6.203   7.820  0.6349 -0.3655  0.3277
 6720TIP3    H241720   1.359   6.349   7.863 -0.6016 -0.5338  1.0026
 6721TIP3   OH241721   2.026   3.158   2.062  0.1543 -0.0669  0.3517
 6721TIP3    H141722   1.971   3.114   2.127 -1.5092 -1.2566 -1.7498
 6721TIP3    H241723   2.009   3.251   2.075 -1.9205 -0.3794  0.1996
 6722TIP3   OH241724   6.559   5.598   8.544 -0.0138  0.2949 -0.3360
 6722TIP3    H141725   6.628   5.630   8.486  1.6159 -1.5313  0.4806
 6722TIP3    H241726   6.545   5.507   8.517  0.2943 -0.3936  1.6486
 6723TIP3   OH241727   6.072   1.674   7.649  0.1009  0.0334  0.3701
 6723TIP3    H141728   6.082   1.700   7.558 -0.2916  0.4072  0.4311
 6723TIP3    H241729   6.161   1.665   7.682  0.3001 -1.9076 -0.5423
 6724TIP3   OH241730   3.954   5.126   6.978  0.1446 -0.4489 -0.5169
 6724TIP3    H141731   4.011   5.171   6.916 -0.9342 -0.1176 -1.2924
 6724TIP3    H241732   3.865   5.137   6.943 -0.3155 -1.8193  0.1115
 6725TIP3   OH241733   6.404   3.101   0.231 -0.0200  0.5981 -0.1860
 6725TIP3    H141734   6.447   3.022   0.262 -0.2204 -0.0198 -1.4253
 6725TIP3    H241735   6.460   3.173   0.261  0.6888 -0.0700  0.1079
 6726TIP3   OH241736   1.478   1.131   7.702  0.4312 -0.7706  0.0245
 6726TIP3    H141737   1.539   1.100   7.636 -0.3574 -1.4750 -0.3848
 6726TIP3    H241738   1.469   1.058   7.763 -1.2837 -1.3194 -0.8347
 6727TIP3   OH241739   5.761   6.765   7.930 -0.2655 -0.0899 -0.3765
 6727TIP3    H141740   5.792   6.677   7.910 -2.7635 -0.9152 -0.9886
 6727TIP3    H241741   5.738   6.762   8.023 -1.5533 -0.5416 -0.6809
 6728TIP3   OH241742   4.196   4.663   1.667 -0.1871  0.7745  0.2649
 6728TIP3    H141743   4.223   4.630   1.581 -0.5609 -0.0641  0.4609
 6728TIP3    H241744   4.104   4.637   1.675  0.1506 -0.1744  1.3895
 6729TIP3   OH241745   3.288   1.743   1.066  0.3978  0.0957 -0.0982
 6729TIP3    H141746   3.381   1.746   1.085  0.6897 -0.6772 -1.2790
 6729TIP3    H241747   3.249   1.808   1.124  1.8084  1.2511 -0.4008
 6730TIP3   OH241748   2.328   3.449   0.572  0.5266  0.1789  0.3301
 6730TIP3    H141749   2.240   3.419   0.594  1.4655 -2.1952  1.3054
 6730TIP3    H241750   2.336   3.434   0.478  0.2609 -0.7413  0.4428
 6731TIP3   OH241751   3.997   0.086   1.234 -0.6617  0.0396  0.1807
 6731TIP3    H141752   3.978   0.152   1.167  0.2752  1.2170  1.0177
 6731TIP3    H241753   4.067   0.033   1.197  1.5111  2.1323  1.0339
 6732TIP3   OH241754   1.474   3.887   2.660 -0.8672 -0.1995 -0.2930
 6732TIP3    H141755   1.477   3.980   2.634 -1.1001 -0.0663  0.1367
 6732TIP3    H241756   1.394   3.854   2.620 -0.9365 -0.1379 -0.2063
 6733TIP3   OH241757   3.625   5.303   2.060 -0.3041 -0.3882  0.6162
 6733TIP3    H141758   3.623   5.261   1.974  1.4320  0.8110 -0.0658
 6733TIP3    H241759   3.677   5.243   2.114  2.3056  0.7911 -0.3989
 6734TIP3   OH241760   6.619   3.199   0.823 -0.0012  0.0814  0.2561
 6734TIP3    H141761   6.634   3.203   0.728  0.6050 -0.0774  0.3402
 6734TIP3    H241762   6.604   3.106   0.841  0.0783  0.0850  0.3428
 6735TIP3   OH241763   1.153   0.002   0.398  0.2092 -0.2605 -0.1880
 6735TIP3    H141764   1.089  -0.006   0.328 -0.6558  1.1783  0.3844
 6735TIP3    H241765   1.146   0.093   0.427 -1.1380 -1.3098  3.3238
 6736TIP3   OH241766   3.611   3.487   0.063  0.0989  0.1620 -0.2191
 6736TIP3    H141767   3.633   3.396   0.083 -1.2132 -0.0267  0.5093
 6736TIP3    H241768   3.577   3.484  -0.026  1.7007  0.2516 -0.8642
 6737TIP3   OH241769   2.240   4.046   7.716 -0.5055  0.2861 -0.3525
 6737TIP3    H141770   2.210   3.991   7.644 -2.2445 -1.3177  1.4547
 6737TIP3    H241771   2.162   4.059   7.770  1.2944 -1.6729  3.1220
 6738TIP3   OH241772   3.958   1.666   7.278  0.2622 -0.2595  0.0878
 6738TIP3    H141773   3.899   1.652   7.352 -0.5354 -2.0833 -0.8131
 6738TIP3    H241774   3.931   1.750   7.241 -1.2416 -0.6704  0.1964
 6739TIP3   OH241775   0.163   1.495   8.291  0.2927  0.1924  0.1792
 6739TIP3    H141776   0.215   1.447   8.227 -0.3431 -3.3961  2.0886
 6739TIP3    H241777   0.224   1.511   8.363  0.3393  1.8962 -0.2014
 6740TIP3   OH241778   4.013   1.469   0.792  0.4807 -0.1699 -0.1636
 6740TIP3    H141779   3.917   1.472   0.797  0.4832  0.1305 -0.3200
 6740TIP3    H241780   4.042   1.490   0.880  0.3986 -0.5942 -0.0298
 6741TIP3   OH241781   4.041   5.515   0.619  0.4397  0.2609 -0.1264
 6741TIP3    H141782   4.090   5.489   0.697 -0.6583 -0.0500  0.4712
 6741TIP3    H241783   4.071   5.455   0.550  1.1438  0.2982  0.1419
 6742TIP3   OH241784   1.491   0.569   2.035 -0.2673 -0.5045  0.2613
 6742TIP3    H141785   1.461   0.658   2.016  0.8854 -0.3623 -1.0624
 6742TIP3    H241786   1.540   0.577   2.117  0.2154  0.1782 -0.0898
 6743TIP3   OH241787   4.546   0.730   8.690  0.5450 -0.0488  0.2547
 6743TIP3    H141788   4.458   0.710   8.722  0.5308  0.5271  0.5859
 6743TIP3    H241789   4.555   0.677   8.611 -0.5308  0.7196 -0.4158
 6744TIP3   OH241790   4.190   4.815   1.014  0.4591  0.6245 -0.0705
 6744TIP3    H141791   4.161   4.724   1.010  2.5145 -0.0745 -0.7435
 6744TIP3    H241792   4.158   4.847   1.098 -0.6581 -0.5810 -0.0100
 6745TIP3   OH241793   5.564   5.657   2.083  0.2235  1.0520  0.4861
 6745TIP3    H141794   5.550   5.631   1.992  1.7891  0.7065  0.3218
 6745TIP3    H241795   5.483   5.633   2.128  0.1583 -0.5453 -0.4376
 6746TIP3   OH241796   4.263   4.078   1.538  0.0880  0.3071 -0.5444
 6746TIP3    H141797   4.217   4.087   1.621  0.5443 -1.3264 -0.0880
 6746TIP3    H241798   4.338   4.138   1.545  0.6856 -0.5413  0.6447
 6747TIP3   OH241799   3.935   2.501   6.897  0.1256 -0.5446 -0.5762
 6747TIP3    H141800   3.882   2.531   6.823  1.5280 -0.5104 -1.6208
 6747TIP3    H241801   4.002   2.569   6.907  1.3208 -1.6333 -0.7926
 6748TIP3   OH241802   3.038   6.654   8.379  0.1438 -0.1105  0.0145
 6748TIP3    H141803   3.069   6.677   8.292 -1.2439 -0.9711 -0.7475
 6748TIP3    H241804   2.953   6.699   8.386  0.7185  0.8405  1.3735
 6749TIP3   OH241805   1.530   4.926   7.610  0.1877  0.1568  0.0399
 6749TIP3    H141806   1.537   4.917   7.705 -0.6743  1.4651  0.2532
 6749TIP3    H241807   1.549   5.019   7.593 -0.4222  0.1166 -0.9708
 6750TIP3   OH241808   1.934   3.299   0.909 -0.2597  0.2050  0.5812
 6750TIP3    H141809   1.895   3.233   0.966  0.3890  0.0803  0.8919
 6750TIP3    H241810   1.861   3.355   0.884 -1.3224 -1.9732 -1.6313
 6751TIP3   OH241811   2.070   2.366   0.526  0.1723  0.5223 -0.0565
 6751TIP3    H141812   1.986   2.343   0.487  0.7879 -0.2834 -0.9714
 6751TIP3    H241813   2.089   2.293   0.585  0.6276  0.2657 -0.5141
 6752TIP3   OH241814   0.981   6.565   7.286 -0.8699 -0.1079 -0.2882
 6752TIP3    H141815   1.000   6.659   7.277  0.0195 -0.3933 -1.8575
 6752TIP3    H241816   1.032   6.524   7.217 -0.5457 -1.8665  0.9331
 6753TIP3   OH241817   1.894   4.797   6.784  0.1751 -0.0087 -0.3277
 6753TIP3    H141818   1.845   4.802   6.702  0.7479  0.0057 -0.6787
 6753TIP3    H241819   1.850   4.859   6.842 -0.5111 -0.3522 -0.4737
 6754TIP3   OH241820   3.268   1.430   7.752 -0.2686  0.3799  0.5014
 6754TIP3    H141821   3.249   1.479   7.672  0.2344  0.9177  0.7021
 6754TIP3    H241822   3.194   1.370   7.762  0.5122 -0.9407 -1.3084
 6755TIP3   OH241823   0.859   1.522   3.476  0.2455 -0.0544 -0.0363
 6755TIP3    H141824   0.865   1.609   3.438 -0.9850 -0.0685 -0.2885
 6755TIP3    H241825   0.767   1.511   3.499  0.6239 -0.7632  1.2636
 6756TIP3   OH241826   5.988   4.349   7.237 -0.4474 -0.3851  0.5656
 6756TIP3    H141827   5.986   4.398   7.155  0.7324 -1.1278  0.0646
 6756TIP3    H241828   5.932   4.273   7.222 -0.4220 -0.3969  0.5322
 6757TIP3   OH241829   1.224   6.192   7.103 -0.3349 -0.4313 -0.0182
 6757TIP3    H141830   1.187   6.192   7.191 -1.1992 -0.1353 -0.3742
 6757TIP3    H241831   1.260   6.104   7.091 -0.1092 -0.4380  0.6640
 6758TIP3   OH241832   1.147   2.292   8.739  0.1832 -0.6858  0.0704
 6758TIP3    H141833   1.164   2.205   8.777  0.3379 -0.2806  0.9541
 6758TIP3    H241834   1.075   2.277   8.677  0.6700 -1.5633 -0.3006
 6759TIP3   OH241835   2.486   4.668   0.776  0.1621  0.0383 -0.1786
 6759TIP3    H141836   2.467   4.762   0.782  4.2671  1.0070  0.4564
 6759TIP3    H241837   2.470   4.635   0.865  2.2839  1.0787  0.6675
 6760TIP3   OH241838   2.587   3.030   2.413 -0.0145  0.4647 -0.0274
 6760TIP3    H141839   2.515   2.971   2.432 -0.5625  1.4957  1.2629
 6760TIP3    H241840   2.665   2.975   2.417 -0.5877 -0.3533  0.1036
 6761TIP3   OH241841   1.525   0.746   0.539  0.1791  0.5486  0.4504
 6761TIP3    H141842   1.443   0.734   0.491  0.7940  0.7796 -0.6966
 6761TIP3    H241843   1.550   0.658   0.567 -0.3325  0.4488  0.5948
 6762TIP3   OH241844   5.814   2.460   1.119  0.0879 -0.1495  0.5998
 6762TIP3    H141845   5.792   2.546   1.156  0.8716  0.5684 -0.5619
 6762TIP3    H241846   5.741   2.441   1.060  0.2531  0.0306  0.3384
 6763TIP3   OH241847   5.035   0.494   0.704  0.1153 -0.0052  0.4981
 6763TIP3    H141848   5.029   0.420   0.765  0.9908 -0.7458 -0.2743
 6763TIP3    H241849   5.109   0.472   0.648  0.0280  1.2023 -0.1130
 6764TIP3   OH241850   6.332   5.002   8.565  0.3534  0.3634  0.1124
 6764TIP3    H141851   6.351   5.045   8.648 -1.6478 -0.8451  1.2898
 6764TIP3    H241852   6.263   5.054   8.525 -0.0799 -0.1576  0.1709
 6765TIP3   OH241853   1.178   5.333   8.525  0.0576  0.2882  0.0362
 6765TIP3    H141854   1.110   5.312   8.462  0.4349  1.1026 -0.6611
 6765TIP3    H241855   1.245   5.379   8.474  1.1701 -0.5403  0.6798
 6766TIP3   OH241856   0.710   4.106   1.085 -0.3130 -0.7215 -0.2292
 6766TIP3    H141857   0.622   4.070   1.082 -0.2664 -0.8030 -0.8389
 6766TIP3    H241858   0.764   4.041   1.040 -0.1169 -0.2229 -0.7403
 6767TIP3   OH241859   6.611   5.861   2.291  0.6101  0.6616 -0.2706
 6767TIP3    H141860   6.691   5.879   2.341 -0.4470  1.5837  1.1576
 6767TIP3    H241861   6.541   5.868   2.355 -0.6619  0.2132 -1.5689
 6768TIP3   OH241862   1.119   0.832   8.707 -0.1939  0.0546  0.2686
 6768TIP3    H141863   1.182   0.903   8.716 -1.0093  0.6043  2.2842
 6768TIP3    H241864   1.051   0.853   8.772 -1.4398 -1.5399 -0.4678
 6769TIP3   OH241865   3.828   6.077   7.283 -1.0355  0.3087 -0.4335
 6769TIP3    H141866   3.903   6.019   7.281 -0.8416 -0.3066  5.9667
 6769TIP3    H241867   3.864   6.164   7.302 -1.7631  0.3496  0.9096
 6770TIP3   OH241868   2.411   2.396   7.695 -0.4293 -0.3820 -0.3058
 6770TIP3    H141869   2.381   2.466   7.753 -0.3411  0.5002 -1.2841
 6770TIP3    H241870   2.507   2.406   7.693 -0.1553 -2.0853  1.4396
 6771TIP3   OH241871   3.922   4.688   1.743  0.8939  0.1961  0.2230
 6771TIP3    H141872   3.846   4.655   1.791 -0.1007  1.0129 -0.7404
 6771TIP3    H241873   3.935   4.776   1.777 -0.1053  0.9579 -1.2744
 6772TIP3   OH241874   1.273   0.191   7.091 -0.2020 -0.7395 -0.0178
 6772TIP3    H141875   1.286   0.158   7.180 -0.3560 -0.0466  0.2707
 6772TIP3    H241876   1.181   0.174   7.072 -0.3791 -0.1479  0.2785
 6773TIP3   OH241877   3.323   0.462   8.394 -0.1606 -0.0615  0.4861
 6773TIP3    H141878   3.276   0.379   8.386 -0.0726 -0.3690  2.6261
 6773TIP3    H241879   3.352   0.482   8.305 -0.3215 -2.2372 -0.1080
 6774TIP3   OH241880   6.076   4.771   0.992 -0.0364 -0.2600  0.0725
 6774TIP3    H141881   6.169   4.788   0.983  0.5101 -2.1064  1.5663
 6774TIP3    H241882   6.050   4.735   0.907  0.8015 -0.5180 -0.0774
 6775TIP3   OH241883   4.159   4.581   8.829  0.0130 -0.7835 -0.1546
 6775TIP3    H141884   4.149   4.516   8.759 -1.9459  0.4645 -1.1209
 6775TIP3    H241885   4.225   4.642   8.794  0.4470 -1.1978 -0.0702
 6776TIP3   OH241886   0.365   6.217   8.516 -0.5276 -0.3606 -0.1657
 6776TIP3    H141887   0.296   6.156   8.542  0.3080 -1.2184  0.0672
 6776TIP3    H241888   0.347   6.297   8.566 -1.6346 -0.3972 -0.4814
 6777TIP3   OH241889   2.877   4.603   7.178 -0.0868  0.5481  0.5461
 6777TIP3    H141890   2.804   4.625   7.235 -2.2237  0.9932 -2.1673
 6777TIP3    H241891   2.927   4.537   7.226 -2.0876  0.4460  2.6136
 6778TIP3   OH241892   4.306   1.055   0.529 -0.1589  0.2172  0.0404
 6778TIP3    H141893   4.246   1.084   0.461  1.1632 -0.2871 -1.4063
 6778TIP3    H241894   4.250   1.016   0.596 -1.4073 -1.1208 -1.6951
 6779TIP3   OH241895   0.448   5.763   1.341 -0.2643 -0.7344  0.4568
 6779TIP3    H141896   0.471   5.813   1.263 -1.6008  0.3664  0.7224
 6779TIP3    H241897   0.505   5.686   1.339  0.2312 -0.3461 -1.1976
 6780TIP3   OH241898   4.184   0.403   2.337  0.2049 -0.2258 -0.2151
 6780TIP3    H141899   4.141   0.381   2.254  1.2555 -0.8601 -0.6119
 6780TIP3    H241900   4.169   0.497   2.348  0.3493 -0.0677 -1.2999
 6781TIP3   OH241901   2.350   5.829   8.006 -0.0766  1.0734 -0.0516
 6781TIP3    H141902   2.381   5.821   8.096 -0.8232  0.0874  0.1399
 6781TIP3    H241903   2.375   5.746   7.964  0.8627  1.7852 -0.9556
 6782TIP3   OH241904   2.080   4.718   8.640  0.1527 -0.1525  0.2377
 6782TIP3    H141905   2.030   4.665   8.702 -1.1989  0.2844 -0.4204
 6782TIP3    H241906   2.171   4.690   8.651 -0.1555 -0.6133  1.8509
 6783TIP3   OH241907   1.022   2.481   8.345  0.0249  0.2516 -0.3954
 6783TIP3    H141908   0.943   2.487   8.292 -1.2021  0.1799  1.3534
 6783TIP3    H241909   1.052   2.572   8.354 -0.2359  0.3492 -0.5150
 6784TIP3   OH241910   0.133   6.074   8.509 -0.3810  0.5183  0.0502
 6784TIP3    H141911   0.154   6.010   8.442 -0.1363  0.5682  0.0778
 6784TIP3    H241912   0.074   6.028   8.568  0.8950 -0.1547  0.8546
 6785TIP3   OH241913   0.559   3.401   2.112 -0.3096  0.4639 -0.0449
 6785TIP3    H141914   0.594   3.490   2.103  1.2705 -0.2300 -1.1650
 6785TIP3    H241915   0.467   3.414   2.136 -0.6908  2.4483 -2.2083
 6786TIP3   OH241916   0.678   1.075   8.576  0.2879  0.2996  0.2718
 6786TIP3    H141917   0.645   0.987   8.594  1.5152  0.1027  1.7182
 6786TIP3    H241918   0.603   1.121   8.538 -0.7421 -0.9891  0.6658
 6787TIP3   OH241919   0.240   1.916   0.335 -0.2601  0.0876  0.0502
 6787TIP3    H141920   0.289   1.990   0.299 -0.1282 -0.2874 -0.5642
 6787TIP3    H241921   0.162   1.910   0.281 -0.9137  0.5626  0.9102
 6788TIP3   OH241922   1.184   2.064   0.043 -0.2456  0.4486  0.3518
 6788TIP3    H141923   1.103   2.061   0.094  0.6162 -0.6569  1.7546
 6788TIP3    H241924   1.198   1.974   0.015  0.2050  0.7343 -0.3594
 6789TIP3   OH241925   1.677   2.489   2.878 -0.0552  0.4932  0.1251
 6789TIP3    H141926   1.673   2.569   2.824  0.1547 -0.2175 -0.9747
 6789TIP3    H241927   1.771   2.476   2.894 -0.1718  1.4729  1.9019
 6790TIP3   OH241928   4.486   4.335   8.732  0.1226  0.0471 -0.5265
 6790TIP3    H141929   4.508   4.428   8.737 -0.2604  0.0872  0.7813
 6790TIP3    H241930   4.570   4.290   8.725  0.2834  0.5045 -1.7907
 6791TIP3   OH241931   1.455   6.063   8.169  0.2095  0.2294 -0.1634
 6791TIP3    H141932   1.497   6.050   8.255  2.0005 -2.0751 -1.2480
 6791TIP3    H241933   1.527   6.088   8.112 -0.4423 -0.7880 -1.4780
 6792TIP3   OH241934   5.392   4.505   1.827 -0.1770  1.0313  0.7031
 6792TIP3    H141935   5.387   4.501   1.922 -1.9453  0.8649  0.6365
 6792TIP3    H241936   5.353   4.423   1.797 -0.4823  1.4783 -0.1822
 6793TIP3   OH241937   0.283   0.976   1.663 -0.3194 -0.8512 -0.1255
 6793TIP3    H141938   0.231   0.916   1.610 -1.4623  0.7009 -0.8273
 6793TIP3    H241939   0.340   0.919   1.715 -1.5766 -2.5334 -0.5240
 6794TIP3   OH241940   4.065   4.348   8.660 -0.5664  0.2463  0.4324
 6794TIP3    H141941   4.062   4.258   8.626 -0.1497  0.3838  0.0197
 6794TIP3    H241942   4.018   4.400   8.594  1.1048  0.6747 -0.4860
 6795TIP3   OH241943   0.247   5.250   7.511 -0.2333 -0.1352 -0.3094
 6795TIP3    H141944   0.163   5.278   7.548  0.8511  1.5234  1.0354
 6795TIP3    H241945   0.270   5.320   7.449  0.5290 -0.1823 -0.0763
 6796TIP3   OH241946   5.912   4.416   1.685 -0.3347 -0.1495 -0.2162
 6796TIP3    H141947   5.867   4.414   1.770  1.1815 -1.0899  0.6069
 6796TIP3    H241948   5.986   4.476   1.698 -1.2376  1.3241 -1.5285
 6797TIP3   OH241949   5.082   5.919   8.573 -0.3756  0.0639 -0.6508
 6797TIP3    H141950   4.997   5.962   8.582  0.2148  0.8931  1.4436
 6797TIP3    H241951   5.066   5.827   8.594 -0.4389  0.5914  1.9123
 6798TIP3   OH241952   5.164   3.870   7.283 -0.5279  0.2975 -0.6781
 6798TIP3    H141953   5.101   3.825   7.339 -0.1563  0.3352 -0.2229
 6798TIP3    H241954   5.170   3.816   7.205 -0.0843 -0.4486 -0.1355
 6799TIP3   OH241955   5.701   3.949   1.371 -0.2364  0.5463 -0.6564
 6799TIP3    H141956   5.726   4.029   1.418  1.0860 -0.6490  0.7750
 6799TIP3    H241957   5.623   3.917   1.417  0.3856 -0.0148  0.0200
 6800TIP3   OH241958   5.120   2.096   1.009  0.2322  0.0136  0.1101
 6800TIP3    H141959   5.089   2.185   1.026  0.6349  0.0784  0.5487
 6800TIP3    H241960   5.193   2.107   0.948  1.6119  0.2044  1.6919
 6801TIP3   OH241961   2.897   0.810   7.654  0.7532  0.7152 -0.2008
 6801TIP3    H141962   2.951   0.816   7.733  0.4891 -0.0174  0.0410
 6801TIP3    H241963   2.933   0.735   7.607 -1.0404 -0.8424  0.7521
 6802TIP3   OH241964   3.429   3.075   2.250 -0.1013  0.9098  0.2906
 6802TIP3    H141965   3.350   3.128   2.239 -0.8181  0.0171  1.0253
 6802TIP3    H241966   3.462   3.099   2.336  0.8247  1.7650 -0.2760
 6803TIP3   OH241967   2.800   3.880   8.431  0.0827  0.1097 -0.2324
 6803TIP3    H141968   2.804   3.963   8.479 -0.4994  1.1144 -1.8630
 6803TIP3    H241969   2.830   3.902   8.343  0.4556 -1.5493 -0.5416
 6804TIP3   OH241970   0.984   5.857   7.250 -0.7587  0.2911  0.5276
 6804TIP3    H141971   0.913   5.921   7.239 -1.8997 -0.9323  0.5660
 6804TIP3    H241972   0.982   5.804   7.171 -2.1759 -1.9293  1.9600
 6805TIP3   OH241973   6.243   0.909   0.363  0.0342  0.0788 -0.4796
 6805TIP3    H141974   6.153   0.876   0.361  0.7156 -2.0699  0.6106
 6805TIP3    H241975   6.259   0.942   0.275 -1.7924  0.4677 -0.7050
 6806TIP3   OH241976   3.654   3.517   7.079 -0.0523 -0.3354 -0.5528
 6806TIP3    H141977   3.608   3.593   7.114 -0.7130 -1.5804  1.4670
 6806TIP3    H241978   3.599   3.487   7.006 -0.8773 -0.0777 -0.0523
 6807TIP3   OH241979   6.468   5.430   1.971 -1.0248  0.2042  0.7093
 6807TIP3    H141980   6.525   5.484   1.917 -0.9424  0.1056  0.6968
 6807TIP3    H241981   6.419   5.492   2.025 -0.1708  0.2507  1.4508
 6808TIP3   OH241982   4.033   4.831   1.261  0.1549  0.0392 -0.4263
 6808TIP3    H141983   4.030   4.918   1.302  2.4161  0.1589 -0.3984
 6808TIP3    H241984   4.014   4.770   1.333  0.2588  0.4283 -0.0672
 6809TIP3   OH241985   4.764   4.968   7.675 -0.1926  0.0587 -0.2180
 6809TIP3    H141986   4.753   5.010   7.590 -0.3977  1.8127  0.6354
 6809TIP3    H241987   4.856   4.984   7.698  0.3366 -1.8574 -0.8096
 6810TIP3   OH241988   5.865   4.806   7.685 -0.1114  0.1826 -0.2930
 6810TIP3    H141989   5.862   4.824   7.591 -0.3931 -1.1340 -0.5605
 6810TIP3    H241990   5.937   4.743   7.695 -0.1348  0.2509  0.3670
 6811TIP3   OH241991   6.147   5.198   8.070  0.5097 -0.4323  0.1359
 6811TIP3    H141992   6.227   5.198   8.018 -0.2073 -2.4654 -1.0562
 6811TIP3    H241993   6.113   5.109   8.063 -2.7760  0.7597 -0.8274
 6812TIP3   OH241994   5.089   0.250   0.434 -0.0421 -0.2161 -0.2783
 6812TIP3    H141995   5.119   0.163   0.460 -0.6319 -0.6408 -0.9633
 6812TIP3    H241996   5.156   0.310   0.466 -0.4522 -0.7412  1.6957
 6813TIP3   OH241997   2.918   5.447   7.891 -0.3284 -0.6128 -0.7086
 6813TIP3    H141998   3.001   5.413   7.857  0.1897  0.6241 -0.7296
 6813TIP3    H241999   2.861   5.370   7.896  0.6758 -1.4096 -1.1053
 6814TIP3   OH242000   5.482   6.041   8.672 -0.0495  0.1895  0.1102
 6814TIP3    H142001   5.493   6.006   8.583  0.7167 -1.8407  0.9536
 6814TIP3    H242002   5.397   6.085   8.669 -0.4722 -0.6312 -1.3935
 6815TIP3   OH242003   0.056   5.215   1.470 -0.0375 -0.1387  0.3577
 6815TIP3    H142004   0.044   5.155   1.396 -0.6051  0.6765 -0.2327
 6815TIP3    H242005   0.127   5.273   1.442  0.2016 -0.2394  0.7403
 6816TIP3   OH242006   1.839   2.019   0.650 -0.0103 -0.2025 -0.2090
 6816TIP3    H142007   1.843   2.003   0.744 -0.4016 -1.2468 -0.3624
 6816TIP3    H242008   1.780   2.095   0.641  1.0327  0.7175  0.4553
 6817TIP3   OH242009   1.235   6.469   7.960 -0.4029 -0.0155  0.1174
 6817TIP3    H142010   1.191   6.445   8.042  0.4467  1.4367  1.0319
 6817TIP3    H242011   1.165   6.505   7.905 -1.0476 -1.3317  0.0242
 6818TIP3   OH242012   5.456   4.270   7.968 -0.9088 -0.1024  0.2380
 6818TIP3    H142013   5.413   4.279   7.883 -0.0477  4.0727  0.0006
 6818TIP3    H242014   5.411   4.333   8.025  1.2637  0.3911  1.5567
 6819TIP3   OH242015   5.907   3.073   7.718 -0.5952  0.2818 -0.5268
 6819TIP3    H142016   5.979   3.021   7.752 -1.3935  1.4738  3.4276
 6819TIP3    H242017   5.845   3.008   7.685  0.9316 -0.8926 -1.2225
 6820TIP3   OH242018   1.013   1.652   2.548 -0.2024  0.5606 -0.3620
 6820TIP3    H142019   0.972   1.570   2.521  0.6852 -0.2942  0.7712
 6820TIP3    H242020   0.992   1.660   2.641 -1.1291  2.1638 -0.6712
 6821TIP3   OH242021   3.993   2.741   0.637  0.1385  0.1592 -0.3135
 6821TIP3    H142022   4.078   2.697   0.643 -0.8164 -1.6922  0.6788
 6821TIP3    H242023   3.977   2.776   0.724  0.1696  1.1250 -0.6816
 6822TIP3   OH242024   2.773   4.993   1.035 -0.1065 -0.2576  0.3364
 6822TIP3    H142025   2.738   5.003   1.123 -0.7388  1.4542 -0.0783
 6822TIP3    H242026   2.704   4.946   0.988 -1.4673  2.0755 -0.1655
 6823TIP3   OH242027   0.698   1.348   1.714  0.2482 -0.0195  0.3473
 6823TIP3    H142028   0.645   1.410   1.665  1.0030  1.0872  0.8930
 6823TIP3    H242029   0.788   1.365   1.686  0.3430 -2.1310 -0.8538
 6824TIP3   OH242030   2.540   0.217   8.703  0.5913 -0.3519  0.2430
 6824TIP3    H142031   2.581   0.161   8.637 -0.4733  0.9067 -1.6171
 6824TIP3    H242032   2.499   0.287   8.651 -2.2698 -0.5149  2.0583
 6825TIP3   OH242033   4.105   1.073   0.131  0.1268  0.2943  0.7057
 6825TIP3    H142034   4.178   1.128   0.104  0.4683 -0.3271  0.3590
 6825TIP3    H242035   4.083   1.104   0.219  1.2544  0.0323  1.0958
 6826TIP3   OH242036   0.237   1.499   7.547 -0.0580 -0.3182  0.7107
 6826TIP3    H142037   0.268   1.543   7.626 -1.4391 -0.3576  1.3139
 6826TIP3    H242038   0.147   1.529   7.537 -0.6949 -2.1282  0.5280
 6827TIP3   OH242039   6.643   6.680   7.676 -0.5970 -0.4350 -0.4055
 6827TIP3    H142040   6.708   6.610   7.672  1.6193  1.5007 -0.4080
 6827TIP3    H242041   6.597   6.675   7.592  0.4275 -1.0788 -0.9451
 6828TIP3   OH242042   3.051   3.279   0.899 -0.3581  0.2920  0.1620
 6828TIP3    H142043   3.059   3.211   0.967 -1.6203 -0.8362 -0.7675
 6828TIP3    H242044   3.030   3.359   0.948  0.6837 -0.0629  1.2429
 6829TIP3   OH242045   6.465   4.394   7.135 -0.4017 -0.3731 -0.3832
 6829TIP3    H142046   6.533   4.327   7.122  1.1638  0.8333  1.0736
 6829TIP3    H242047   6.385   4.344   7.149  0.4248 -1.8994 -0.7990
 6830TIP3   OH242048   5.173   2.420   0.639 -0.2765 -0.2934  0.6022
 6830TIP3    H142049   5.230   2.476   0.586 -0.2112  0.4119  1.4026
 6830TIP3    H242050   5.232   2.359   0.682 -0.4142 -1.5805 -0.9162
 6831TIP3   OH242051   2.172   0.152   7.226  0.0704  0.0333 -0.5148
 6831TIP3    H142052   2.154   0.068   7.269  1.6412 -0.0024  0.1676
 6831TIP3    H242053   2.102   0.162   7.162 -1.8632 -0.3694  1.4175
 6832TIP3   OH242054   2.675   6.605   2.686 -0.1583 -0.1559  0.4974
 6832TIP3    H142055   2.763   6.636   2.663 -0.3217 -1.4661 -2.3075
 6832TIP3    H242056   2.625   6.685   2.704  0.5451  0.9969 -2.1762
 6833TIP3   OH242057   5.552   6.559   0.433  0.0116 -0.2000  0.1394
 6833TIP3    H142058   5.602   6.581   0.511  1.1176  2.4835 -1.1676
 6833TIP3    H242059   5.467   6.600   0.447 -0.3936 -1.1625  0.5946
 6834TIP3   OH242060   1.371   6.400   8.753 -0.0150  0.1181  0.2148
 6834TIP3    H142061   1.447   6.457   8.746 -1.4415  2.3072  1.3930
 6834TIP3    H242062   1.392   6.339   8.824  0.4715  0.9697  0.8130
 6835TIP3   OH242063   5.867   1.594   8.299 -0.2012  0.2397  0.0089
 6835TIP3    H142064   5.939   1.602   8.362  0.8951 -2.4198 -0.7471
 6835TIP3    H242065   5.805   1.535   8.343 -0.8013  0.6616 -0.2737
 6836TIP3   OH242066   5.103   6.201   0.094 -0.1056  0.4788  0.4068
 6836TIP3    H142067   5.077   6.290   0.069 -1.2900 -0.1859 -0.8373
 6836TIP3    H242068   5.034   6.173   0.155  0.1598  0.3323  0.6414
 6837TIP3   OH242069   6.276   2.186   8.341 -0.3406 -0.6462  0.0714
 6837TIP3    H142070   6.223   2.166   8.418  0.5190  1.8444  1.4016
 6837TIP3    H242071   6.213   2.218   8.276 -0.8187 -0.7636  0.4720
 6838TIP3   OH242072   4.714   1.380   1.472 -0.1602  0.1840 -0.3957
 6838TIP3    H142073   4.649   1.450   1.477 -0.9653 -0.5826  0.3251
 6838TIP3    H242074   4.681   1.313   1.532  1.2623 -0.2684 -0.0863
 6839TIP3   OH242075   0.260   0.266   8.548 -0.6413 -0.0494 -0.7080
 6839TIP3    H142076   0.188   0.244   8.490 -0.3039 -1.0007 -0.7843
 6839TIP3    H242077   0.237   0.226   8.631  0.2942 -1.2916 -1.0283
 6840TIP3   OH242078   4.587   4.100   7.835  0.2239  0.1376 -0.6236
 6840TIP3    H142079   4.550   4.152   7.763  0.1158  2.0641  0.7487
 6840TIP3    H242080   4.681   4.117   7.831  0.1504  0.7296  0.0306
 6841TIP3   OH242081   6.763   0.045   0.062 -0.0182  0.2193  0.6766
 6841TIP3    H142082   6.737   0.106  -0.007 -2.5008 -2.5018 -1.0207
 6841TIP3    H242083   6.783  -0.036   0.016 -1.2505 -1.5886  3.0977
 6842TIP3   OH242084   6.027   2.283   1.755  0.1792  1.2012  0.5930
 6842TIP3    H142085   6.031   2.242   1.841 -1.4006 -0.5138 -0.0710
 6842TIP3    H242086   6.059   2.372   1.769 -1.7902  1.6091  3.3787
 6843TIP3   OH242087   5.357   3.673   1.847 -0.0404 -0.2334 -0.6842
 6843TIP3    H142088   5.281   3.731   1.841 -0.2699 -0.2920  1.0943
 6843TIP3    H242089   5.431   3.732   1.861  0.0649 -0.2531 -1.1406
 6844TIP3   OH242090   4.872   3.573   0.176 -0.6291  0.0878  0.0918
 6844TIP3    H142091   4.929   3.496   0.179  1.3201  1.4513  0.2318
 6844TIP3    H242092   4.845   3.587   0.267 -1.5283 -0.7708 -0.0261
 6845TIP3   OH242093   1.720   6.789   7.676 -0.0936 -0.0763  0.2489
 6845TIP3    H142094   1.687   6.870   7.637  2.2250 -0.5147 -3.0055
 6845TIP3    H242095   1.774   6.819   7.749 -2.0825  1.0057  1.3526
 6846TIP3   OH242096   0.400   4.640   1.648  0.2561 -0.0050 -0.6227
 6846TIP3    H142097   0.462   4.708   1.625 -0.9291  1.1778 -0.4823
 6846TIP3    H242098   0.321   4.688   1.675 -1.0641 -1.4425 -1.7495
 6847TIP3   OH242099   5.513   1.110   7.421  0.4848  0.1919 -0.3670
 6847TIP3    H142100   5.485   1.134   7.333 -0.0990 -1.5217 -0.6678
 6847TIP3    H242101   5.461   1.167   7.479 -0.6020 -0.0598 -1.0674
 6848TIP3   OH242102   2.481   2.277   0.270 -1.0496 -0.5938 -0.2601
 6848TIP3    H142103   2.503   2.309   0.358 -2.1497  1.0852 -0.5365
 6848TIP3    H242104   2.512   2.346   0.212 -0.8651 -1.4131 -1.1500
 6849TIP3   OH242105   6.316   6.747   7.214  0.1835 -0.2601  0.7460
 6849TIP3    H142106   6.358   6.661   7.211  1.2192  0.2581 -0.1853
 6849TIP3    H242107   6.227   6.730   7.184  0.5935 -0.9020 -0.1740
 6850TIP3   OH242108   6.294   4.672   2.114 -0.0457  0.0423  0.1060
 6850TIP3    H142109   6.227   4.654   2.180 -0.0843 -1.3573 -0.2751
 6850TIP3    H242110   6.284   4.765   2.094 -0.8744  0.1928  1.1390
 6851TIP3   OH242111   2.720   3.586   7.699  0.3451  0.0849  0.3455
 6851TIP3    H142112   2.674   3.505   7.677  0.5422 -0.0967  0.5877
 6851TIP3    H242113   2.732   3.631   7.616 -2.3732  1.2908  0.5099
 6852TIP3   OH242114   3.583   6.110   8.412 -0.4867  1.3005 -0.6330
 6852TIP3    H142115   3.531   6.150   8.481  0.5276  1.7227 -0.0834
 6852TIP3    H242116   3.558   6.018   8.412  2.3006  0.2991  3.1433
 6853TIP3   OH242117   5.157   3.070   8.368 -0.1462 -0.0122 -0.1694
 6853TIP3    H142118   5.123   3.024   8.445 -1.1638  1.9381  0.6309
 6853TIP3    H242119   5.233   3.019   8.341 -2.1986 -3.1385 -0.4848
 6854TIP3   OH242120   3.107   0.401   0.729 -0.2560 -0.2430  0.3388
 6854TIP3    H142121   3.084   0.472   0.788 -1.1136  0.7903 -1.1573
 6854TIP3    H242122   3.096   0.322   0.781 -3.8691  0.3996  0.8511
 6855TIP3   OH242123   4.332   6.026   1.216  0.2487  0.1040  0.2292
 6855TIP3    H142124   4.348   6.070   1.133 -1.7790  0.8212  0.1477
 6855TIP3    H242125   4.364   5.937   1.203  1.5743  0.6769 -0.6868
 6856TIP3   OH242126   0.285   5.535   7.768  0.3554  1.0016 -0.0960
 6856TIP3    H142127   0.304   5.616   7.815 -0.7356  1.4880 -0.4698
 6856TIP3    H242128   0.216   5.558   7.706 -0.2488 -0.2928  0.0569
 6857TIP3   OH242129   1.642   0.918   8.306 -0.1033  0.1478  0.1632
 6857TIP3    H142130   1.728   0.905   8.267 -0.4755 -0.3306 -0.5077
 6857TIP3    H242131   1.638   1.012   8.323  0.4728  0.2020  0.0283
 6858TIP3   OH242132   1.457   5.365   8.183  0.6183  0.4012 -0.4061
 6858TIP3    H142133   1.468   5.325   8.098  0.1652 -0.0681 -0.2523
 6858TIP3    H242134   1.386   5.428   8.171 -0.3138 -0.5530 -0.0994
 6859TIP3   OH242135   2.873   5.418   1.722 -0.0025 -0.4192 -0.2743
 6859TIP3    H142136   2.932   5.484   1.686  0.9026 -0.6274  0.7857
 6859TIP3    H242137   2.909   5.334   1.694 -0.2397 -0.5251 -0.2708
 6860TIP3   OH242138   0.990   2.830   2.367 -0.3688 -0.0379  0.0561
 6860TIP3    H142139   1.063   2.870   2.414  0.3834  0.7314 -1.6873
 6860TIP3    H242140   1.032   2.777   2.299 -1.4251 -0.3528 -0.3681
 6861TIP3   OH242141   5.368   6.403   7.724  0.3651  0.4906 -0.2893
 6861TIP3    H142142   5.294   6.464   7.734  0.0957  0.0786  0.2355
 6861TIP3    H242143   5.355   6.365   7.637 -0.0322  0.4327 -0.2082
 6862TIP3   OH242144   2.495   3.515   1.946  0.3084 -0.4388 -0.6722
 6862TIP3    H142145   2.586   3.541   1.958  0.0442  0.2713 -0.0981
 6862TIP3    H242146   2.447   3.565   2.013 -0.4068 -1.3548 -0.4828
 6863TIP3   OH242147   6.602   2.991   8.023  0.5178  0.0672 -0.3231
 6863TIP3    H142148   6.633   2.917   8.074 -0.1767 -0.6305 -0.8848
 6863TIP3    H242149   6.649   2.984   7.940  1.3036  0.9318  0.0304
 6864TIP3   OH242150   1.477   3.537   1.258 -0.2635  0.1597 -0.2606
 6864TIP3    H142151   1.550   3.485   1.291  0.0124  0.7704  0.0989
 6864TIP3    H242152   1.505   3.567   1.171  0.4696  1.4796  0.4021
 6865TIP3   OH242153   6.695   2.342   7.810  0.0021  0.2380 -0.2060
 6865TIP3    H142154   6.600   2.344   7.797  0.0901  0.3149 -0.8758
 6865TIP3    H242155   6.727   2.422   7.769  0.3617  0.1802 -0.0413
 6866TIP3   OH242156   1.126   4.622   2.712  0.1488  0.3878  0.1491
 6866TIP3    H142157   1.053   4.636   2.772  0.1025  2.4802 -0.3391
 6866TIP3    H242158   1.085   4.595   2.630 -0.0315  0.8501  0.0851
 6867TIP3   OH242159   6.401   4.535   0.991  0.2655  0.1735  0.2498
 6867TIP3    H142160   6.329   4.573   0.939  1.5902  2.0098 -0.3587
 6867TIP3    H242161   6.430   4.460   0.940  0.3928  0.9051 -0.7990
 6868TIP3   OH242162   5.542   1.163   1.211  0.4443  0.1278  0.1970
 6868TIP3    H142163   5.501   1.188   1.128  0.2447  2.4620  0.9397
 6868TIP3    H242164   5.470   1.128   1.264 -0.2942  2.3779  0.7790
 6869TIP3   OH242165   1.996   4.874   1.411 -0.0104 -0.0991 -0.2515
 6869TIP3    H142166   1.993   4.812   1.484  0.3802  0.7383  0.4888
 6869TIP3    H242167   1.950   4.952   1.443  0.5512  0.4500 -0.7329
 6870TIP3   OH242168   5.301   3.033   6.956 -0.0840 -0.8447  0.2164
 6870TIP3    H142169   5.387   3.063   6.984  0.0369  0.0783 -1.0697
 6870TIP3    H242170   5.252   3.021   7.038  0.6197  0.6223  0.9011
 6871TIP3   OH242171   1.267   2.363   1.848  0.2319 -0.3065 -0.0390
 6871TIP3    H142172   1.174   2.344   1.839  0.4352 -0.8931 -1.0115
 6871TIP3    H242173   1.311   2.278   1.841  0.8338 -0.0792  0.7278
 6872TIP3   OH242174   1.629   1.754   0.712  0.1085  0.2352 -0.2288
 6872TIP3    H142175   1.586   1.791   0.789 -1.4877 -0.2697 -0.8400
 6872TIP3    H242176   1.618   1.821   0.644  1.8306  0.8379  0.0274
 6873TIP3   OH242177   1.335   0.012   1.529  0.1938 -0.1958 -0.2310
 6873TIP3    H142178   1.263   0.040   1.587 -0.2658 -1.4054 -0.1886
 6873TIP3    H242179   1.316   0.053   1.445  1.1288  1.9901  0.5481
 6874TIP3   OH242180   1.825   0.479   0.260 -0.1167 -0.5006  0.1970
 6874TIP3    H142181   1.798   0.430   0.338 -2.5719 -0.7795 -0.7526
 6874TIP3    H242182   1.797   0.425   0.186  1.5916  0.0601 -0.9429
 6875TIP3   OH242183   2.559   2.341   1.931 -0.6812  0.2851 -0.1800
 6875TIP3    H142184   2.545   2.383   1.846 -0.4475  1.0168  0.1329
 6875TIP3    H242185   2.610   2.405   1.981 -0.4143 -0.3332  0.3486
 6876TIP3   OH242186   4.166   3.912   1.121 -0.5229 -0.1481 -0.0299
 6876TIP3    H142187   4.132   3.946   1.038  0.6963  1.1211 -0.0373
 6876TIP3    H242188   4.226   3.842   1.094 -1.4225 -0.9209 -0.1073
 6877TIP3   OH242189   5.958   4.850   0.032 -0.0396  0.7075  0.5960
 6877TIP3    H142190   5.933   4.942   0.025  2.7337  1.7266  2.3360
 6877TIP3    H242191   6.007   4.845   0.114 -0.8211 -2.5497  1.0035
 6878TIP3   OH242192   2.971   0.473   2.456 -0.3641  0.0383 -0.7572
 6878TIP3    H142193   2.912   0.491   2.529  1.5442 -0.5900  1.0523
 6878TIP3    H242194   2.979   0.377   2.455  0.8851  0.1283 -0.7214
 6879TIP3   OH242195   3.279   3.630   0.584 -0.3875 -0.6465 -0.3088
 6879TIP3    H142196   3.259   3.606   0.674 -0.6889 -1.1518 -0.5036
 6879TIP3    H242197   3.222   3.573   0.531 -0.2070 -0.3633 -0.8132
 6880TIP3   OH242198   6.696   3.010   2.350  0.3783 -0.0968 -0.0077
 6880TIP3    H142199   6.626   3.054   2.302  1.2390  0.2053 -1.0204
 6880TIP3    H242200   6.703   2.924   2.310 -0.5708 -0.7963  1.2572
 6881TIP3   OH242201   2.561   4.945   1.834 -0.0648 -0.5282  0.2811
 6881TIP3    H142202   2.549   4.851   1.848 -1.5926 -0.3656  0.2673
 6881TIP3    H242203   2.472   4.980   1.831  0.4973  1.0741  1.2878
 6882TIP3   OH242204   1.556   5.532   0.013 -0.1514  0.7069  0.1812
 6882TIP3    H142205   1.466   5.563   0.010 -0.0980  0.8454 -2.9477
 6882TIP3    H242206   1.557   5.467   0.083 -2.8807  0.1196 -0.2332
 6883TIP3   OH242207   0.927   0.036   0.231  0.3791  0.0120  0.2000
 6883TIP3    H142208   0.863   0.071   0.169  1.4119  2.1715  0.2351
 6883TIP3    H242209   0.888  -0.044   0.264 -0.9734 -0.2967 -1.9489
 6884TIP3   OH242210   4.742   4.333   8.534  0.1808 -0.0011  0.3619
 6884TIP3    H142211   4.740   4.271   8.608  0.3005 -0.3870  0.0468
 6884TIP3    H242212   4.783   4.411   8.570 -0.2424  0.0063  0.8518
 6885TIP3   OH242213   2.715   1.291   7.677 -0.3669  0.5821 -0.0170
 6885TIP3    H142214   2.651   1.360   7.658 -0.8277 -0.0787 -0.9347
 6885TIP3    H242215   2.735   1.253   7.591  0.4799  0.0902  0.3839
 6886TIP3   OH242216   6.636   1.962   1.196  0.1822  0.0031  0.0134
 6886TIP3    H142217   6.635   1.981   1.102 -2.5116 -1.0543 -0.2454
 6886TIP3    H242218   6.643   2.049   1.238 -0.5090  0.6548 -1.1706
 6887TIP3   OH242219   5.831   5.070   8.284  0.3979 -0.2121 -0.3518
 6887TIP3    H142220   5.816   5.048   8.192 -2.8553  0.7202 -0.1831
 6887TIP3    H242221   5.837   4.985   8.328  1.0690 -0.6628 -1.2731
 6888TIP3   OH242222   6.561   1.934   2.257 -0.0228 -0.5936 -0.0807
 6888TIP3    H142223   6.619   1.871   2.215 -0.0595 -0.3687 -0.4772
 6888TIP3    H242224   6.473   1.907   2.231 -0.1425 -1.2958  1.0172
 6889TIP3   OH242225   5.934   1.912   7.744 -0.5225 -0.3028  0.0359
 6889TIP3    H142226   5.937   1.869   7.829  0.1417 -0.8878 -0.2694
 6889TIP3    H242227   5.974   1.849   7.684 -0.2713  0.4125 -0.5645
 6890TIP3   OH242228   5.249   1.706   8.501 -0.0566 -0.3934  0.4154
 6890TIP3    H142229   5.306   1.688   8.427 -0.3689 -0.5416  0.2113
 6890TIP3    H242230   5.260   1.631   8.559 -1.9797 -1.6886 -0.8133
 6891TIP3   OH242231   0.794   3.407   7.797 -0.3513 -0.1255 -0.2396
 6891TIP3    H142232   0.867   3.355   7.829 -0.9211 -1.9110 -1.6556
 6891TIP3    H242233   0.754   3.444   7.876  0.4856 -1.2977  0.7762
 6892TIP3   OH242234   1.035   0.831   8.239  0.1900  0.0564  0.5547
 6892TIP3    H142235   0.944   0.814   8.266 -0.2471  0.3191 -0.6866
 6892TIP3    H242236   1.032   0.918   8.199  1.1036  0.2930  0.9951
 6893TIP3   OH242237   3.578   1.551   1.326  0.7386 -0.0226 -0.8295
 6893TIP3    H142238   3.602   1.459   1.317  0.0952 -0.2664 -0.1550
 6893TIP3    H242239   3.482   1.551   1.330  0.7757  0.5304  0.5514
 6894TIP3   OH242240   0.819   0.875   8.006  0.4193 -0.2779  0.4224
 6894TIP3    H142241   0.908   0.884   7.972  0.2631 -0.1950  0.0341
 6894TIP3    H242242   0.787   0.792   7.970  0.2512 -0.1859  0.3549
 6895TIP3   OH242243   1.722   5.591   1.900  0.6246  0.5250 -0.0968
 6895TIP3    H142244   1.627   5.598   1.888  0.5739  0.9830  0.5027
 6895TIP3    H242245   1.746   5.672   1.945  1.2684  0.3073 -0.0409
 6896TIP3   OH242246   5.792   1.976   8.191 -0.6549 -0.0364 -0.3028
 6896TIP3    H142247   5.843   2.053   8.215  1.5538 -1.3144 -0.6148
 6896TIP3    H242248   5.770   1.935   8.274 -0.5401  0.1356 -0.1875
 6897TIP3   OH242249   4.386   5.110   2.053  0.5110 -0.1315 -0.0921
 6897TIP3    H142250   4.455   5.164   2.091  0.0753 -0.6845  1.5502
 6897TIP3    H242251   4.432   5.033   2.020  0.6247 -0.9440  1.8428
 6898TIP3   OH242252   4.188   2.403   0.900 -0.7646 -0.6726 -0.5243
 6898TIP3    H142253   4.136   2.418   0.979 -0.9240 -0.7588 -0.6098
 6898TIP3    H242254   4.267   2.359   0.930 -0.4063  0.1029 -0.3044
 6899TIP3   OH242255   1.108   1.405   1.821 -0.5411 -0.1579  0.0550
 6899TIP3    H142256   1.169   1.478   1.825 -0.1416 -0.3320 -1.8404
 6899TIP3    H242257   1.079   1.393   1.912 -0.9690  2.6023  0.3738
 6900TIP3   OH242258   0.071   6.678   8.310 -0.1609  0.0503 -0.1003
 6900TIP3    H142259   0.140   6.721   8.359 -1.0236  1.0024  0.3148
 6900TIP3    H242260   0.112   6.600   8.274  1.2572  0.8683 -0.3112
 6901TIP3   OH242261   2.795   2.874   0.819 -0.3678  0.0196 -0.0634
 6901TIP3    H142262   2.720   2.850   0.874 -1.7138  0.9605 -1.4104
 6901TIP3    H242263   2.799   2.805   0.753  1.7057 -1.5159  1.5199
 6902TIP3   OH242264   0.198   5.018   8.711 -0.2612 -0.2249  0.2861
 6902TIP3    H142265   0.289   5.045   8.720 -0.5706  0.4068  2.1013
 6902TIP3    H242266   0.201   4.922   8.711  0.3381 -0.2308  1.7743
 6903TIP3   OH242267   1.226   4.702   7.882 -1.1212 -0.2647  0.5239
 6903TIP3    H142268   1.160   4.764   7.849 -0.3345  0.0712 -0.4810
 6903TIP3    H242269   1.238   4.726   7.973 -2.4844 -0.4230  0.7741
 6904TIP3   OH242270   5.473   4.709   2.169 -0.5379 -0.8835 -0.2874
 6904TIP3    H142271   5.387   4.742   2.194 -1.1373 -2.2237 -0.4833
 6904TIP3    H242272   5.528   4.787   2.160 -1.4424 -0.0887  0.8834
 6905TIP3   OH242273   0.145   0.107   1.841  0.3160 -1.0127  0.1732
 6905TIP3    H142274   0.125   0.151   1.924 -1.5896 -1.7384  0.1531
 6905TIP3    H242275   0.214   0.044   1.863  1.2913  0.2195  0.7350
 6906TIP3   OH242276   4.766   2.600   8.496 -0.3111  0.0422  0.5681
 6906TIP3    H142277   4.676   2.565   8.493 -0.9488  1.6207 -0.8300
 6906TIP3    H242278   4.755   2.692   8.521  0.8882  0.3053  0.1935
 6907TIP3   OH242279   6.356   0.816   7.607  0.1047 -0.4965 -0.9731
 6907TIP3    H142280   6.418   0.748   7.632  0.7148  0.0948 -0.8237
 6907TIP3    H242281   6.405   0.873   7.547 -0.3004 -0.0391 -0.8816
 6908TIP3   OH242282   5.591   3.949   7.810  0.5211  0.2671  0.2511
 6908TIP3    H142283   5.584   3.983   7.899  1.1662 -1.3970  0.9769
 6908TIP3    H242284   5.510   3.978   7.767 -0.0428  0.6576  1.5224
 6909TIP3   OH242285   0.961   1.911   0.136 -0.2494  0.1108 -0.3424
 6909TIP3    H142286   0.931   1.866   0.057  1.1349  0.8568 -1.3395
 6909TIP3    H242287   0.961   1.843   0.204 -1.2579 -0.5974 -1.0238
 6910TIP3   OH242288   3.736   0.734   6.945 -1.1908 -0.1405 -0.3024
 6910TIP3    H142289   3.754   0.654   6.995 -1.6965  0.3094  0.6221
 6910TIP3    H242290   3.678   0.785   7.001 -0.4757  1.1085 -0.6690
 6911TIP3   OH242291   3.700   4.214   1.026 -0.0247  0.0360  0.4741
 6911TIP3    H142292   3.653   4.245   1.103 -1.3447 -1.2237  0.2259
 6911TIP3    H242293   3.759   4.286   1.003 -0.9164  1.1629  1.5660
 6912TIP3   OH242294   3.359   0.920   0.307  0.1361 -0.7049  0.1080
 6912TIP3    H142295   3.363   0.918   0.403  0.0351 -3.4488  0.1265
 6912TIP3    H242296   3.448   0.899   0.279  0.1166 -0.1117 -0.3950
 6913TIP3   OH242297   2.485   6.699   2.087 -0.7171 -0.5930  0.1431
 6913TIP3    H142298   2.447   6.784   2.066 -0.6529 -0.3747  0.8790
 6913TIP3    H242299   2.414   6.651   2.130 -0.7909 -0.9616 -0.3791
 6914TIP3   OH242300   4.881   3.033   2.150  0.0758 -0.7860  0.0046
 6914TIP3    H142301   4.795   3.023   2.191 -0.8695 -0.1475 -1.7102
 6914TIP3    H242302   4.896   3.128   2.149 -0.4287 -0.6697 -1.9642
 6915TIP3   OH242303   0.447   1.191   0.004  0.0782 -0.1339 -0.2253
 6915TIP3    H142304   0.435   1.108   0.050  1.1802  0.4429  1.1673
 6915TIP3    H242305   0.523   1.231   0.046 -0.5994  1.7232 -0.6833
 6916TIP3   OH242306   5.388   5.194   7.682  0.2617 -0.5890 -0.1959
 6916TIP3    H142307   5.454   5.126   7.693 -0.6256 -1.6977 -1.4680
 6916TIP3    H242308   5.395   5.219   7.590 -0.5966 -0.1786 -0.1586
 6917TIP3   OH242309   2.566   1.578   8.278  0.1919  0.5090 -0.0032
 6917TIP3    H142310   2.599   1.610   8.194 -1.0669 -1.1281 -1.1945
 6917TIP3    H242311   2.606   1.492   8.288  1.2436  1.1450  1.7039
 6918TIP3   OH242312   3.453   5.828   0.790 -1.2246 -0.0583  0.4175
 6918TIP3    H142313   3.450   5.897   0.724 -0.2007 -0.8700 -0.5390
 6918TIP3    H242314   3.362   5.814   0.814 -1.4227  1.8682  0.9337
 6919TIP3   OH242315   1.673   2.188   1.516 -0.2256 -0.3068 -0.5875
 6919TIP3    H142316   1.624   2.249   1.572  0.4153 -0.7787  0.5060
 6919TIP3    H242317   1.737   2.243   1.471 -2.3276  0.5229 -2.8566
 6920TIP3   OH242318   5.118   2.477   7.590 -0.2422  0.2865 -0.1783
 6920TIP3    H142319   5.167   2.433   7.660 -1.9398 -1.1846  0.1729
 6920TIP3    H242320   5.151   2.437   7.509  0.6441  0.8811 -0.1199
 6921TIP3   OH242321   5.899   0.066   6.535  0.0603 -0.5795 -0.0814
 6921TIP3    H142322   5.968   0.124   6.569  2.3579 -1.2473 -3.1702
 6921TIP3    H242323   5.936  -0.022   6.542 -0.7705 -1.0256 -1.0757
 6922TIP3   OH242324   1.105   0.079   1.682 -0.0091  0.1959  0.5150
 6922TIP3    H142325   1.121   0.014   1.750  1.3714 -0.1526 -0.1128
 6922TIP3    H242326   1.011   0.098   1.689 -0.1096 -0.6186  1.7918
 6923TIP3   OH242327   3.839   1.490   2.706 -0.4921 -0.2770  0.1695
 6923TIP3    H142328   3.877   1.427   2.766  1.4486 -1.4910 -2.1401
 6923TIP3    H242329   3.910   1.509   2.644 -2.1537  1.3958 -1.3389
 6924TIP3   OH242330   6.030   2.708   8.656  0.2969 -0.8856 -0.4115
 6924TIP3    H142331   5.985   2.747   8.581 -0.7082  2.1731  1.6082
 6924TIP3    H242332   5.982   2.627   8.673 -0.4236 -0.8526 -2.0816
 6925TIP3   OH242333   2.969   4.142   1.245  0.4139  0.4739  0.1706
 6925TIP3    H142334   2.985   4.098   1.328 -0.4666  0.3736  0.2902
 6925TIP3    H242335   2.897   4.094   1.205  1.4748 -0.1084 -1.1278
 6926TIP3   OH242336   0.541   2.685   1.545  0.1382  0.4437  0.2172
 6926TIP3    H142337   0.489   2.615   1.506  3.9198 -1.6011 -1.6781
 6926TIP3    H242338   0.534   2.757   1.482 -3.7614  2.1177  2.1738
 6927TIP3   OH242339   6.603   1.598   7.833 -0.2379  0.6242 -0.5081
 6927TIP3    H142340   6.649   1.679   7.811  0.9162  0.9128  2.5502
 6927TIP3    H242341   6.650   1.530   7.785 -0.1227  1.5394 -1.7385
 6928TIP3   OH242342   6.622   6.313   8.562 -0.2819 -0.0203  0.0658
 6928TIP3    H142343   6.571   6.304   8.642 -0.0157 -0.3950  0.1974
 6928TIP3    H242344   6.611   6.404   8.536 -0.8999 -0.0565  0.1694
 6929TIP3   OH242345   0.214   2.571   1.118 -0.0853 -0.3213  0.6503
 6929TIP3    H142346   0.230   2.490   1.068  2.1715 -0.2245  1.1069
 6929TIP3    H242347   0.136   2.608   1.078  1.6321 -0.1654 -3.0006
 6930TIP3   OH242348   6.314   1.318   0.139 -0.2618  0.1240  0.0558
 6930TIP3    H142349   6.252   1.365   0.195  0.3410  0.5458  0.3801
 6930TIP3    H242350   6.318   1.370   0.059  0.4674  0.6859  0.4467
 6931TIP3   OH242351   5.769   6.668   1.307 -0.7025  0.3130 -0.5397
 6931TIP3    H142352   5.771   6.755   1.347  1.0125 -0.2284  0.6645
 6931TIP3    H242353   5.814   6.680   1.223  0.3177  0.4489  0.0048
 6932TIP3   OH242354   3.486   3.713   7.134  0.3473  0.4101  0.1075
 6932TIP3    H142355   3.460   3.709   7.226 -0.0097 -0.0483 -0.0105
 6932TIP3    H242356   3.494   3.807   7.115 -3.5775  0.7949 -0.4990
 6933TIP3   OH242357   3.576   6.199   7.151 -0.1217 -0.1195 -0.4817
 6933TIP3    H142358   3.589   6.218   7.057 -0.2600  0.3273 -0.4154
 6933TIP3    H242359   3.631   6.263   7.196 -1.3021  0.7575 -0.2281
 6934TIP3   OH242360   5.369   3.208   1.406 -0.2098  0.2258 -0.0414
 6934TIP3    H142361   5.400   3.121   1.432  1.2872  0.1405 -1.8686
 6934TIP3    H242362   5.282   3.215   1.445  0.1788 -1.5212  1.2944
 6935TIP3   OH242363   3.235   0.939   1.472  0.1913 -0.1196 -0.3542
 6935TIP3    H142364   3.246   0.876   1.543 -0.1297  0.5740  0.3251
 6935TIP3    H242365   3.154   0.985   1.492 -0.3653 -0.4859 -1.6331
 6936TIP3   OH242366   2.721   2.049   0.716  0.3218 -0.1214  0.3380
 6936TIP3    H142367   2.716   1.968   0.767  1.3905 -0.2263  0.3014
 6936TIP3    H242368   2.815   2.069   0.713  0.1414  0.6395 -0.4034
 6937TIP3   OH242369   3.361   3.851   1.157  0.0800  0.2233  0.1831
 6937TIP3    H142370   3.314   3.883   1.080  0.6057  0.8801  0.1284
 6937TIP3    H242371   3.339   3.913   1.227  0.3867  0.1977  0.3077
 6938TIP3   OH242372   3.518   6.557   0.062  0.0549 -0.4474  0.6263
 6938TIP3    H142373   3.589   6.557   0.126  0.2074  1.3496  0.4870
 6938TIP3    H242374   3.560   6.580  -0.021 -0.8884  2.6896  0.8829
 6939TIP3   OH242375   3.780   3.402   8.457 -0.0815 -0.9787 -0.2104
 6939TIP3    H142376   3.872   3.382   8.470  0.2516  0.0941 -0.7356
 6939TIP3    H242377   3.734   3.320   8.473  0.9158 -1.4074  0.5350
 6940TIP3   OH242378   1.351   2.250   0.816  0.3928 -0.1674  0.0101
 6940TIP3    H142379   1.438   2.228   0.782  1.2260  2.7296  0.0168
 6940TIP3    H242380   1.358   2.239   0.910  2.1260  3.7392  0.4998
 6941TIP3   OH242381   0.163   2.163   8.532  0.3079  0.7649  0.3922
 6941TIP3    H142382   0.254   2.147   8.508  0.3583 -1.6420  1.8020
 6941TIP3    H242383   0.168   2.230   8.600  1.0673  0.5098  0.6022
 6942TIP3   OH242384   0.332   1.582   1.666 -0.4085  0.3239  0.0207
 6942TIP3    H142385   0.421   1.546   1.667 -0.6088 -0.2083 -0.5370
 6942TIP3    H242386   0.336   1.657   1.725  0.6197  0.7751 -0.5776
 6943TIP3   OH242387   1.497   2.658   0.446 -0.5565  0.4186 -0.1402
 6943TIP3    H142388   1.536   2.608   0.517  0.0281 -1.4823 -1.7166
 6943TIP3    H242389   1.491   2.748   0.480 -0.5861 -0.4622  2.3679
 6944TIP3   OH242390   0.620   0.368   0.980 -0.6382  0.0755  0.2673
 6944TIP3    H142391   0.638   0.459   1.002 -1.6742  0.3394  0.0483
 6944TIP3    H242392   0.650   0.359   0.889  1.4392 -0.3907  0.9443
 6945TIP3   OH242393   1.237   6.584   2.258 -0.2997  0.1568 -0.0923
 6945TIP3    H142394   1.228   6.575   2.353  1.0342 -0.8677 -0.0311
 6945TIP3    H242395   1.323   6.625   2.246  0.1466 -0.9698 -0.8849
 6946TIP3   OH242396   5.924   4.603   2.505  0.5027  0.0582  0.7994
 6946TIP3    H142397   5.963   4.581   2.590  1.3681  0.0397  0.4122
 6946TIP3    H242398   5.946   4.695   2.491 -0.8191  0.4541  1.2040
 6947TIP3   OH242399   4.605   3.663   1.935 -0.0792  0.0958  0.3009
 6947TIP3    H142400   4.547   3.697   1.867  0.7488 -1.4492 -1.2614
 6947TIP3    H242401   4.557   3.590   1.974  0.2896 -0.3941 -0.1423
 6948TIP3   OH242402   0.258   3.694   2.243 -0.2067 -0.2820  0.2740
 6948TIP3    H142403   0.281   3.601   2.234 -1.0469 -0.5301  0.5355
 6948TIP3    H242404   0.183   3.693   2.303  0.3594  0.6474  1.0191
 6949TIP3   OH242405   5.600   4.758   7.484 -0.1913  0.5237 -0.3501
 6949TIP3    H142406   5.693   4.756   7.460 -0.2930 -1.7182 -0.7257
 6949TIP3    H242407   5.559   4.808   7.413  0.7870  2.3084  0.2683
 6950TIP3   OH242408   0.637   0.198   1.200 -0.4820  0.0147  0.2659
 6950TIP3    H142409   0.719   0.194   1.250 -0.8024 -1.9950  0.7078
 6950TIP3    H242410   0.657   0.253   1.125  1.2033 -0.2279  0.5084
 6951TIP3   OH242411   2.518   1.711   1.754 -0.1649 -0.1539 -0.0062
 6951TIP3    H142412   2.458   1.740   1.685  0.1900  0.6506  0.0067
 6951TIP3    H242413   2.591   1.773   1.749 -0.2181  0.0349  1.2039
 6952TIP3   OH242414   5.856   0.347   0.874 -0.4888  0.3890  0.2512
 6952TIP3    H142415   5.787   0.365   0.810  0.3471  1.1405 -0.4576
 6952TIP3    H242416   5.863   0.252   0.876  0.8055  0.3781 -2.2377
 6953TIP3   OH242417   0.628   1.733   0.158  0.3045  0.4671  0.1932
 6953TIP3    H142418   0.696   1.665   0.157  1.4245  1.4950  1.7336
 6953TIP3    H242419   0.629   1.769   0.069  0.8711 -0.4063 -0.1646
 6954TIP3   OH242420   2.912   5.862   1.020 -0.2167 -0.3235  0.0494
 6954TIP3    H142421   2.884   5.889   1.108  0.2669  0.3528  0.0088
 6954TIP3    H242422   2.949   5.942   0.981  1.3620 -1.0479 -0.0426
 6955TIP3   OH242423   2.018   3.028   0.173 -0.6046 -0.1497  0.1404
 6955TIP3    H142424   1.927   3.000   0.182 -0.4713 -1.1071 -1.1225
 6955TIP3    H242425   2.064   2.982   0.242 -0.6262 -2.0924 -1.0596
 6956TIP3   OH242426   2.070   2.041   2.131  0.4178  0.4932 -0.0831
 6956TIP3    H142427   1.989   2.004   2.164  1.1284 -1.2188 -0.1658
 6956TIP3    H242428   2.055   2.136   2.131 -1.2459  0.2614  0.7156
 6957TIP3   OH242429   4.052   1.137   0.401 -0.7529 -0.3116 -0.5011
 6957TIP3    H142430   4.015   1.063   0.450  1.1621 -0.3454  1.0114
 6957TIP3    H242431   4.025   1.214   0.450 -1.8267 -0.0282 -1.4728
 6958TIP3   OH242432   4.870   4.393   2.001  0.6457  0.2756  0.4923
 6958TIP3    H142433   4.785   4.436   2.014  0.9784  0.9709  0.4128
 6958TIP3    H242434   4.864   4.313   2.053 -0.1198  0.2411  0.3598
 6959TIP3   OH242435   1.565   3.552   0.415 -0.4647  0.2205 -0.0097
 6959TIP3    H142436   1.551   3.458   0.415  1.4358 -0.1325 -1.6653
 6959TIP3    H242437   1.531   3.581   0.330  0.9823  0.6445 -0.4633
 6960TIP3   OH242438   4.689   6.276   2.420 -0.6160  0.4886  0.0736
 6960TIP3    H142439   4.680   6.340   2.349  0.9576  0.4306 -0.2240
 6960TIP3    H242440   4.600   6.253   2.444 -1.3525  4.4479  1.7246
 6961TIP3   OH242441   4.127   1.716   2.093  0.5425  0.3262 -0.0495
 6961TIP3    H142442   4.138   1.693   2.185  1.1963 -0.9914 -0.4411
 6961TIP3    H242443   4.055   1.660   2.062 -0.1475  1.2570 -0.1868
 6962TIP3   OH242444   1.105   6.417   2.737  0.2422 -0.0079 -0.4105
 6962TIP3    H142445   1.077   6.358   2.807 -0.5360  0.1207 -0.6040
 6962TIP3    H242446   1.089   6.367   2.657 -1.0404  0.6945 -0.6160
 6963TIP3   OH242447   0.217   1.346   8.781 -0.2868  0.2749  0.1129
 6963TIP3    H142448   0.205   1.380   8.870 -1.5080 -0.6845  0.3423
 6963TIP3    H242449   0.290   1.285   8.787  2.6089  3.3847 -0.4962
 6964TIP3   OH242450   3.353   2.118   2.711 -0.5464 -0.6134 -0.2643
 6964TIP3    H142451   3.308   2.202   2.707  1.3202  0.4697  0.2738
 6964TIP3    H242452   3.329   2.074   2.630 -1.2045  0.6115 -0.7600
 6965TIP3   OH242453   2.925   1.115   7.929 -0.2518 -0.1328  0.1351
 6965TIP3    H142454   2.853   1.178   7.928 -1.4389 -1.2464 -3.9937
 6965TIP3    H242455   2.893   1.042   7.981 -0.1686  1.1810  2.1525
 6966TIP3   OH242456   0.802   1.141   0.340 -0.1254  0.2315 -0.3093
 6966TIP3    H142457   0.818   1.197   0.417  0.4847  0.3612 -0.5236
 6966TIP3    H242458   0.765   1.061   0.376 -2.2775  1.2554 -0.1050
 6967TIP3   OH242459   1.482   5.189   8.614 -0.0875 -0.1115  0.1905
 6967TIP3    H142460   1.563   5.142   8.598 -0.0053 -0.3122  1.1434
 6967TIP3    H242461   1.508   5.263   8.669 -0.2012  1.1130 -1.3014
 6968TIP3   OH242462   1.319   0.790   0.250  0.1798  0.4230  0.5917
 6968TIP3    H142463   1.395   0.833   0.210 -1.0539  2.0808 -0.1168
 6968TIP3    H242464   1.291   0.725   0.185 -0.6364  1.7497 -0.4392
 6969TIP3   OH242465   1.238   0.711   1.736 -0.3730 -0.7307 -0.1208
 6969TIP3    H142466   1.331   0.720   1.758 -0.9465  0.0078  2.3616
 6969TIP3    H242467   1.201   0.797   1.754 -1.7210 -1.3189  0.0411
 6970TIP3   OH242468   5.497   4.427   0.780 -0.1047 -0.0528 -0.4316
 6970TIP3    H142469   5.531   4.462   0.698  3.0348 -0.5670  0.5001
 6970TIP3    H242470   5.509   4.332   0.773 -1.3016 -0.2605  0.0468
 6971TIP3   OH242471   0.632   5.485   0.602 -0.0495 -0.7360  0.4966
 6971TIP3    H142472   0.701   5.487   0.669 -1.0876 -1.7253  1.6580
 6971TIP3    H242473   0.569   5.552   0.632 -0.1624 -0.6601  0.0900
 6972TIP3   OH242474   4.202   0.205   8.669 -0.0264 -0.1829  0.3993
 6972TIP3    H142475   4.146   0.278   8.696 -1.3125 -1.3598  1.0701
 6972TIP3    H242476   4.289   0.229   8.700 -0.6211  0.6148  1.5479
 6973TIP3   OH242477   0.880   6.782   7.988 -0.2860 -0.1346 -0.2919
 6973TIP3    H142478   0.945   6.775   8.058  0.8564  3.2407 -0.8318
 6973TIP3    H242479   0.885   6.873   7.959 -2.0240 -0.8885 -3.5330
 6974TIP3   OH242480   4.151   6.500   1.764  0.3410  0.1502 -0.2569
 6974TIP3    H142481   4.095   6.533   1.834  1.4061 -0.5598  0.9698
 6974TIP3    H242482   4.102   6.517   1.684 -2.2768 -1.6917  0.8275
 6975TIP3   OH242483   5.719   0.431   0.578 -0.1520  0.2436 -0.4073
 6975TIP3    H142484   5.684   0.404   0.494  2.4090  0.2252 -1.5662
 6975TIP3    H242485   5.789   0.368   0.596 -0.6767  0.2085  1.7848
 6976TIP3   OH242486   2.138   5.041   7.329  0.2703 -0.1428  0.3281
 6976TIP3    H142487   2.198   5.065   7.400  2.3912 -0.2290 -1.3295
 6976TIP3    H242488   2.117   4.949   7.345 -1.4944  0.5313  2.2900
 6977TIP3   OH242489   5.796   5.874   0.342 -0.0223 -0.3882 -0.0525
 6977TIP3    H142490   5.725   5.875   0.406 -0.0085 -0.6519 -0.0323
 6977TIP3    H242491   5.764   5.926   0.269 -0.1974 -0.4233  0.0003
 6978TIP3   OH242492   4.633   3.084   0.167 -0.1019  0.7395 -0.1467
 6978TIP3    H142493   4.561   3.056   0.111 -1.3356  1.5861  0.9802
 6978TIP3    H242494   4.663   3.003   0.210 -0.9168  0.5032 -0.0150
 6979TIP3   OH242495   4.040   3.606   8.730 -0.3858 -0.2168  0.4461
 6979TIP3    H142496   3.956   3.562   8.716 -0.4101  0.1839 -0.7763
 6979TIP3    H242497   4.041   3.627   8.823 -0.8497 -1.8103  0.8400
 6980TIP3   OH242498   5.436   3.572   0.162 -0.7149 -0.1846 -0.5150
 6980TIP3    H142499   5.361   3.575   0.103 -0.2558 -0.4342 -1.1208
 6980TIP3    H242500   5.505   3.528   0.112 -0.0074  0.4733 -0.1455
 6981TIP3   OH242501   5.245   5.296   1.997  0.1751 -0.0397  0.4769
 6981TIP3    H142502   5.319   5.236   2.012  0.5887  0.2947 -0.1864
 6981TIP3    H242503   5.184   5.246   1.943  0.8085  0.3356 -0.6127
 6982TIP3   OH242504   0.067   4.641   7.875 -0.3704 -0.4581  0.1358
 6982TIP3    H142505   0.080   4.563   7.929  2.0418 -0.5336 -0.3962
 6982TIP3    H242506   0.047   4.606   7.788 -0.8058 -0.4354  0.2259
 6983TIP3   OH242507   4.902   0.894   8.503 -0.0865 -0.2802  0.1442
 6983TIP3    H142508   4.945   0.894   8.418 -0.0120  0.2121  0.1789
 6983TIP3    H242509   4.818   0.849   8.487  0.8073 -2.0995  0.2848
 6984TIP3   OH242510   1.213   2.051   7.600 -0.0895  0.0528  0.1743
 6984TIP3    H142511   1.208   2.131   7.652  1.5350  0.1616  0.1983
 6984TIP3    H242512   1.303   2.020   7.612 -0.3980 -1.2351 -0.6412
 6985TIP3   OH242513   6.410   2.227   1.019 -0.3577  0.0638 -0.2835
 6985TIP3    H142514   6.413   2.321   0.999 -0.9229  0.0301 -0.5425
 6985TIP3    H242515   6.378   2.222   1.109 -3.1800  0.0430 -1.2026
 6986TIP3   OH242516   1.550   4.481   7.381 -0.3298  0.7079  0.0089
 6986TIP3    H142517   1.608   4.405   7.381 -1.5312 -0.2380 -0.4422
 6986TIP3    H242518   1.487   4.463   7.450 -2.2665 -0.0615 -1.8607
 6987TIP3   OH242519   4.088   0.570   8.119  0.0178 -0.1925  0.1729
 6987TIP3    H142520   4.081   0.543   8.211 -1.8710 -0.9843 -0.1553
 6987TIP3    H242521   4.052   0.659   8.118 -0.0986 -0.2384  0.1912
 6988TIP3   OH242522   6.310   5.231   0.690 -0.6869 -0.6120  0.0750
 6988TIP3    H142523   6.280   5.234   0.599 -0.9351 -0.8254  0.1466
 6988TIP3    H242524   6.346   5.142   0.700  1.8913  0.2688 -0.5987
 6989TIP3   OH242525   0.979   2.314   1.178 -0.0682 -0.7304 -0.1960
 6989TIP3    H142526   1.022   2.311   1.092  2.4510  1.9664  0.7958
 6989TIP3    H242527   0.965   2.408   1.193  1.0208 -0.9715  2.9664
 6990TIP3   OH242528   3.619   5.858   8.607 -0.4083 -0.6831  0.0385
 6990TIP3    H142529   3.556   5.900   8.666 -0.7964  0.1061 -0.9026
 6990TIP3    H242530   3.567   5.830   8.532  0.5808  1.7938 -1.7084
 6991TIP3   OH242531   2.398   1.990   2.103  0.0571 -0.3143  0.2293
 6991TIP3    H142532   2.380   1.921   2.167 -0.2287  0.0663  0.5536
 6991TIP3    H242533   2.312   2.023   2.077  0.2366  0.7761  1.0010
 6992TIP3   OH242534   1.082   6.582   0.514 -0.8293  0.0199  0.2709
 6992TIP3    H142535   1.111   6.655   0.459  1.5568 -0.5457  0.6675
 6992TIP3    H242536   1.121   6.505   0.473 -2.0767 -0.8565  0.7086
 6993TIP3   OH242537   1.958   3.652   0.526 -0.2731  0.4343 -0.0001
 6993TIP3    H142538   1.942   3.697   0.442 -1.2536 -0.1968 -0.1623
 6993TIP3    H242539   1.932   3.716   0.592  1.2515  1.2406 -0.1189
 6994TIP3   OH242540   0.171   1.355   1.730 -0.0432 -0.1205  0.0509
 6994TIP3    H142541   0.243   1.419   1.728  0.6306 -0.8770 -1.7027
 6994TIP3    H242542   0.097   1.404   1.766  0.2234  1.9732 -1.9487
 6995TIP3   OH242543   1.314   0.041   2.509  0.3156 -0.6513  0.1761
 6995TIP3    H142544   1.390   0.029   2.453  0.3971 -1.2983  0.4147
 6995TIP3    H242545   1.304  -0.043   2.554 -0.7389 -0.6921 -0.1090
 6996TIP3   OH242546   3.045   4.587   1.163 -0.4395 -0.0459 -0.3856
 6996TIP3    H142547   2.974   4.585   1.227  0.4770  0.5722  0.6955
 6996TIP3    H242548   3.084   4.674   1.172  0.9293 -0.6238 -0.3992
 6997TIP3   OH242549   0.414   1.507   2.140 -0.0615  0.3911  0.7462
 6997TIP3    H142550   0.338   1.528   2.085  0.2916 -0.7230 -0.2162
 6997TIP3    H242551   0.377   1.460   2.214 -0.3736  0.3617  0.5744
 6998TIP3   OH242552   3.256   6.682   7.294  0.4980  0.0235  0.1169
 6998TIP3    H142553   3.322   6.624   7.256 -0.1067  0.1776 -1.2284
 6998TIP3    H242554   3.203   6.625   7.350  0.3119 -0.6050 -0.6777
 6999TIP3   OH242555   5.881   4.074   8.111  0.4234 -0.3919  0.2940
 6999TIP3    H142556   5.969   4.103   8.137  0.7121 -1.2802  0.3130
 6999TIP3    H242557   5.869   3.990   8.155  0.0291 -0.8423 -0.6447
 7000TIP3   OH242558   5.718   4.593   1.899  0.1015  0.4192 -0.3191
 7000TIP3    H142559   5.739   4.654   1.970  1.0253 -1.2046  0.8763
 7000TIP3    H242560   5.741   4.506   1.934 -2.7294 -0.8461 -1.3020
 7001TIP3   OH242561   2.254   1.592   8.677  0.0198 -0.7657  0.3539
 7001TIP3    H142562   2.240   1.616   8.585 -1.1488  0.3802  0.7928
 7001TIP3    H242563   2.217   1.504   8.685 -0.4130 -0.6345 -0.1472
 7002TIP3   OH242564   6.769   4.299   8.415  0.0816 -0.1063 -0.0662
 7002TIP3    H142565   6.716   4.354   8.472  1.8566 -0.4630  2.0417
 7002TIP3    H242566   6.776   4.215   8.462  1.5662 -0.4303 -0.7965
 7003TIP3   OH242567   4.920   3.633   6.908 -0.9282 -0.3572 -0.5065
 7003TIP3    H142568   4.997   3.589   6.945  0.8848  2.1378 -1.1083
 7003TIP3    H242569   4.944   3.725   6.904 -3.2269  0.2599 -2.5665
 7004TIP3   OH242570   6.368   6.307   1.056  0.2348 -0.3731  0.0720
 7004TIP3    H142571   6.329   6.393   1.071 -1.4550 -0.7410 -1.8537
 7004TIP3    H242572   6.365   6.295   0.961  2.8241 -1.5059  0.0487
 7005TIP3   OH242573   2.098   5.853   7.246  0.4863 -0.2441  0.1754
 7005TIP3    H142574   2.181   5.806   7.233  1.2594  0.9719  0.5216
 7005TIP3    H242575   2.035   5.784   7.265  1.1412 -1.3165 -1.3142
 7006TIP3   OH242576   4.857   6.554   1.192  0.0736  0.2214  0.3750
 7006TIP3    H142577   4.791   6.521   1.131  0.2255  0.1004  0.2774
 7006TIP3    H242578   4.870   6.483   1.255  0.0447  0.2797  0.4473
 7007TIP3   OH242579   4.857   3.332   1.579 -0.0530  0.2735 -0.5900
 7007TIP3    H142580   4.776   3.349   1.531 -0.7693  0.8698  0.7744
 7007TIP3    H242581   4.874   3.238   1.566 -0.5957  0.2882 -1.4355
 7008TIP3   OH242582   0.994   3.200   0.566  0.4137  0.3261 -0.0578
 7008TIP3    H142583   1.007   3.254   0.488  0.1192 -1.4245 -1.3774
 7008TIP3    H242584   1.052   3.125   0.554 -0.8278 -0.7863  0.5789
 7009TIP3   OH242585   1.520   5.496   7.494  0.1644 -0.3588  0.1084
 7009TIP3    H142586   1.553   5.562   7.555 -0.2448 -0.6931  0.7089
 7009TIP3    H242587   1.573   5.506   7.416  0.0803  0.7139  0.1737
 7010TIP3   OH242588   0.349   2.123   0.617  0.4312 -0.5367  0.5522
 7010TIP3    H142589   0.317   2.169   0.539 -1.1400 -0.3817  1.2464
 7010TIP3    H242590   0.357   2.032   0.590 -1.1791 -0.6919  0.4591
 7011TIP3   OH242591   0.098   0.131   8.170  0.0392 -0.4915  0.0154
 7011TIP3    H142592   0.045   0.180   8.107 -0.8723 -1.1919  0.2221
 7011TIP3    H242593   0.105   0.043   8.132 -0.0930 -0.7768  0.6484
 7012TIP3   OH242594   2.748   6.393   7.243 -0.1040 -0.1970 -0.7410
 7012TIP3    H142595   2.693   6.471   7.237  1.4569  1.2985  2.2657
 7012TIP3    H242596   2.713   6.345   7.318  1.0560 -0.5696 -0.4219
 7013TIP3   OH242597   0.245   2.407   2.730 -0.1188  0.0899 -0.2421
 7013TIP3    H142598   0.171   2.361   2.691 -0.6080  1.0364 -0.4626
 7013TIP3    H242599   0.274   2.468   2.661  0.9301 -0.3484 -0.1946
 7014TIP3   OH242600   6.319   6.718   0.547  0.5271  0.1840  0.2264
 7014TIP3    H142601   6.248   6.686   0.602  1.7836 -1.3220  1.0619
 7014TIP3    H242602   6.343   6.643   0.493  0.1945  1.2552 -1.4762
 7015TIP3   OH242603   1.568   5.824   0.983 -0.7438 -0.2726 -0.6694
 7015TIP3    H142604   1.486   5.871   0.966 -0.0043  1.4565  0.2676
 7015TIP3    H242605   1.619   5.835   0.902 -1.5175 -1.5994 -1.3622
 7016TIP3   OH242606   2.738   3.810   0.674 -0.3643  0.1096  0.1354
 7016TIP3    H142607   2.680   3.842   0.605 -1.0346 -4.1666 -1.5823
 7016TIP3    H242608   2.824   3.807   0.632 -0.4637 -0.9580 -0.0199
 7017TIP3   OH242609   0.442   0.416   1.293  0.0850 -0.2984  0.4021
 7017TIP3    H142610   0.499   0.350   1.252 -0.3071 -1.2738  1.4003
 7017TIP3    H242611   0.418   0.378   1.378  0.4403  1.4494  1.3209
 7018TIP3   OH242612   0.639   5.887   2.114  0.3828  0.3393 -0.4695
 7018TIP3    H142613   0.642   5.902   2.019  1.4512  0.2570 -0.4571
 7018TIP3    H242614   0.590   5.961   2.149  2.1203  1.7192 -0.8271
 7019TIP3   OH242615   5.087   0.969   1.382  0.0711  0.0318 -0.0434
 7019TIP3    H142616   5.004   0.981   1.428 -1.4502  0.2562 -2.6578
 7019TIP3    H242617   5.106   0.876   1.390 -1.1082 -0.2527 -0.4794
 7020TIP3   OH242618   2.978   4.938   1.247 -0.2509  0.3840 -0.0972
 7020TIP3    H142619   2.941   5.022   1.274  1.0739  0.9936 -0.0737
 7020TIP3    H242620   2.981   4.943   1.151  1.5017  1.1753 -0.0539
 7021TIP3   OH242621   2.346   2.562   2.324 -0.7402  0.3118 -0.6164
 7021TIP3    H142622   2.304   2.645   2.347 -1.2430 -0.0952 -0.0324
 7021TIP3    H242623   2.432   2.567   2.365  0.2891  1.6195 -2.7365
 7022TIP3   OH242624   1.657   1.185   8.377  0.4728 -0.2817  0.4422
 7022TIP3    H142625   1.684   1.249   8.311  1.1569 -1.2582 -0.2786
 7022TIP3    H242626   1.727   1.185   8.441  0.5246 -0.3668  0.3870
 7023TIP3   OH242627   6.653   4.911   8.713  0.0659 -0.7529  0.3136
 7023TIP3    H142628   6.610   4.938   8.794  0.8285  2.4727 -0.2111
 7023TIP3    H242629   6.620   4.973   8.647  1.3480 -1.6958 -1.2898
 7024TIP3   OH242630   2.654   2.329   8.448  0.3465  0.3885 -0.5199
 7024TIP3    H142631   2.672   2.344   8.541 -0.2037  1.5809 -0.5932
 7024TIP3    H242632   2.632   2.236   8.443  0.3311  0.3207  0.5525
 7025TIP3   OH242633   4.697   4.882   8.036  0.5442  0.2827 -0.4722
 7025TIP3    H142634   4.774   4.939   8.032  0.4139  0.4261 -1.1974
 7025TIP3    H242635   4.623   4.940   8.017  0.3108  0.0577 -0.2507
 7026TIP3   OH242636   1.137   5.954   1.933  0.2104 -0.1068  0.0967
 7026TIP3    H142637   1.059   5.900   1.943 -0.8378  1.3552  0.1920
 7026TIP3    H242638   1.163   5.942   1.842  0.0306 -0.8132  0.1352
 7027TIP3   OH242639   1.478   2.368   2.347 -0.2064 -0.6623 -0.2049
 7027TIP3    H142640   1.409   2.370   2.414  0.8514  1.4118  0.9063
 7027TIP3    H242641   1.447   2.429   2.280  1.2525  1.7846  1.1773
 7028TIP3   OH242642   5.186   5.587   6.699 -0.7139  0.0127 -0.2899
 7028TIP3    H142643   5.137   5.665   6.726  1.0513  0.8584  0.6304
 7028TIP3    H242644   5.205   5.603   6.606 -3.0058 -0.8260 -0.9599
 7029TIP3   OH242645   0.087   6.771   1.376  0.1042  0.3209  0.2762
 7029TIP3    H142646   0.093   6.755   1.282 -1.6858 -0.7840  0.2973
 7029TIP3    H242647   0.176   6.760   1.408  0.6187 -0.0047 -1.1828
 7030TIP3   OH242648   5.279   0.465   6.901 -0.2172  0.2303  0.4916
 7030TIP3    H142649   5.187   0.478   6.924 -0.6586 -1.5364 -0.1044
 7030TIP3    H242650   5.303   0.383   6.943  1.0801  0.6206  0.5621
 7031TIP3   OH242651   2.957   0.895   7.354 -0.4275 -0.1777 -0.2528
 7031TIP3    H142652   3.042   0.932   7.378 -0.5696  1.3221 -1.7803
 7031TIP3    H242653   2.893   0.960   7.386 -0.7838  0.2156 -1.6838
 7032TIP3   OH242654   1.485   3.727   1.448 -0.4410 -0.5874  0.1229
 7032TIP3    H142655   1.415   3.681   1.494 -0.2611  1.3501  2.5207
 7032TIP3    H242656   1.499   3.676   1.368 -1.5825 -3.4900  1.6349
 7033TIP3   OH242657   1.393   1.458   1.581  0.3535 -0.3403  0.5557
 7033TIP3    H142658   1.458   1.396   1.548 -1.2349 -0.7885 -1.9675
 7033TIP3    H242659   1.317   1.445   1.525 -0.6813  2.6535  1.1046
 7034TIP3   OH242660   5.944   0.969   8.350  0.4583 -0.2456  0.1703
 7034TIP3    H142661   5.951   0.879   8.318 -0.7923 -0.1532 -0.4326
 7034TIP3    H242662   6.023   0.982   8.402  1.4975 -1.1092 -1.1390
 7035TIP3   OH242663   4.668   0.723   2.206 -0.1846 -0.2063  0.4221
 7035TIP3    H142664   4.729   0.649   2.214  0.4403  0.4153  1.5865
 7035TIP3    H242665   4.586   0.682   2.180 -0.1943 -1.5127  2.2577
 7036TIP3   OH242666   6.668   0.076   0.751 -0.4581  0.2793  0.2580
 7036TIP3    H142667   6.737   0.010   0.747 -0.2199  0.5693 -1.0795
 7036TIP3    H242668   6.688   0.128   0.828  0.0374 -0.4633  0.6397
 7037TIP3   OH242669   0.025   2.890   6.892 -0.0067 -0.0842 -0.3330
 7037TIP3    H142670  -0.033   2.928   6.958  0.2119 -1.3238  0.5941
 7037TIP3    H242671   0.078   2.964   6.862  1.5812  0.1141  2.6449
 7038TIP3   OH242672   1.549   0.293   7.770 -0.6408  0.7705  0.0421
 7038TIP3    H142673   1.634   0.327   7.742 -0.4092 -0.2939 -0.6079
 7038TIP3    H242674   1.516   0.244   7.695 -1.4564  0.4895  0.5648
 7039TIP3   OH242675   3.845   5.690   1.646  0.2296 -0.3903  0.1062
 7039TIP3    H142676   3.873   5.770   1.602 -0.1237  0.4851  1.4278
 7039TIP3    H242677   3.871   5.702   1.737  0.5284 -1.9596  0.2595
 7040TIP3   OH242678   0.829   0.832   1.637  0.6233  0.4089  0.5224
 7040TIP3    H142679   0.735   0.849   1.645  0.3559 -0.2980 -0.8066
 7040TIP3    H242680   0.837   0.737   1.643  0.9507  0.2491 -1.7275
 7041TIP3   OH242681   3.527   5.661   0.578 -0.1922 -0.1794  1.0696
 7041TIP3    H142682   3.533   5.736   0.637  0.6940  0.9878 -0.4152
 7041TIP3    H242683   3.563   5.588   0.628  1.9395  1.0852  1.5258
 7042TIP3   OH242684   3.530   6.587   8.281  0.4597 -0.5414  0.9536
 7042TIP3    H142685   3.483   6.601   8.199 -0.0287  0.9232  1.4532
 7042TIP3    H242686   3.622   6.589   8.256  0.3018 -1.5161  0.2416
 7043TIP3   OH242687   0.789   5.539   8.725 -0.5635 -0.0864  0.5270
 7043TIP3    H142688   0.809   5.566   8.814 -0.9859  1.3755  0.2024
 7043TIP3    H242689   0.806   5.445   8.724 -3.1038 -0.7009  2.8895
 7044TIP3   OH242690   5.753   4.411   7.451  0.2698  0.1338 -0.5466
 7044TIP3    H142691   5.835   4.453   7.424  1.4207 -0.8645  1.2101
 7044TIP3    H242692   5.780   4.347   7.517 -1.7695 -1.3088 -1.0380
 7045TIP3   OH242693   3.291   5.515   1.230  0.4966 -0.3409 -0.3513
 7045TIP3    H142694   3.291   5.535   1.323 -1.6055  0.9055 -0.5499
 7045TIP3    H242695   3.261   5.596   1.188  1.2165 -0.9274 -2.1035
 7046TIP3   OH242696   2.893   5.092   7.657 -0.0316  0.4111 -0.2828
 7046TIP3    H142697   2.873   5.144   7.735  2.3518  0.0650  0.6653
 7046TIP3    H242698   2.871   5.148   7.583 -1.1926  1.2248  0.6589
 7047TIP3   OH242699   2.065   6.057   1.357  0.1239 -0.0192 -0.0374
 7047TIP3    H142700   2.070   5.973   1.403  1.3482  0.8248  1.4504
 7047TIP3    H242701   1.978   6.091   1.378  0.1866 -0.2340  0.5778
 7048TIP3   OH242702   6.377   5.222   7.920 -0.0998  0.7114 -0.2275
 7048TIP3    H142703   6.381   5.303   7.972 -2.6521 -0.0491  1.3510
 7048TIP3    H242704   6.378   5.252   7.829 -0.7970  2.5175  0.3130
 7049TIP3   OH242705   5.914   6.340   0.417 -0.0326  0.7196 -0.1066
 7049TIP3    H142706   5.972   6.266   0.400 -0.0077  0.3694  1.3700
 7049TIP3    H242707   5.844   6.303   0.472 -0.6762  1.5312 -0.3613
 7050TIP3   OH242708   1.575   4.394   6.897  0.1389 -0.0418 -0.1723
 7050TIP3    H142709   1.531   4.353   6.822  1.1639  1.7637 -1.8458
 7050TIP3    H242710   1.666   4.403   6.869  0.5266  0.7865  1.2604
 7051TIP3   OH242711   4.303   2.302   8.537 -0.0891 -0.1786  0.2310
 7051TIP3    H142712   4.317   2.240   8.465 -1.8904 -0.6330  0.2364
 7051TIP3    H242713   4.371   2.368   8.525  1.4891 -1.7797 -0.1600
 7052TIP3   OH242714   0.537   4.920   0.519  0.5896 -0.4207  0.3083
 7052TIP3    H142715   0.514   4.832   0.489 -2.1397  1.3338 -3.6717
 7052TIP3    H242716   0.604   4.949   0.458 -0.2741  1.0018 -0.0142
 7053TIP3   OH242717   4.947   2.306   8.087 -0.3944  0.2707 -0.0324
 7053TIP3    H142718   5.016   2.254   8.128 -0.2656 -1.2157 -1.9684
 7053TIP3    H242719   4.993   2.376   8.041 -0.3398  0.4976  0.3717
 7054TIP3   OH242720   2.499   1.701   1.049  0.3744 -0.7213  0.0299
 7054TIP3    H142721   2.564   1.646   1.003 -0.7926  0.0807 -2.7731
 7054TIP3    H242722   2.452   1.639   1.105  0.8713 -2.0980 -0.9962
 7055TIP3   OH242723   5.193   3.073   7.942 -0.2273  0.5309  0.1640
 7055TIP3    H142724   5.206   2.979   7.928 -1.5350  0.5733 -1.8407
 7055TIP3    H242725   5.098   3.083   7.952 -0.2629  1.7481 -1.0168
 7056TIP3   OH242726   0.341   3.188   1.991 -0.0957 -0.1712  0.1742
 7056TIP3    H142727   0.385   3.257   2.041 -1.2564 -0.5013  1.7563
 7056TIP3    H242728   0.249   3.194   2.018 -0.5548 -1.1455 -1.0635
 7057TIP3   OH242729   3.933   4.086   1.946  0.2931  0.6469 -0.0214
 7057TIP3    H142730   3.947   3.994   1.965  1.8996  0.2786 -2.5040
 7057TIP3    H242731   3.925   4.128   2.031  0.5543 -1.6193  1.1777
 7058TIP3   OH242732   5.381   0.915   1.057 -0.2433 -0.2869 -0.2047
 7058TIP3    H142733   5.443   0.860   1.009 -0.2400 -0.5327  0.0864
 7058TIP3    H242734   5.411   1.005   1.040  1.3632 -0.4435  1.4952
 7059TIP3   OH242735   2.397   4.313   8.379 -0.1829 -0.0247 -0.2066
 7059TIP3    H142736   2.308   4.305   8.348 -1.3840 -0.2046  2.9002
 7059TIP3    H242737   2.393   4.380   8.447  1.6992 -1.0837  1.0605
 7060TIP3   OH242738   2.725   3.557   8.540  0.2983  0.1077 -0.2546
 7060TIP3    H142739   2.731   3.478   8.487 -1.9336  0.1399 -0.6556
 7060TIP3    H242740   2.815   3.577   8.565  0.9648 -2.2007 -0.6448
 7061TIP3   OH242741   0.307   2.572   2.505 -0.5502 -0.3412  0.5848
 7061TIP3    H142742   0.304   2.608   2.416 -1.2280  0.1760  0.8067
 7061TIP3    H242743   0.263   2.637   2.559  2.2378  0.6755  1.8141
 7062TIP3   OH242744   4.821   5.840   1.745  0.3976  0.4321  0.5088
 7062TIP3    H142745   4.815   5.770   1.810  0.7360  1.8029  2.0663
 7062TIP3    H242746   4.732   5.875   1.740 -0.1225 -0.9623 -1.3431
 7063TIP3   OH242747   5.390   1.907   1.983 -0.0946 -0.3277  0.1082
 7063TIP3    H142748   5.354   1.878   1.899  0.9565 -0.4581 -0.3157
 7063TIP3    H242749   5.326   1.970   2.016  0.1715  0.8502 -1.4920
 7064LIG     O142750   3.555   2.012   7.177  0.2017  0.2796 -0.6867
 7064LIG     O242751   3.692   2.126   7.602  0.1870  0.5316 -0.6202
 7064LIG     N142752   3.631   2.305   7.468 -0.1555 -0.5706  0.2851
 7064LIG     N242753   3.557   2.320   7.118 -0.3687 -0.6525 -0.3708
 7064LIG     N342754   3.626   2.080   7.385  0.0956  0.2247  0.3424
 7064LIG     N442755   3.605   2.468   7.289 -0.7241 -0.1565  0.5591
 7064LIG     C142756   3.584   2.245   7.231 -0.1012  0.0173 -0.2893
 7064LIG     C242757   3.608   2.338   7.341  0.4885  0.0421  1.2292
 7064LIG     C342758   3.583   2.104   7.255 -0.0217  0.0138 -0.1248
 7064LIG     C442759   3.655   2.171   7.490  0.5642  0.4226  0.0527
 7064LIG     C542760   3.580   2.453   7.160 -0.1982 -0.2456  0.6308
 7064LIG     C642761   3.648   2.404   7.580  0.0345  0.2600  0.3390
 7064LIG     C742762   3.515   2.272   6.986 -0.2130  0.0074  1.1374
 7064LIG     C842763   3.648   1.937   7.412 -0.4307  0.8787 -0.2921
 7064LIG     H142764   3.573   2.534   7.088  0.7467 -1.9006 -1.4063
 7064LIG     H242765   3.663   2.507   7.541  0.2479  0.1228  0.0518
 7064LIG     H342766   3.745   2.380   7.628 -0.4159  1.5522  1.9682
 7064LIG     H442767   3.564   2.399   7.653 -0.2504  1.8668  0.1605
 7064LIG     H542768   3.437   2.342   6.950  0.5024  0.7342  0.9632
 7064LIG     H642769   3.472   2.172   6.965  0.6527  0.0112 -0.8024
 7064LIG     H742770   3.605   2.283   6.922 -1.4401 -0.0397 -0.6538
 7064LIG     H842771   3.568   1.866   7.386  0.9414 -0.9870  0.3580
 7064LIG     H942772   3.670   1.913   7.518 -0.7492  1.1841 -0.1551
 7064LIG    H1042773   3.739   1.899   7.360 -1.4744  0.4381 -1.8717
   6.80585   6.80585   8.84797
