Title
42773
    1SAPS     N    1   5.300   1.431   7.313 -0.0910  0.3810 -0.5806
    1SAPS   HN1    2   5.237   1.349   7.319  2.1419 -1.3015  2.6891
    1SAPS   HN2    3   5.240   1.516   7.315 -0.2826  0.3260 -2.3555
    1SAPS   HN3    4   5.348   1.427   7.220  1.4096  1.3206  0.1195
    1SAPS   C12    5   5.411   1.429   7.414  0.3817 -0.0983 -0.0539
    1SAPS  H12A    6   5.486   1.507   7.410  0.6822 -0.1280  2.7029
    1SAPS   C13    7   5.348   1.434   7.561 -0.2765  0.3724 -0.5992
    1SAPS  O13A    8   5.228   1.459   7.571  0.3125  0.1109  0.4261
    1SAPS  O13B    9   5.425   1.429   7.656 -0.2827  0.0050 -0.3036
    1SAPS   C11   10   5.486   1.297   7.387 -1.0419  0.0200  0.1559
    1SAPS  H11A   11   5.574   1.291   7.455 -0.8735 -2.1831 -0.1998
    1SAPS  H11B   12   5.540   1.293   7.291 -1.2875  0.6905 -0.0186
    1SAPS     P   13   5.473   1.040   7.378  0.1575  0.0718 -0.4291
    1SAPS   O13   14   5.613   1.061   7.343  0.3216  0.3599  0.3165
    1SAPS   O14   15   5.443   0.961   7.502 -0.8918 -0.0249 -0.0642
    1SAPS   O12   16   5.404   1.183   7.398 -0.1434 -0.2370  0.5682
    1SAPS   O11   17   5.398   0.976   7.262  0.0521  0.1427  0.3955
    1SAPS    C1   18   5.358   1.047   7.149  0.0791 -0.4751 -0.3921
    1SAPS    HA   19   5.347   1.158   7.153 -1.4844 -0.4910 -2.2590
    1SAPS    HB   20   5.424   1.043   7.060  0.0521  1.1611 -0.5317
    1SAPS    C2   21   5.219   0.996   7.091  0.5035  0.0319 -0.0280
    1SAPS    HS   22   5.144   0.999   7.172 -1.1999 -3.4270 -1.2860
    1SAPS   O21   23   5.236   0.857   7.062 -0.2285 -0.6803 -0.4036
    1SAPS   C21   24   5.139   0.776   7.015  0.5626 -0.4219 -0.3779
    1SAPS   O22   25   5.020   0.797   7.029 -0.2498  1.2480  0.8944
    1SAPS   C22   26   5.193   0.659   6.929 -0.6608  0.0422 -0.2287
    1SAPS   H2R   27   5.299   0.678   6.900 -0.3536 -1.6229 -0.3116
    1SAPS   H2S   28   5.220   0.573   6.994  0.1008 -0.5124 -1.2457
    1SAPS    C3   29   5.165   1.077   6.968 -0.4796 -0.2227  0.2425
    1SAPS    HX   30   5.232   1.064   6.880 -2.1217  2.5612 -1.5760
    1SAPS    HY   31   5.180   1.184   6.994 -0.6946 -0.2239  0.3799
    1SAPS   O31   32   5.037   1.041   6.917 -0.1926 -0.3585  0.0927
    1SAPS   C31   33   4.931   1.108   6.961  0.5141  0.3158 -0.0448
    1SAPS   O32   34   4.931   1.194   7.052  0.1218 -0.5682  0.3651
    1SAPS   C32   35   4.811   1.045   6.896 -0.7273  0.6713  0.4734
    1SAPS   H2X   36   4.771   0.965   6.961 -0.4952  0.5013  0.4088
    1SAPS   H2Y   37   4.844   0.987   6.807  0.8394  2.3250 -0.0923
    1SAPS   C23   38   5.107   0.613   6.814  0.4298  0.9709 -0.5941
    1SAPS   H3R   39   5.006   0.589   6.853  2.2350 -2.8856  2.4510
    1SAPS   H3S   40   5.152   0.523   6.767  0.6937  0.1764  1.1042
    1SAPS   C24   41   5.102   0.721   6.707  0.0015 -0.2838  0.9676
    1SAPS   H4R   42   5.203   0.765   6.694 -0.5633  0.4455 -1.4851
    1SAPS   H4S   43   5.033   0.792   6.759  0.2532 -0.5417  1.6717
    1SAPS   C25   44   5.035   0.688   6.575  0.3082  0.2436  0.1300
    1SAPS   H5R   45   5.036   0.584   6.538  0.7078 -0.7001  2.6370
    1SAPS   C26   46   4.998   0.777   6.480  0.3896 -0.0319 -0.2158
    1SAPS   H6R   47   4.946   0.730   6.395 -1.0763 -0.2806  0.7961
    1SAPS   C27   48   5.012   0.930   6.484  0.5608  1.1770 -0.3080
    1SAPS   H7R   49   5.094   0.967   6.418  0.5539 -0.2792 -1.1993
    1SAPS   H7S   50   5.041   0.956   6.587 -0.5058  1.4134 -0.0593
    1SAPS   C28   51   4.876   0.993   6.460 -0.3600 -0.1452  0.4480
    1SAPS   H8R   52   4.809   0.992   6.548 -0.2041  0.0824  0.5712
    1SAPS   C29   53   4.833   1.047   6.342  0.1204  0.0895 -0.5147
    1SAPS   H9R   54   4.730   1.086   6.337 -0.3457 -1.0771 -0.5776
    1SAPS  C210   55   4.912   1.065   6.217  0.4794 -0.0954 -0.6234
    1SAPS  H10R   56   5.014   1.105   6.233  0.4481 -0.5636  0.8688
    1SAPS  H10S   57   4.859   1.143   6.159 -0.6941 -0.4806 -0.0971
    1SAPS  C211   58   4.924   0.935   6.144 -0.1241  0.2114 -0.2984
    1SAPS  H11R   59   4.949   0.847   6.206 -0.4227  0.6906  0.5261
    1SAPS  C212   60   4.890   0.899   6.017 -0.3259  0.3430  0.0889
    1SAPS  H12R   61   4.908   0.793   5.990  1.4535  0.4913  0.5544
    1SAPS  C213   62   4.836   0.995   5.907  0.1105 -0.1415  0.4206
    1SAPS  H13R   63   4.749   1.052   5.947  0.7740  1.3201 -0.1751
    1SAPS  H13S   64   4.786   0.936   5.827  3.3681 -1.9698 -0.4390
    1SAPS  C214   65   4.924   1.095   5.847  0.4619  0.0507  0.5189
    1SAPS  H14R   66   4.998   1.143   5.912  0.5174  1.9089 -0.8237
    1SAPS  C215   67   4.929   1.124   5.713  0.3169 -0.3733 -0.7236
    1SAPS  H15R   68   4.998   1.206   5.689 -1.3702  1.4081  0.2185
    1SAPS  C216   69   4.872   1.066   5.595 -0.6071  0.4065  0.3130
    1SAPS  H16R   70   4.788   1.127   5.555 -2.1083 -0.2326  2.3156
    1SAPS  H16S   71   4.832   0.963   5.606 -2.0801  0.8919 -0.2865
    1SAPS  C217   72   4.975   1.057   5.473  0.1837 -0.2518  0.4846
    1SAPS  H17R   73   5.061   0.987   5.480  1.6591  1.5596  1.0887
    1SAPS  H17S   74   5.023   1.157   5.476 -0.2093  0.0242 -1.5486
    1SAPS  C218   75   4.901   1.038   5.342  0.1636 -0.4013 -0.2771
    1SAPS  H18R   76   4.935   1.101   5.256 -0.9015  0.3074 -0.1966
    1SAPS  H18S   77   4.792   1.056   5.352  0.1750 -0.5015  0.0194
    1SAPS  C219   78   4.913   0.893   5.293  0.6985  0.0957  0.0949
    1SAPS  H19R   79   4.877   0.825   5.373  1.4062  1.2846  1.4508
    1SAPS  H19S   80   5.020   0.871   5.276  0.7339  1.1099 -1.1782
    1SAPS  C220   81   4.830   0.859   5.165  0.9617  0.8857  0.0510
    1SAPS  H20R   82   4.727   0.876   5.202  1.0882  2.5855 -0.2633
    1SAPS  H20S   83   4.841   0.750   5.148 -1.6465  0.7009 -0.8909
    1SAPS  H20T   84   4.846   0.918   5.072  0.0294  0.6617 -0.2549
    1SAPS   C33   85   4.702   1.142   6.855 -0.0073 -0.0530 -0.5095
    1SAPS   H3X   86   4.683   1.218   6.934 -2.6679 -1.2460  0.1018
    1SAPS   H3Y   87   4.604   1.097   6.828 -0.6010 -0.0044  1.4102
    1SAPS   C34   88   4.732   1.220   6.728 -0.0657  0.2215 -0.1067
    1SAPS   H4X   89   4.725   1.155   6.639 -0.6962 -0.6623  0.5761
    1SAPS   H4Y   90   4.828   1.277   6.733 -1.0579  1.8788  1.8545
    1SAPS   C35   91   4.628   1.332   6.708 -0.0410 -0.1849 -0.1899
    1SAPS   H5X   92   4.616   1.370   6.811 -0.2163 -0.9342  0.0753
    1SAPS   H5Y   93   4.532   1.283   6.679 -1.1349  1.8433 -0.1873
    1SAPS   C36   94   4.678   1.432   6.609 -0.1623  0.1929  0.3348
    1SAPS   H6X   95   4.786   1.454   6.622 -0.1476  0.4313 -0.2053
    1SAPS   H6Y   96   4.619   1.525   6.622  0.4980  0.6464  0.1699
    1SAPS   C37   97   4.673   1.374   6.467  0.8043  0.4071 -0.0587
    1SAPS   H7X   98   4.567   1.343   6.459  1.1589 -0.5801 -1.2421
    1SAPS   H7Y   99   4.740   1.287   6.453  1.9321  1.2841 -0.2862
    1SAPS   C38  100   4.701   1.477   6.355 -0.0226  0.1858  0.5226
    1SAPS   H8X  101   4.810   1.499   6.349  0.6103 -2.5368  0.6837
    1SAPS   H8Y  102   4.655   1.573   6.387 -0.0083  0.1021  0.7929
    1SAPS   C39  103   4.663   1.420   6.218  0.6569  0.1971  0.2763
    1SAPS   H9X  104   4.552   1.424   6.222  0.6299 -0.3049  0.1248
    1SAPS   H9Y  105   4.691   1.313   6.206 -1.9496 -0.4996 -0.3885
    1SAPS  C310  106   4.724   1.498   6.100 -0.2159 -0.2787 -0.2856
    1SAPS  H10X  107   4.832   1.520   6.107  0.0753 -1.4866 -0.5976
    1SAPS  H10Y  108   4.675   1.597   6.111 -1.0153 -0.7429  0.4000
    1SAPS  C311  109   4.677   1.445   5.964  0.0932  0.2261 -0.3014
    1SAPS  H11X  110   4.571   1.476   5.960  0.2679  0.9645  0.4383
    1SAPS  H11Y  111   4.682   1.334   5.957 -0.9770  0.0522  1.2699
    1SAPS  C312  112   4.745   1.506   5.843  0.2854 -0.2892  0.6772
    1SAPS  H12X  113   4.724   1.615   5.837 -1.5681 -0.5681  1.2686
    1SAPS  H12Y  114   4.693   1.466   5.753  2.5784  0.3865 -1.0483
    1SAPS  C313  115   4.894   1.476   5.840 -0.4955 -0.1747  0.4604
    1SAPS  H13X  116   4.902   1.366   5.855  1.2579 -0.1571 -0.1198
    1SAPS  H13Y  117   4.943   1.514   5.932  0.7167 -0.8337  0.1078
    1SAPS  C314  118   4.976   1.517   5.722 -0.1183  0.2442  0.3354
    1SAPS  H14X  119   5.077   1.471   5.715 -0.2552  0.0928 -0.8253
    1SAPS  H14Y  120   5.001   1.625   5.735  0.9564  0.4307 -2.4768
    1SAPS  C315  121   4.896   1.475   5.592 -0.0914 -0.5752  0.2060
    1SAPS  H15X  122   4.806   1.539   5.592 -1.0287 -1.7222 -2.4093
    1SAPS  H15Y  123   4.860   1.370   5.594  1.4028 -1.1876 -1.6451
    1SAPS  C316  124   4.972   1.500   5.463 -0.8233 -0.1816  0.1264
    1SAPS  H16X  125   5.048   1.421   5.442 -0.5488  0.2575 -0.5755
    1SAPS  H16Y  126   5.029   1.593   5.483 -0.4583 -0.0044 -1.5411
    1SAPS  C317  127   4.885   1.522   5.340  0.3796  0.3302  0.8340
    1SAPS  H17X  128   4.934   1.586   5.263  0.6867 -0.6605  0.1878
    1SAPS  H17Y  129   4.793   1.576   5.370  1.4552  1.4493  2.2514
    1SAPS  C318  130   4.844   1.393   5.276  0.2519  0.6129  0.4071
    1SAPS  H18X  131   4.794   1.329   5.352  1.9369 -1.6680 -0.2740
    1SAPS  H18Y  132   4.934   1.336   5.243 -0.8795 -1.9449  1.4613
    1SAPS  H18Z  133   4.776   1.413   5.191  2.4836  3.3431 -0.8965
    2SAPS     N  134   4.196   5.049   7.721 -0.4888  0.2344  0.3493
    2SAPS   HN1  135   4.111   5.106   7.701 -0.8436 -0.5551 -0.5184
    2SAPS   HN2  136   4.279   5.112   7.720 -0.7645  0.6276 -1.4206
    2SAPS   HN3  137   4.206   4.978   7.645  1.5697 -0.3224  1.1002
    2SAPS   C12  138   4.179   4.988   7.852  0.2877 -0.1075  0.6531
    2SAPS  H12A  139   4.269   4.930   7.864  0.4201 -0.1272 -0.3432
    2SAPS   C13  140   4.161   5.085   7.969  0.3900  0.1801 -0.2525
    2SAPS  O13A  141   4.167   5.207   7.944 -0.0325  0.2624  0.4264
    2SAPS  O13B  142   4.137   5.038   8.086  0.5124 -0.1877  0.5846
    2SAPS   C11  143   4.058   4.891   7.847  0.0872 -0.1715 -0.9800
    2SAPS  H11A  144   3.972   4.960   7.854  1.3556  1.3825 -0.1795
    2SAPS  H11B  145   4.051   4.832   7.941 -0.3531 -3.0917 -2.7123
    2SAPS     P  146   3.947   4.696   7.705  0.2892 -0.1844 -0.1580
    2SAPS   O13  147   4.001   4.587   7.617  0.7069  0.5593 -0.1035
    2SAPS   O14  148   3.868   4.654   7.827 -0.2026  0.1706 -0.1517
    2SAPS   O12  149   4.071   4.799   7.739  0.0232 -0.2941  0.0098
    2SAPS   O11  150   3.858   4.784   7.606 -0.1061 -0.1211 -0.0915
    2SAPS    C1  151   3.916   4.882   7.519  0.1740 -0.0472 -0.4562
    2SAPS    HA  152   3.837   4.948   7.476 -0.5623  0.0613  0.9904
    2SAPS    HB  153   3.987   4.946   7.575  0.3580 -1.1514  0.6024
    2SAPS    C2  154   3.979   4.816   7.396  0.2855 -0.2119 -0.1248
    2SAPS    HS  155   4.061   4.743   7.412 -2.5496 -3.8586 -0.6943
    2SAPS   O21  156   4.030   4.918   7.310 -0.0612 -0.2278 -0.3816
    2SAPS   C21  157   4.140   4.975   7.365 -0.0551  0.0383  1.3704
    2SAPS   O22  158   4.196   4.932   7.463 -0.4646  0.1206  0.1304
    2SAPS   C22  159   4.167   5.104   7.287  0.4018  0.7902  0.1293
    2SAPS   H2R  160   4.083   5.134   7.221 -0.3021 -0.3134  0.5019
    2SAPS   H2S  161   4.193   5.180   7.364  0.5545  0.5603  0.3028
    2SAPS    C3  162   3.890   4.727   7.315 -0.4344  0.0002  1.1177
    2SAPS    HX  163   3.797   4.775   7.277  0.0965 -0.8210 -1.4102
    2SAPS    HY  164   3.847   4.648   7.380  0.6506 -2.2687 -0.7831
    2SAPS   O31  165   3.955   4.667   7.202  0.5218  0.6381  0.1370
    2SAPS   C31  166   3.945   4.719   7.082  0.0531 -0.4735  0.5561
    2SAPS   O32  167   3.876   4.814   7.048  0.1823  0.4309 -0.0844
    2SAPS   C32  168   4.039   4.647   6.991  0.6023 -0.2271  0.0241
    2SAPS   H2X  169   4.143   4.670   7.023  0.3305  0.9072  0.1315
    2SAPS   H2Y  170   4.020   4.696   6.893  0.2097  0.2349  0.3295
    2SAPS   C23  171   4.291   5.085   7.202  0.2465  0.0397  0.0237
    2SAPS   H3R  172   4.380   5.050   7.260 -0.1090  0.3401  0.7591
    2SAPS   H3S  173   4.316   5.184   7.158 -4.0462  1.5168  0.4826
    2SAPS   C24  174   4.265   4.990   7.082 -0.3306 -0.2598 -0.2019
    2SAPS   H4R  175   4.253   4.886   7.121 -2.8836  0.9350  2.6560
    2SAPS   H4S  176   4.362   4.993   7.028 -0.2629 -0.0068 -0.0632
    2SAPS   C25  177   4.147   5.027   6.994 -0.5075  0.3257  0.4883
    2SAPS   H5R  178   4.057   5.043   7.055 -0.8595 -0.8281  0.3031
    2SAPS   C26  179   4.158   5.057   6.858  0.7314  0.3510  0.0953
    2SAPS   H6R  180   4.061   5.063   6.806  1.5160  0.5618 -1.4183
    2SAPS   C27  181   4.274   5.047   6.766 -0.3269  0.3180  0.0949
    2SAPS   H7R  182   4.341   4.968   6.806 -1.0909 -1.3372 -1.7089
    2SAPS   H7S  183   4.330   5.142   6.754  1.7680 -0.5523  2.2357
    2SAPS   C28  184   4.231   4.997   6.632 -0.2156  0.4606 -0.3189
    2SAPS   H8R  185   4.229   4.887   6.629 -0.4137  0.3819  1.4339
    2SAPS   C29  186   4.218   5.070   6.524  0.4677 -0.2850 -0.0951
    2SAPS   H9R  187   4.200   5.012   6.433  1.2266  0.0404 -0.4572
    2SAPS  C210  188   4.231   5.222   6.512 -0.3427  0.1146 -0.6591
    2SAPS  H10R  189   4.258   5.282   6.601  2.5408 -1.1389 -0.5875
    2SAPS  H10S  190   4.137   5.258   6.465 -1.3472 -1.2986  0.1932
    2SAPS  C211  191   4.347   5.250   6.418 -0.2003  0.0271  0.2181
    2SAPS  H11R  192   4.450   5.250   6.457  0.5422 -1.9414 -1.5772
    2SAPS  C212  193   4.339   5.257   6.285  0.1345  0.1815 -0.5827
    2SAPS  H12R  194   4.427   5.292   6.228 -0.1997  0.2989 -1.0332
    2SAPS  C213  195   4.215   5.251   6.208  0.4135 -0.0866  0.0563
    2SAPS  H13R  196   4.134   5.306   6.260  1.5365 -0.0161  1.8153
    2SAPS  H13S  197   4.181   5.146   6.202 -0.4885  0.2812 -2.5735
    2SAPS  C214  198   4.239   5.316   6.072  0.0726  0.5611 -0.6077
    2SAPS  H14R  199   4.187   5.413   6.062 -0.7952  0.1086 -0.5502
    2SAPS  C215  200   4.314   5.273   5.970 -0.1975  0.0397 -0.0683
    2SAPS  H15R  201   4.304   5.333   5.878  0.1964 -0.1220 -0.2182
    2SAPS  C216  202   4.394   5.144   5.945  0.0844 -0.2504 -0.2253
    2SAPS  H16R  203   4.375   5.075   6.029  2.1903 -1.1124 -0.4097
    2SAPS  H16S  204   4.503   5.162   5.945  0.1136 -0.4247 -0.3421
    2SAPS  C217  205   4.354   5.076   5.817  0.3846  0.3924  0.0544
    2SAPS  H17R  206   4.246   5.049   5.817  0.4611  0.0495  0.6231
    2SAPS  H17S  207   4.412   4.981   5.814 -1.1019 -0.5498 -2.6864
    2SAPS  C218  208   4.396   5.154   5.689 -0.3233  0.9410  0.3408
    2SAPS  H18R  209   4.506   5.158   5.675 -0.6728  0.9313 -3.9344
    2SAPS  H18S  210   4.352   5.256   5.690 -1.2744  0.5483 -0.2976
    2SAPS  C219  211   4.341   5.072   5.566  0.1817 -0.6787  0.2000
    2SAPS  H19R  212   4.234   5.049   5.582  0.5593 -2.0468  0.8098
    2SAPS  H19S  213   4.395   4.976   5.554 -0.3694 -0.8948 -0.6263
    2SAPS  C220  214   4.358   5.148   5.430 -0.3141  0.0540  0.3930
    2SAPS  H20R  215   4.296   5.093   5.356 -0.1261 -2.5255  2.0292
    2SAPS  H20S  216   4.462   5.142   5.391 -0.8259  0.2813 -1.0958
    2SAPS  H20T  217   4.330   5.255   5.436  0.6378  0.2152  2.7206
    2SAPS   C33  218   4.004   4.494   6.987 -0.3006  0.1088 -0.3668
    2SAPS   H3X  219   3.915   4.469   6.924  1.5388 -0.8672 -2.7435
    2SAPS   H3Y  220   3.979   4.453   7.087 -0.9085  0.3745 -0.4025
    2SAPS   C34  221   4.118   4.408   6.930 -0.1276  0.0927  0.8970
    2SAPS   H4X  222   4.080   4.309   6.896  0.1370  0.7993 -1.6997
    2SAPS   H4Y  223   4.201   4.397   7.002  0.7857 -1.6478 -0.3442
    2SAPS   C35  224   4.191   4.476   6.806 -0.4682  0.1302 -0.3402
    2SAPS   H5X  225   4.285   4.418   6.798 -0.5054  0.1407 -0.8310
    2SAPS   H5Y  226   4.227   4.579   6.828  0.1945 -0.1862  0.1127
    2SAPS   C36  227   4.117   4.487   6.675 -0.3646  0.1627 -0.1967
    2SAPS   H6X  228   4.029   4.554   6.686 -1.8410 -1.6292 -0.4886
    2SAPS   H6Y  229   4.086   4.386   6.642  2.3492 -0.7199 -0.2962
    2SAPS   C37  230   4.214   4.545   6.567  0.1732 -0.3999 -0.0904
    2SAPS   H7X  231   4.295   4.468   6.568 -1.6803 -2.5250  2.4661
    2SAPS   H7Y  232   4.256   4.643   6.596  1.7840 -1.3396  0.8966
    2SAPS   C38  233   4.130   4.557   6.430 -0.0301 -0.4256 -0.2543
    2SAPS   H8X  234   4.038   4.606   6.467  1.3115  1.6697  0.5560
    2SAPS   H8Y  235   4.098   4.456   6.399  3.2444 -1.8945  0.6903
    2SAPS   C39  236   4.191   4.645   6.324  0.0503  0.6791 -0.3299
    2SAPS   H9X  237   4.277   4.584   6.290  0.7053  1.9486 -1.0528
    2SAPS   H9Y  238   4.213   4.746   6.365  1.8084  0.6738 -1.1349
    2SAPS  C310  239   4.093   4.672   6.207  0.0717  0.3798  0.7135
    2SAPS  H10X  240   3.992   4.701   6.244 -1.0504 -2.6652  0.3394
    2SAPS  H10Y  241   4.076   4.581   6.146  0.5988  1.2650 -0.8095
    2SAPS  C311  242   4.135   4.785   6.105 -0.4477  0.2840  0.3302
    2SAPS  H11X  243   4.158   4.877   6.162  2.0856  0.6610 -1.1362
    2SAPS  H11Y  244   4.044   4.800   6.043  0.0196 -3.1834 -1.5137
    2SAPS  C312  245   4.257   4.754   6.018  0.1195 -0.1201 -0.9690
    2SAPS  H12X  246   4.340   4.712   6.080 -1.4279 -1.3853  0.3278
    2SAPS  H12Y  247   4.272   4.848   5.961 -0.7836  0.4324 -0.3235
    2SAPS  C313  248   4.229   4.645   5.906  0.3716  0.0157  0.3536
    2SAPS  H13X  249   4.145   4.671   5.837  2.5265  2.5203 -1.5513
    2SAPS  H13Y  250   4.207   4.550   5.959  1.2394 -0.8351 -0.7742
    2SAPS  C314  251   4.354   4.624   5.824  0.5211  0.7403 -0.7295
    2SAPS  H14X  252   4.415   4.567   5.897 -0.0732 -1.1056 -1.6058
    2SAPS  H14Y  253   4.402   4.715   5.782 -1.4190  1.0967 -2.3399
    2SAPS  C315  254   4.331   4.536   5.697 -0.2336  0.3051 -0.1051
    2SAPS  H15X  255   4.284   4.441   5.732  1.3061 -0.4743 -0.1050
    2SAPS  H15Y  256   4.426   4.505   5.649 -0.0601 -0.5372  0.7478
    2SAPS  C316  257   4.239   4.602   5.586 -0.1614 -0.2601  0.2986
    2SAPS  H16X  258   4.132   4.609   5.615  0.3266  1.6218  1.7712
    2SAPS  H16Y  259   4.236   4.536   5.497  2.2686  0.5911 -0.4959
    2SAPS  C317  260   4.271   4.744   5.540  0.7050 -0.3505  0.5776
    2SAPS  H17X  261   4.381   4.745   5.526  0.7194 -0.8513  0.6553
    2SAPS  H17Y  262   4.243   4.815   5.621  0.0973  2.0448 -1.5974
    2SAPS  C318  263   4.185   4.780   5.418  0.0895 -0.6192 -0.1194
    2SAPS  H18X  264   4.205   4.885   5.388 -1.7839 -0.3399 -0.4998
    2SAPS  H18Y  265   4.077   4.769   5.441 -0.2558  0.2255 -1.2326
    2SAPS  H18Z  266   4.222   4.720   5.332  0.1438 -0.0687 -0.4908
    3SAPS     N  267   5.249   4.835   7.883  0.5933  0.0799 -0.0152
    3SAPS   HN1  268   5.228   4.755   7.819  2.0131 -1.1221  0.9319
    3SAPS   HN2  269   5.177   4.819   7.956 -1.0645  0.0696 -1.5949
    3SAPS   HN3  270   5.228   4.926   7.839  1.1624 -0.1599 -0.8083
    3SAPS   C12  271   5.384   4.832   7.926 -0.5257  0.1109  0.0489
    3SAPS  H12A  272   5.414   4.927   7.969 -1.6050  0.5250 -0.0736
    3SAPS   C13  273   5.404   4.723   8.035 -0.4190  0.3374  0.2966
    3SAPS  O13A  274   5.307   4.662   8.087  0.0211  0.0774  0.3671
    3SAPS  O13B  275   5.508   4.730   8.105 -0.1695  0.0163  0.1279
    3SAPS   C11  276   5.485   4.824   7.801  1.1793  0.1591 -0.1764
    3SAPS  H11A  277   5.481   4.718   7.768  1.8052  0.0716  0.0251
    3SAPS  H11B  278   5.582   4.850   7.849  0.7500 -0.1081  0.8747
    3SAPS     P  279   5.516   4.932   7.559  0.2226  0.3326 -0.3433
    3SAPS   O13  280   5.626   5.025   7.582  0.4264 -0.0258 -0.2300
    3SAPS   O14  281   5.545   4.798   7.498 -0.6577  0.4889 -0.3188
    3SAPS   O12  282   5.438   4.914   7.700 -0.0194  0.4598 -0.4066
    3SAPS   O11  283   5.417   5.012   7.470  1.3514  0.5188  0.7241
    3SAPS    C1  284   5.277   4.972   7.460  0.2279 -0.5069 -0.2128
    3SAPS    HA  285   5.250   4.907   7.546  1.3920  0.1594  0.6879
    3SAPS    HB  286   5.212   5.061   7.468 -0.2922 -0.9521  0.5636
    3SAPS    C2  287   5.247   4.892   7.329 -0.5669 -0.4776 -0.7683
    3SAPS    HS  288   5.324   4.813   7.340 -0.2191  0.1697  2.5633
    3SAPS   O21  289   5.271   4.979   7.219  0.8325  0.2032 -0.0341
    3SAPS   C21  290   5.180   5.068   7.180 -0.5459  0.8717 -0.2564
    3SAPS   O22  291   5.066   5.083   7.223  0.3566  0.5023  0.7970
    3SAPS   C22  292   5.248   5.159   7.074 -0.0774 -0.6605  0.0750
    3SAPS   H2R  293   5.308   5.235   7.128  0.6126 -1.5127  0.5282
    3SAPS   H2S  294   5.334   5.099   7.035  1.7228  1.2951  0.8532
    3SAPS    C3  295   5.111   4.822   7.333 -0.7698  0.1770  0.1230
    3SAPS    HX  296   5.026   4.880   7.375 -1.5333  0.7562 -2.1098
    3SAPS    HY  297   5.123   4.748   7.415 -1.8790  2.0029  2.0524
    3SAPS   O31  298   5.069   4.758   7.210 -0.1544  0.0434 -0.1825
    3SAPS   C31  299   5.140   4.657   7.166 -0.0485 -0.2308 -0.8957
    3SAPS   O32  300   5.229   4.610   7.229 -1.2192 -0.6093  0.3513
    3SAPS   C32  301   5.114   4.622   7.023  1.2096 -0.9156 -0.6417
    3SAPS   H2X  302   5.014   4.573   7.032 -0.5878  2.5251  0.1458
    3SAPS   H2Y  303   5.198   4.565   6.979  1.6445 -0.6198 -0.1963
    3SAPS   C23  304   5.147   5.230   6.977  0.0652 -0.3571 -0.1298
    3SAPS   H3R  305   5.189   5.313   6.916 -3.2630  2.3894  0.9841
    3SAPS   H3S  306   5.064   5.271   7.039  0.0721  0.8653 -0.8923
    3SAPS   C24  307   5.090   5.125   6.874 -0.2505 -0.1857  0.2231
    3SAPS   H4R  308   5.007   5.165   6.813  1.3801  0.9937 -1.3450
    3SAPS   H4S  309   5.059   5.033   6.928  0.0822  0.5873  1.7795
    3SAPS   C25  310   5.208   5.080   6.791  0.3881 -0.3507  0.3082
    3SAPS   H5R  311   5.296   5.040   6.844  0.5155 -1.7994 -0.9390
    3SAPS   C26  312   5.216   5.080   6.657 -0.1593 -0.1160  0.0714
    3SAPS   H6R  313   5.312   5.042   6.619 -0.6119 -0.5055 -0.6856
    3SAPS   C27  314   5.116   5.138   6.559 -0.3844  0.2974 -0.8405
    3SAPS   H7R  315   5.160   5.235   6.528  1.4023 -0.3404 -0.4038
    3SAPS   H7S  316   5.019   5.163   6.607 -0.4036 -0.0922 -0.6738
    3SAPS   C28  317   5.085   5.045   6.448  0.0325  0.6361 -0.4291
    3SAPS   H8R  318   5.021   4.964   6.483 -0.0753  1.0612  0.3728
    3SAPS   C29  319   5.113   5.045   6.317  0.0725  0.0112  0.1759
    3SAPS   H9R  320   5.062   4.975   6.250 -0.7888  2.4451 -1.8854
    3SAPS  C210  321   5.167   5.171   6.245 -0.1070 -0.6046 -0.8977
    3SAPS  H10R  322   5.216   5.245   6.312  1.3334  0.6837 -3.2140
    3SAPS  H10S  323   5.088   5.233   6.198 -0.3149 -0.0769  0.1225
    3SAPS  C211  324   5.266   5.146   6.139 -0.9448 -1.2397  0.0475
    3SAPS  H11R  325   5.368   5.180   6.162 -1.5950 -0.2742  1.6623
    3SAPS  C212  326   5.240   5.101   6.016 -0.1136 -0.1776  0.0362
    3SAPS  H12R  327   5.326   5.085   5.950 -0.7663 -1.1164 -0.6029
    3SAPS  C213  328   5.109   5.058   5.965 -0.4254  0.5836 -0.1334
    3SAPS  H13R  329   5.047   5.138   5.918 -2.4250 -0.4499  0.6723
    3SAPS  H13S  330   5.041   5.034   6.049 -2.3678  4.0271 -0.5356
    3SAPS  C214  331   5.122   4.929   5.876 -1.3978  0.2029 -1.3109
    3SAPS  H14R  332   5.222   4.906   5.839  0.0930  2.4278  0.9509
    3SAPS  C215  333   5.021   4.846   5.856  0.7442  0.0237 -0.2534
    3SAPS  H15R  334   5.040   4.759   5.791  3.5649 -0.4618  1.0278
    3SAPS  C216  335   4.876   4.856   5.890  0.3678  0.3504  0.6532
    3SAPS  H16R  336   4.847   4.943   5.952  0.0716  0.6457  0.1133
    3SAPS  H16S  337   4.833   4.767   5.939 -0.2538  0.7582  0.8579
    3SAPS  C217  338   4.789   4.869   5.770  0.5799 -0.7825  0.3195
    3SAPS  H17R  339   4.683   4.861   5.801  0.2130  0.8476 -0.3798
    3SAPS  H17S  340   4.793   4.779   5.706 -0.0910 -0.2789 -0.4571
    3SAPS  C218  341   4.807   4.998   5.693 -0.2910  0.5947  0.4831
    3SAPS  H18R  342   4.917   5.007   5.678  0.0285 -0.7210  1.7907
    3SAPS  H18S  343   4.777   5.088   5.752 -0.2035  2.0007 -1.5156
    3SAPS  C219  344   4.721   5.003   5.564 -0.5136  0.4620 -0.9049
    3SAPS  H19R  345   4.614   4.992   5.593 -0.5512 -0.5177 -1.3801
    3SAPS  H19S  346   4.731   5.106   5.522  0.3189  1.0652  0.6928
    3SAPS  C220  347   4.774   4.908   5.458  0.6425 -0.0330  0.3541
    3SAPS  H20R  348   4.880   4.880   5.476  0.3658 -0.2244  1.8321
    3SAPS  H20S  349   4.753   4.953   5.359 -0.2410  0.7950  0.8928
    3SAPS  H20T  350   4.702   4.823   5.453 -2.0112  2.1802 -2.2204
    3SAPS   C33  351   5.093   4.744   6.930 -0.0711 -0.2067  0.3256
    3SAPS   H3X  352   5.188   4.798   6.909  0.4003 -0.4068  1.8377
    3SAPS   H3Y  353   5.019   4.809   6.981  0.5341 -0.0951  1.0825
    3SAPS   C34  354   5.022   4.703   6.801 -0.4513 -0.2705 -0.3365
    3SAPS   H4X  355   5.000   4.790   6.736  2.0896  0.4327 -0.3498
    3SAPS   H4Y  356   4.925   4.654   6.826 -0.0005 -1.1718 -0.2908
    3SAPS   C35  357   5.100   4.612   6.708 -0.0057  0.1741  0.3412
    3SAPS   H5X  358   5.207   4.621   6.736  0.0095  0.7443  0.1216
    3SAPS   H5Y  359   5.069   4.509   6.734 -0.1357 -0.4516 -2.0848
    3SAPS   C36  360   5.073   4.643   6.559 -0.2254 -0.8020  0.3076
    3SAPS   H6X  361   5.066   4.751   6.535  0.4883 -0.7737  0.2062
    3SAPS   H6Y  362   4.968   4.611   6.539 -0.4067  0.3876 -0.7815
    3SAPS   C37  363   5.170   4.562   6.475 -0.2317  0.4981  1.0318
    3SAPS   H7X  364   5.151   4.455   6.498 -2.1755  0.2463 -1.3405
    3SAPS   H7Y  365   5.273   4.589   6.504  0.2577 -1.5902  1.4131
    3SAPS   C38  366   5.155   4.589   6.322 -0.0570  0.1764 -0.0813
    3SAPS   H8X  367   5.165   4.699   6.308 -1.2679  0.4649  1.1465
    3SAPS   H8Y  368   5.050   4.579   6.285 -0.5958 -1.6561  1.7721
    3SAPS   C39  369   5.262   4.526   6.238 -0.4858  0.8301  0.2961
    3SAPS   H9X  370   5.260   4.417   6.259  1.8221  0.3768 -1.4059
    3SAPS   H9Y  371   5.363   4.553   6.277  0.2621 -1.2458 -0.0848
    3SAPS  C310  372   5.229   4.534   6.082  0.4535 -0.4782  0.3167
    3SAPS  H10X  373   5.208   4.637   6.046 -1.4241 -0.4073  1.4779
    3SAPS  H10Y  374   5.136   4.481   6.051 -0.8164  1.1758  1.1554
    3SAPS  C311  375   5.340   4.473   5.988  1.0679 -0.1286  0.6865
    3SAPS  H11X  376   5.339   4.363   6.004 -1.3193 -0.1895  0.3972
    3SAPS  H11Y  377   5.438   4.515   6.020  1.5720  0.0385 -1.0209
    3SAPS  C312  378   5.308   4.507   5.844 -0.3298 -0.0446 -0.0884
    3SAPS  H12X  379   5.324   4.615   5.821 -1.3484 -0.3596 -2.5477
    3SAPS  H12Y  380   5.198   4.495   5.832 -0.3951  0.3639  0.0572
    3SAPS  C313  381   5.389   4.425   5.739  0.4716  0.1107  0.1959
    3SAPS  H13X  382   5.371   4.316   5.753  0.2892  0.3800  2.4426
    3SAPS  H13Y  383   5.499   4.443   5.740  0.7006 -1.1440 -0.2875
    3SAPS  C314  384   5.340   4.453   5.592  0.3642 -0.4800  0.4076
    3SAPS  H14X  385   5.235   4.417   5.586  0.2243 -0.1382  0.7425
    3SAPS  H14Y  386   5.401   4.395   5.520 -1.1675 -0.4903 -0.9292
    3SAPS  C315  387   5.356   4.603   5.543  0.0822  0.1666  0.4533
    3SAPS  H15X  388   5.447   4.661   5.567 -0.5261  1.7855 -0.9063
    3SAPS  H15Y  389   5.278   4.665   5.593 -1.7086 -0.3531 -1.5373
    3SAPS  C316  390   5.341   4.633   5.400 -0.3005  0.0711 -0.3062
    3SAPS  H16X  391   5.254   4.585   5.351  1.4124 -1.8254 -1.6284
    3SAPS  H16Y  392   5.425   4.574   5.358 -0.1606 -2.6424  3.2991
    3SAPS  C317  393   5.351   4.783   5.378 -0.0782  0.2311  0.4758
    3SAPS  H17X  394   5.426   4.828   5.445  2.4815  0.5719 -2.3750
    3SAPS  H17Y  395   5.251   4.828   5.399 -1.2412 -0.6362 -2.5727
    3SAPS  C318  396   5.394   4.828   5.239  0.1104  0.0300  0.3144
    3SAPS  H18X  397   5.315   4.806   5.163  0.4936  0.9625 -0.3734
    3SAPS  H18Y  398   5.487   4.772   5.215 -1.0829 -2.1876  0.6349
    3SAPS  H18Z  399   5.413   4.936   5.255 -1.2105  0.1701  1.1419
    4SAPS     N  400   5.124   0.209   7.233  0.0819 -0.0837  0.5986
    4SAPS   HN1  401   5.161   0.197   7.137 -3.5635  0.2941 -1.0393
    4SAPS   HN2  402   5.193   0.178   7.304 -1.0231 -0.8672  1.3601
    4SAPS   HN3  403   5.045   0.142   7.242 -1.9071  1.5271 -2.6347
    4SAPS   C12  404   5.072   0.351   7.251 -0.2824  0.4768  0.9597
    4SAPS  H12A  405   5.021   0.359   7.346  0.8584 -0.0826  1.6468
    4SAPS   C13  406   5.183   0.461   7.256 -0.3923  0.6235 -0.8065
    4SAPS  O13A  407   5.302   0.428   7.236  0.4464  0.1256  0.0722
    4SAPS  O13B  408   5.149   0.577   7.277  0.5064  0.2022 -0.5419
    4SAPS   C11  409   4.979   0.387   7.132  0.5449  0.0086 -0.2001
    4SAPS  H11A  410   5.046   0.401   7.044 -0.7591 -0.3562 -1.2839
    4SAPS  H11B  411   4.932   0.485   7.155 -2.9576 -1.1383 -1.7022
    4SAPS     P  412   4.824   0.271   6.961 -0.2021 -0.6295  0.0750
    4SAPS   O13  413   4.937   0.211   6.879  0.4710  0.2733 -0.5476
    4SAPS   O14  414   4.695   0.200   6.957  0.0805  0.1492  0.1908
    4SAPS   O12  415   4.873   0.294   7.113 -0.1728  0.6561 -0.5250
    4SAPS   O11  416   4.819   0.426   6.915  0.3908  0.1735  0.2148
    4SAPS    C1  417   4.706   0.507   6.952 -0.0155 -0.4444 -0.2213
    4SAPS    HA  418   4.627   0.454   7.008 -1.2031  0.9647 -0.4992
    4SAPS    HB  419   4.727   0.591   7.022 -3.8272  2.2469 -1.9856
    4SAPS    C2  420   4.627   0.556   6.820 -0.4018  0.1388  0.1379
    4SAPS    HS  421   4.552   0.633   6.851  0.4409 -0.0311  2.8117
    4SAPS   O21  422   4.559   0.445   6.751 -0.5719  0.2119 -0.1081
    4SAPS   C21  423   4.466   0.377   6.809  0.1723  0.0606 -0.0905
    4SAPS   O22  424   4.412   0.413   6.914 -0.9063  0.5525 -0.2890
    4SAPS   C22  425   4.423   0.258   6.722 -0.3138  0.0176  0.3933
    4SAPS   H2R  426   4.361   0.305   6.643  0.1874 -3.1280 -2.0729
    4SAPS   H2S  427   4.518   0.225   6.674  0.7218  0.1975  2.1835
    4SAPS    C3  428   4.721   0.623   6.719  0.1447  0.3890  0.0236
    4SAPS    HX  429   4.794   0.545   6.686  1.7954  1.5659  0.7643
    4SAPS    HY  430   4.775   0.704   6.772 -0.2720  1.2758 -0.8763
    4SAPS   O31  431   4.656   0.681   6.602 -0.4017 -0.1659 -0.1176
    4SAPS   C31  432   4.591   0.797   6.623  0.0092  0.2593 -0.0914
    4SAPS   O32  433   4.584   0.855   6.726 -0.0563  0.3712  0.4226
    4SAPS   C32  434   4.518   0.838   6.496  0.1038  0.3392  0.4798
    4SAPS   H2X  435   4.431   0.769   6.494  1.0761 -0.9496  1.1894
    4SAPS   H2Y  436   4.588   0.806   6.415  0.5721  2.3464  0.0427
    4SAPS   C23  437   4.354   0.144   6.794  0.5962  0.3032  0.3784
    4SAPS   H3R  438   4.270   0.188   6.853 -0.9612  0.8587 -2.0943
    4SAPS   H3S  439   4.425   0.091   6.861  0.0878 -1.9872 -0.7753
    4SAPS   C24  440   4.288   0.045   6.686 -0.4248  0.1361  0.4509
    4SAPS   H4R  441   4.218   0.098   6.617  0.7229  0.5920 -0.3873
    4SAPS   H4S  442   4.223  -0.028   6.739 -0.6813 -0.4226 -0.6088
    4SAPS   C25  443   4.393  -0.037   6.616 -0.4701 -0.3264  0.5826
    4SAPS   H5R  444   4.473  -0.080   6.677  2.0704  1.1998 -1.4738
    4SAPS   C26  445   4.404  -0.054   6.484  0.0678  0.0250 -0.0334
    4SAPS   H6R  446   4.487  -0.122   6.456  2.6537  2.6035  0.8531
    4SAPS   C27  447   4.309  -0.007   6.375  0.2205 -0.3033 -0.5081
    4SAPS   H7R  448   4.210   0.008   6.424  0.9698 -0.7900  1.2379
    4SAPS   H7S  449   4.291  -0.075   6.288 -1.8220 -0.5065  0.0224
    4SAPS   C28  450   4.356   0.129   6.335  0.8753  0.5808 -0.2559
    4SAPS   H8R  451   4.429   0.185   6.395  2.7094 -2.3244  0.4154
    4SAPS   C29  452   4.315   0.196   6.221  0.0837 -0.2468 -0.0155
    4SAPS   H9R  453   4.345   0.300   6.198 -1.0515 -0.0962 -0.9322
    4SAPS  C210  454   4.241   0.136   6.103 -0.2849 -0.7854  1.1935
    4SAPS  H10R  455   4.148   0.083   6.133 -2.2342  0.3053 -2.3455
    4SAPS  H10S  456   4.316   0.070   6.055  0.8185  0.5379  1.0520
    4SAPS  C211  457   4.200   0.234   5.988  0.0749  0.4838 -0.0555
    4SAPS  H11R  458   4.153   0.327   6.024  0.7314  0.5931  0.5481
    4SAPS  C212  459   4.206   0.225   5.858  0.1549  0.5506  0.2158
    4SAPS  H12R  460   4.182   0.313   5.798  3.3688  2.3018  1.2747
    4SAPS  C213  461   4.256   0.112   5.780  1.0943  0.4893 -0.1629
    4SAPS  H13R  462   4.281   0.024   5.844 -1.6788  1.3542  2.3145
    4SAPS  H13S  463   4.358   0.145   5.749  0.4297  2.2231 -0.6287
    4SAPS  C214  464   4.159   0.102   5.663  0.1609  0.9207  0.2727
    4SAPS  H14R  465   4.090   0.016   5.669 -1.0544  1.8992  0.8226
    4SAPS  C215  466   4.163   0.182   5.549  0.3332  0.0730 -0.3065
    4SAPS  H15R  467   4.091   0.167   5.468  0.0098  1.2678 -0.2570
    4SAPS  C216  468   4.263   0.292   5.521 -0.5248  0.1483 -0.2154
    4SAPS  H16R  469   4.332   0.257   5.440  0.9876 -0.5496  1.3188
    4SAPS  H16S  470   4.328   0.299   5.611 -1.8034  1.1775  0.6556
    4SAPS  C217  471   4.198   0.421   5.483  0.4110 -0.1725  0.2747
    4SAPS  H17R  472   4.252   0.510   5.521  1.1189 -0.9489  1.1054
    4SAPS  H17S  473   4.097   0.419   5.530  0.5089 -0.3149  0.4810
    4SAPS  C218  474   4.169   0.422   5.326  0.2569  0.0483 -0.0064
    4SAPS  H18R  475   4.101   0.339   5.299  0.4736 -1.2776  3.1439
    4SAPS  H18S  476   4.262   0.400   5.270  0.3921 -0.6726  0.4980
    4SAPS  C219  477   4.110   0.548   5.274  0.1308  0.4352 -0.0868
    4SAPS  H19R  478   4.173   0.570   5.185  1.7734 -0.3637  0.8416
    4SAPS  H19S  479   4.124   0.634   5.342  0.8627  1.6549 -1.7091
    4SAPS  C220  480   3.968   0.524   5.224 -0.5192 -0.1698  0.6940
    4SAPS  H20R  481   3.962   0.437   5.155 -1.5976  1.5583 -1.5453
    4SAPS  H20S  482   3.949   0.614   5.161  0.8306  0.4575  1.1308
    4SAPS  H20T  483   3.901   0.508   5.311 -0.1529 -0.3167  0.9502
    4SAPS   C33  484   4.486   0.984   6.472 -0.4245 -0.2711 -0.1548
    4SAPS   H3X  485   4.580   1.041   6.483  1.2505 -2.7193 -0.8947
    4SAPS   H3Y  486   4.410   1.025   6.542  0.9478 -1.9977  2.5121
    4SAPS   C34  487   4.447   0.994   6.325 -0.5087 -0.3312  0.3156
    4SAPS   H4X  488   4.357   0.932   6.310 -1.3006  0.9705 -0.4928
    4SAPS   H4Y  489   4.532   0.965   6.259 -2.5060 -0.4185 -2.3587
    4SAPS   C35  490   4.425   1.139   6.275  0.0996 -0.3389 -0.1129
    4SAPS   H5X  491   4.515   1.203   6.287 -0.3491  0.2415  0.1433
    4SAPS   H5Y  492   4.351   1.189   6.339  0.2382  1.7815 -1.5156
    4SAPS   C36  493   4.367   1.145   6.132  0.2718  0.9358  0.3138
    4SAPS   H6X  494   4.320   1.243   6.111  1.3650  1.5705  0.7591
    4SAPS   H6Y  495   4.289   1.066   6.131 -1.3667  2.4466 -2.3124
    4SAPS   C37  496   4.462   1.123   6.017 -0.1486 -0.1101 -0.2415
    4SAPS   H7X  497   4.489   1.015   6.017 -1.7192 -0.5387 -1.7465
    4SAPS   H7Y  498   4.549   1.189   6.041 -0.8322  1.7228 -2.4801
    4SAPS   C38  499   4.394   1.146   5.878  0.2656  0.1998 -0.1141
    4SAPS   H8X  500   4.346   1.246   5.889 -0.5137 -0.1533 -0.1889
    4SAPS   H8Y  501   4.311   1.072   5.884  0.8519 -0.3528  1.4305
    4SAPS   C39  502   4.485   1.135   5.750  0.0848 -0.9092  0.1002
    4SAPS   H9X  503   4.528   1.034   5.736  3.2388  0.0389  1.8798
    4SAPS   H9Y  504   4.575   1.196   5.775 -3.5625  4.3175  2.4719
    4SAPS  C310  505   4.420   1.197   5.627  0.1902 -0.0392 -0.6958
    4SAPS  H10X  506   4.409   1.307   5.639 -0.2517 -0.0423 -1.0830
    4SAPS  H10Y  507   4.321   1.148   5.613 -0.2157  0.2171  1.0844
    4SAPS  C311  508   4.498   1.171   5.495 -0.0819 -0.1005  0.2694
    4SAPS  H11X  509   4.537   1.067   5.499 -1.6121 -0.7479 -0.7871
    4SAPS  H11Y  510   4.583   1.240   5.514 -0.6254  0.3492  1.1235
    4SAPS  C312  511   4.417   1.199   5.367  0.5640  0.3788 -0.1603
    4SAPS  H12X  512   4.398   1.308   5.369  3.0600  0.8693 -0.0902
    4SAPS  H12Y  513   4.316   1.152   5.365 -0.5488  2.6954 -1.0261
    4SAPS  C313  514   4.502   1.165   5.243 -0.3362 -0.0252  0.5392
    4SAPS  H13X  515   4.510   1.058   5.216  1.7250  0.2382 -0.1034
    4SAPS  H13Y  516   4.607   1.200   5.255  0.3257 -0.4755 -2.9714
    4SAPS  C314  517   4.468   1.242   5.116  0.3009  0.3621 -0.3276
    4SAPS  H14X  518   4.443   1.347   5.142 -1.7203 -0.1536 -0.0028
    4SAPS  H14Y  519   4.372   1.200   5.081 -0.0648  1.0755 -0.1956
    4SAPS  C315  520   4.575   1.237   5.012  0.3992 -0.1626  0.7081
    4SAPS  H15X  521   4.575   1.140   4.956 -0.9089  0.0127  0.3594
    4SAPS  H15Y  522   4.675   1.246   5.059 -0.4345  0.2067  2.5163
    4SAPS  C316  523   4.567   1.347   4.900  0.4095  0.1923 -0.6899
    4SAPS  H16X  524   4.659   1.337   4.839  1.6711 -0.3086  1.2070
    4SAPS  H16Y  525   4.561   1.450   4.942  2.9190  0.0328  0.1709
    4SAPS  C317  526   4.438   1.342   4.814 -0.2891  0.0910  0.0373
    4SAPS  H17X  527   4.351   1.370   4.878  0.0620  2.8239 -0.5235
    4SAPS  H17Y  528   4.422   1.240   4.773  0.1342  0.0935 -0.1442
    4SAPS  C318  529   4.446   1.446   4.694  0.4658 -0.1329 -0.4750
    4SAPS  H18X  530   4.375   1.411   4.616 -2.8145  1.0715  1.7383
    4SAPS  H18Y  531   4.548   1.445   4.650  0.5240  4.2441 -0.8445
    4SAPS  H18Z  532   4.428   1.549   4.730 -0.0907 -0.2070 -0.5365
    5SAPS     N  533   6.179   3.928   7.477 -0.0242 -0.1274 -0.0270
    5SAPS   HN1  534   6.150   3.867   7.398 -0.6235 -0.6995  0.6314
    5SAPS   HN2  535   6.238   4.009   7.446  1.2913 -0.8046  0.6311
    5SAPS   HN3  536   6.222   3.868   7.550 -0.9720 -0.4229  0.3033
    5SAPS   C12  537   6.063   3.986   7.544  1.1789 -0.0930 -0.3523
    5SAPS  H12A  538   5.998   3.901   7.562  1.0957  0.0818  0.2047
    5SAPS   C13  539   6.074   4.052   7.684 -0.5948  0.2063  0.1549
    5SAPS  O13A  540   6.186   4.061   7.735  0.3449  0.0071 -0.5341
    5SAPS  O13B  541   5.980   4.120   7.730  0.4786 -0.2435 -0.0779
    5SAPS   C11  542   6.001   4.094   7.445 -0.1840 -0.8761 -0.7215
    5SAPS  H11A  543   6.078   4.174   7.445  1.1996 -2.1599 -0.1276
    5SAPS  H11B  544   5.902   4.128   7.481 -0.5150 -1.3609 -1.1504
    5SAPS     P  545   5.989   4.142   7.184  0.1765  0.1344  0.6941
    5SAPS   O13  546   5.909   4.067   7.079 -0.1177  0.3511 -0.1399
    5SAPS   O14  547   5.942   4.278   7.221  0.0176 -0.6720 -0.7186
    5SAPS   O12  548   5.990   4.047   7.308  0.1365 -0.7846 -0.3192
    5SAPS   O11  549   6.139   4.156   7.140  0.2873 -0.4501 -0.1568
    5SAPS    C1  550   6.239   4.061   7.156  0.1979 -0.4776 -0.5745
    5SAPS    HA  551   6.319   4.105   7.219 -0.9002 -1.4442  1.6203
    5SAPS    HB  552   6.196   3.968   7.199 -0.3869  0.4127  0.8463
    5SAPS    C2  553   6.318   4.023   7.023  0.1095 -0.0165 -0.8151
    5SAPS    HS  554   6.390   3.943   7.051  0.0115 -1.1343 -3.4317
    5SAPS   O21  555   6.380   4.142   6.978  1.0041 -0.1763  0.1681
    5SAPS   C21  556   6.513   4.156   6.993  0.0844  0.0578 -0.1673
    5SAPS   O22  557   6.586   4.066   7.038  0.1027  0.2289 -0.1156
    5SAPS   C22  558   6.572   4.282   6.935  0.5511 -0.3815  0.2164
    5SAPS   H2R  559   6.568   4.363   7.012  0.4607 -0.8210  0.6796
    5SAPS   H2S  560   6.679   4.254   6.927  0.5304 -0.2603 -0.4979
    5SAPS    C3  561   6.215   3.969   6.926  0.2302  0.8345 -0.3126
    5SAPS    HX  562   6.134   4.046   6.918 -0.4844  0.2184  0.7781
    5SAPS    HY  563   6.166   3.881   6.973 -0.0295  0.2653 -1.5797
    5SAPS   O31  564   6.261   3.938   6.795 -0.9200  0.6537  0.5039
    5SAPS   C31  565   6.162   3.897   6.714  1.0595  0.0923 -0.1775
    5SAPS   O32  566   6.047   3.893   6.751 -0.0279 -0.3179  0.2893
    5SAPS   C32  567   6.207   3.857   6.571  0.6649 -0.1820 -0.5575
    5SAPS   H2X  568   6.283   3.776   6.575 -0.4869 -1.3063 -0.4465
    5SAPS   H2Y  569   6.244   3.950   6.523 -2.8809  1.6364 -0.1242
    5SAPS   C23  570   6.525   4.307   6.790  0.2463  0.1097  0.9249
    5SAPS   H3R  571   6.424   4.352   6.791  0.1083 -0.1905  2.0211
    5SAPS   H3S  572   6.523   4.214   6.730  2.3475  0.8017 -0.3220
    5SAPS   C24  573   6.609   4.416   6.726 -0.0521 -0.1798  0.9018
    5SAPS   H4R  574   6.715   4.386   6.736  0.1361 -0.4075 -1.2662
    5SAPS   H4S  575   6.604   4.508   6.788 -1.9864  1.5466 -1.5535
    5SAPS   C25  576   6.570   4.457   6.582 -0.0182  0.0707  0.0628
    5SAPS   H5R  577   6.482   4.524   6.581 -0.2588 -0.2295 -0.9290
    5SAPS   C26  578   6.633   4.421   6.469 -0.0487  0.1353  0.1657
    5SAPS   H6R  579   6.592   4.452   6.372  2.4029 -1.1535 -1.3673
    5SAPS   C27  580   6.752   4.330   6.456 -0.5037  0.3823 -0.3476
    5SAPS   H7R  581   6.716   4.240   6.401 -3.1337  0.7600  0.6154
    5SAPS   H7S  582   6.790   4.289   6.552 -1.8561 -0.8445 -0.2947
    5SAPS   C28  583   6.864   4.390   6.377  0.5721 -0.5021 -0.1217
    5SAPS   H8R  584   6.929   4.464   6.426 -0.3816  0.4433 -0.2460
    5SAPS   C29  585   6.893   4.350   6.254  0.1903  0.6843 -0.1236
    5SAPS   H9R  586   6.986   4.384   6.206 -0.6907  0.2391 -2.2630
    5SAPS  C210  587   6.822   4.247   6.169  0.1632  0.0488  0.0633
    5SAPS  H10R  588   6.713   4.262   6.182  0.0200 -1.5076  0.8314
    5SAPS  H10S  589   6.847   4.140   6.188 -3.1959 -0.9495 -0.4070
    5SAPS  C211  590   6.841   4.281   6.025 -0.2934  0.3566 -0.5158
    5SAPS  H11R  591   6.786   4.373   6.004 -0.9303  0.4327  1.2989
    5SAPS  C212  592   6.921   4.219   5.935  0.1236 -0.5003  0.9630
    5SAPS  H12R  593   6.915   4.268   5.837 -3.1517  0.8827  1.7566
    5SAPS  C213  594   7.008   4.091   5.944 -0.6001  0.2048  0.5472
    5SAPS  H13R  595   6.963   4.006   5.888  0.7585  0.0688 -0.4011
    5SAPS  H13S  596   7.020   4.058   6.049 -4.1104 -0.3891  0.9010
    5SAPS  C214  597   7.151   4.116   5.890 -0.0652  0.4614 -0.2087
    5SAPS  H14R  598   7.195   4.201   5.944 -1.2232 -0.4396  2.3137
    5SAPS  C215  599   7.212   4.051   5.791  0.2195 -0.4765 -0.5813
    5SAPS  H15R  600   7.309   4.087   5.755  0.5145 -0.6191  0.0627
    5SAPS  C216  601   7.150   3.952   5.694 -0.2116  0.1942 -0.0317
    5SAPS  H16R  602   7.174   3.972   5.588 -1.4378 -0.2757 -0.4127
    5SAPS  H16S  603   7.040   3.962   5.702 -0.2783  0.7614 -1.4232
    5SAPS  C217  604   7.180   3.799   5.727  0.6393  0.4232  0.3518
    5SAPS  H17R  605   7.142   3.749   5.635 -1.3759  0.5823  1.0397
    5SAPS  H17S  606   7.123   3.761   5.815 -0.7779 -0.2959 -0.8302
    5SAPS  C218  607   7.326   3.770   5.716 -0.0570  0.0176 -0.4343
    5SAPS  H18R  608   7.375   3.815   5.805 -0.2786 -1.7124  0.6065
    5SAPS  H18S  609   7.363   3.822   5.625 -1.0560  0.7431 -0.4428
    5SAPS  C219  610   7.360   3.611   5.709  0.1880  0.0069 -0.0096
    5SAPS  H19R  611   7.340   3.570   5.608  1.1158  0.9535 -0.5900
    5SAPS  H19S  612   7.285   3.567   5.778 -1.3522 -0.0541 -1.6403
    5SAPS  C220  613   7.508   3.585   5.740  0.3319  0.1975  0.3701
    5SAPS  H20R  614   7.552   3.646   5.821 -1.3730  0.5329  1.0993
    5SAPS  H20S  615   7.565   3.604   5.646  0.0156  0.4336  0.2219
    5SAPS  H20T  616   7.521   3.479   5.768  2.5807  0.1518 -0.6779
    5SAPS   C33  617   6.095   3.811   6.469 -0.1108  0.0458 -0.0354
    5SAPS   H3X  618   6.002   3.861   6.503 -2.0145 -2.7141 -0.8517
    5SAPS   H3Y  619   6.078   3.702   6.466 -1.5396  0.2512 -0.0549
    5SAPS   C34  620   6.134   3.854   6.330 -0.9636  0.0256  0.0005
    5SAPS   H4X  621   6.222   3.794   6.299 -0.3262  0.4365  0.9815
    5SAPS   H4Y  622   6.165   3.961   6.328 -3.1898  0.7167 -0.4162
    5SAPS   C35  623   6.017   3.831   6.232 -0.3970 -0.0434  0.0466
    5SAPS   H5X  624   5.932   3.891   6.270 -1.0608 -0.6072 -0.5066
    5SAPS   H5Y  625   5.973   3.729   6.231  1.4563 -0.8898 -0.8823
    5SAPS   C36  626   6.064   3.867   6.083 -0.0922  0.0725  0.3475
    5SAPS   H6X  627   5.987   3.821   6.017 -0.8178  0.9993  0.5301
    5SAPS   H6Y  628   6.165   3.829   6.055  1.9054  3.6427  2.0499
    5SAPS   C37  629   6.073   4.019   6.066  0.3882  0.1759  1.0274
    5SAPS   H7X  630   6.163   4.067   6.110  1.6454 -1.2817  0.2025
    5SAPS   H7Y  631   5.983   4.070   6.106  0.1555 -0.8369  1.8259
    5SAPS   C38  632   6.064   4.059   5.914 -0.2992 -0.2158 -0.5302
    5SAPS   H8X  633   6.032   4.164   5.898  0.3728  0.0635 -0.1025
    5SAPS   H8Y  634   5.975   4.001   5.880 -1.0127  0.7952 -0.4603
    5SAPS   C39  635   6.184   4.020   5.829  0.5973  0.0295  0.1121
    5SAPS   H9X  636   6.221   3.917   5.850  3.5412  1.1731  1.1859
    5SAPS   H9Y  637   6.272   4.082   5.854 -1.3986  2.8109  0.6479
    5SAPS  C310  638   6.173   4.045   5.678  0.5569  0.1225 -0.8524
    5SAPS  H10X  639   6.275   4.061   5.639  0.8897  1.5524  0.4937
    5SAPS  H10Y  640   6.120   4.142   5.666 -2.6944 -1.2582  0.9344
    5SAPS  C311  641   6.104   3.930   5.607 -0.2685 -0.9655 -0.3582
    5SAPS  H11X  642   6.009   3.899   5.656 -0.4104 -1.4830 -0.9504
    5SAPS  H11Y  643   6.163   3.838   5.624  0.0552 -0.8741 -0.9535
    5SAPS  C312  644   6.070   3.957   5.455 -0.4119  0.0373  0.6459
    5SAPS  H12X  645   6.010   4.049   5.446 -0.1013  0.1898  0.0638
    5SAPS  H12Y  646   6.017   3.867   5.417 -2.2131  2.2320 -2.5422
    5SAPS  C313  647   6.208   3.975   5.383 -0.0619  0.7087 -0.4484
    5SAPS  H13X  648   6.279   3.900   5.425 -2.1165 -0.9236  0.2865
    5SAPS  H13Y  649   6.246   4.079   5.393 -1.8052  1.4045 -0.5915
    5SAPS  C314  650   6.201   3.936   5.231  0.1811  0.9319  0.4437
    5SAPS  H14X  651   6.124   3.997   5.179 -0.2159  0.1625  0.1141
    5SAPS  H14Y  652   6.150   3.837   5.231 -0.0782  1.0517 -0.9686
    5SAPS  C315  653   6.324   3.942   5.151 -0.3429 -0.0803 -0.2047
    5SAPS  H15X  654   6.393   3.866   5.195 -3.5981 -3.1639  0.0022
    5SAPS  H15Y  655   6.375   4.040   5.147  0.2328 -0.3393  0.4078
    5SAPS  C316  656   6.296   3.923   5.002 -0.0192  0.8383  0.5600
    5SAPS  H16X  657   6.229   3.999   4.956 -1.4673 -0.9593 -0.4386
    5SAPS  H16Y  658   6.250   3.822   4.999  2.8601 -0.6297  1.6474
    5SAPS  C317  659   6.428   3.916   4.937  0.5667  0.2194  0.6114
    5SAPS  H17X  660   6.486   3.845   4.999 -0.2764  0.7563  2.0481
    5SAPS  H17Y  661   6.472   4.018   4.940  0.6306  0.2987 -1.2901
    5SAPS  C318  662   6.426   3.878   4.784  0.0321 -0.2458 -0.9626
    5SAPS  H18X  663   6.529   3.866   4.744  0.6022 -1.3424  0.7186
    5SAPS  H18Y  664   6.374   3.953   4.722 -2.4719  0.2891  1.5801
    5SAPS  H18Z  665   6.380   3.778   4.773 -2.1667  0.5863  0.0434
    6SAPS     N  666   6.341   2.314   7.367  0.1424 -0.2205 -0.2152
    6SAPS   HN1  667   6.413   2.332   7.439 -1.2465  1.1047  0.9045
    6SAPS   HN2  668   6.363   2.232   7.306 -0.1045  0.4428 -1.2112
    6SAPS   HN3  669   6.332   2.396   7.304  0.6448 -0.9460 -1.2873
    6SAPS   C12  670   6.207   2.276   7.424 -0.2195 -0.1516 -0.3757
    6SAPS  H12A  671   6.224   2.178   7.466  2.3651 -0.6696 -2.3242
    6SAPS   C13  672   6.144   2.376   7.524  0.3498  0.5307  0.5677
    6SAPS  O13A  673   6.211   2.466   7.581 -0.0113  0.0286  0.1328
    6SAPS  O13B  674   6.035   2.333   7.574 -0.4587 -0.2834  0.2350
    6SAPS   C11  675   6.106   2.260   7.303  0.0284  0.6452 -0.0599
    6SAPS  H11A  676   6.095   2.355   7.247 -1.6485  1.6108  1.7581
    6SAPS  H11B  677   6.004   2.245   7.347 -0.2067  0.8007 -0.5508
    6SAPS     P  678   6.124   2.136   7.072 -0.0852  0.1917 -0.1833
    6SAPS   O13  679   6.159   1.997   7.025 -0.8423 -0.4469 -0.3551
    6SAPS   O14  680   5.984   2.182   7.036 -0.4633 -0.2916 -0.1684
    6SAPS   O12  681   6.142   2.149   7.224  1.0647  0.2070 -0.1335
    6SAPS   O11  682   6.231   2.225   7.018  0.2617 -0.0416 -0.0824
    6SAPS    C1  683   6.251   2.360   6.984 -0.1047  0.1086  0.0020
    6SAPS    HA  684   6.185   2.429   7.041  1.1648  1.5454 -0.1843
    6SAPS    HB  685   6.357   2.385   7.003  0.5855 -0.6966 -2.3902
    6SAPS    C2  686   6.222   2.379   6.841 -0.3990 -0.0064 -0.8892
    6SAPS    HS  687   6.111   2.384   6.833 -0.6745 -1.4178  1.0561
    6SAPS   O21  688   6.276   2.264   6.769 -0.3490  0.0594 -0.8921
    6SAPS   C21  689   6.178   2.183   6.718 -0.3103  0.2793  0.6039
    6SAPS   O22  690   6.057   2.206   6.725  0.6285  0.2219 -0.9021
    6SAPS   C22  691   6.251   2.064   6.660  0.1028 -0.0077 -0.7385
    6SAPS   H2R  692   6.343   2.087   6.601 -0.3245 -1.0798 -1.8565
    6SAPS   H2S  693   6.272   1.996   6.745 -0.5889  2.1386  1.2617
    6SAPS    C3  694   6.265   2.513   6.784 -0.2770  0.4924 -0.3127
    6SAPS    HX  695   6.359   2.554   6.826 -0.2767  0.4643 -0.2851
    6SAPS    HY  696   6.194   2.593   6.812  0.1170  1.3719 -1.7431
    6SAPS   O31  697   6.285   2.506   6.639  0.6954  0.2378 -0.7280
    6SAPS   C31  698   6.176   2.504   6.575 -0.1487  0.2498  0.8685
    6SAPS   O32  699   6.063   2.509   6.624  0.1691 -0.4040  0.4618
    6SAPS   C32  700   6.208   2.512   6.424 -0.3140  0.2154 -0.1458
    6SAPS   H2X  701   6.295   2.446   6.402  0.6383  1.5732 -0.5815
    6SAPS   H2Y  702   6.232   2.617   6.396 -0.9195  0.2030 -0.7393
    6SAPS   C23  703   6.163   1.991   6.560  0.2155 -0.0673 -0.4123
    6SAPS   H3R  704   6.056   1.995   6.592  1.0602 -1.0140  2.9274
    6SAPS   H3S  705   6.198   1.886   6.556  1.0226  0.1529  0.5402
    6SAPS   C24  706   6.185   2.046   6.412 -0.0064 -0.3572  0.5886
    6SAPS   H4R  707   6.286   2.030   6.367 -1.2694  0.9051 -3.1019
    6SAPS   H4S  708   6.182   2.157   6.418  1.1085 -0.2614 -0.2638
    6SAPS   C25  709   6.071   2.013   6.331 -0.0503 -0.2081 -0.3310
    6SAPS   H5R  710   5.979   2.017   6.390  0.7820  0.3432  0.9759
    6SAPS   C26  711   6.080   1.999   6.196  0.9583  0.8012 -0.2291
    6SAPS   H6R  712   5.986   1.957   6.157 -0.0599  0.5418  2.3655
    6SAPS   C27  713   6.205   1.991   6.110  0.8483  0.3277 -0.1700
    6SAPS   H7R  714   6.283   1.922   6.150  0.1559  1.2702  3.1688
    6SAPS   H7S  715   6.247   2.094   6.108  1.5118  0.3090  3.7744
    6SAPS   C28  716   6.162   1.933   5.978 -0.0786  0.2413 -0.5367
    6SAPS   H8R  717   6.172   1.824   5.971 -0.4738  0.2120 -0.6419
    6SAPS   C29  718   6.128   1.999   5.864  0.3759  0.3080 -0.4660
    6SAPS   H9R  719   6.113   1.937   5.774  1.3251  1.5433 -1.5178
    6SAPS  C210  720   6.116   2.146   5.850  0.6600  0.2308  0.4372
    6SAPS  H10R  721   6.162   2.194   5.939  1.8723 -0.2831  0.1080
    6SAPS  H10S  722   6.008   2.172   5.860  0.5583 -0.0882  0.1878
    6SAPS  C211  723   6.168   2.197   5.725 -0.0105  0.2202  0.8215
    6SAPS  H11R  724   6.276   2.217   5.722 -0.3353  2.1994  0.3551
    6SAPS  C212  725   6.108   2.244   5.616  0.0420 -0.0643 -0.2161
    6SAPS  H12R  726   6.164   2.291   5.534  0.0583  0.1548 -0.0794
    6SAPS  C213  727   5.960   2.239   5.606 -1.2647 -0.8446 -0.1990
    6SAPS  H13R  728   5.920   2.335   5.645 -2.7375 -2.1488  1.7061
    6SAPS  H13S  729   5.916   2.163   5.674 -1.1287 -0.6145  0.1475
    6SAPS  C214  730   5.918   2.206   5.468 -1.1726  0.0509  0.8269
    6SAPS  H14R  731   5.895   2.099   5.454  0.9050 -0.3986  0.5437
    6SAPS  C215  732   5.894   2.294   5.364 -0.4006  0.5879 -0.5508
    6SAPS  H15R  733   5.858   2.253   5.268  0.8340 -2.8398  0.3070
    6SAPS  C216  734   5.909   2.444   5.384  0.4945 -0.5496 -0.4876
    6SAPS  H16R  735   5.921   2.482   5.488 -0.3550  0.2028 -0.6538
    6SAPS  H16S  736   5.815   2.485   5.342  0.6443 -0.3246 -0.6099
    6SAPS  C217  737   6.026   2.484   5.294 -0.1456  0.3051 -0.4101
    6SAPS  H17R  738   6.038   2.426   5.200  0.6185 -0.7448  0.3024
    6SAPS  H17S  739   6.122   2.468   5.349 -0.1942  0.7543 -0.1913
    6SAPS  C218  740   6.024   2.634   5.277 -0.5547  0.3027 -0.4774
    6SAPS  H18R  741   6.129   2.663   5.257 -0.5523  1.5722  1.0821
    6SAPS  H18S  742   5.987   2.688   5.368 -0.6976  0.7799 -0.8148
    6SAPS  C219  743   5.938   2.676   5.158  0.1736  0.1905 -0.0353
    6SAPS  H19R  744   5.830   2.657   5.176  0.1422  0.0347 -0.3824
    6SAPS  H19S  745   5.966   2.607   5.075  2.1514  0.0373  0.7133
    6SAPS  C220  746   5.956   2.823   5.111  0.3207 -0.5535 -0.0283
    6SAPS  H20R  747   5.944   2.894   5.196 -1.2329 -0.2829 -0.4467
    6SAPS  H20S  748   5.869   2.840   5.044 -0.4781  0.8159  1.2882
    6SAPS  H20T  749   6.054   2.839   5.061  0.3237 -0.8206 -0.1054
    6SAPS   C33  750   6.102   2.467   6.328  0.0558  0.0767  0.7392
    6SAPS   H3X  751   5.999   2.490   6.365  0.0371 -0.3957  0.9889
    6SAPS   H3Y  752   6.110   2.357   6.317  3.8784  0.4164 -1.5811
    6SAPS   C34  753   6.104   2.539   6.186  0.6955 -0.6749  0.0253
    6SAPS   H4X  754   6.118   2.649   6.197  2.9958 -1.0338  1.4551
    6SAPS   H4Y  755   6.004   2.535   6.138  0.6282 -0.3074  0.1292
    6SAPS   C35  756   6.203   2.472   6.089  0.7190  0.1591  0.1065
    6SAPS   H5X  757   6.170   2.366   6.095 -2.4401  1.0196 -0.0213
    6SAPS   H5Y  758   6.307   2.464   6.127  0.8714 -0.2591 -0.3950
    6SAPS   C36  759   6.209   2.521   5.946  0.8317  0.0260 -0.3029
    6SAPS   H6X  760   6.108   2.504   5.905 -0.1945  1.5982  1.3773
    6SAPS   H6Y  761   6.282   2.455   5.895  0.0431 -0.8504 -0.3171
    6SAPS   C37  762   6.257   2.665   5.924  0.2479  0.1636  0.1333
    6SAPS   H7X  763   6.367   2.674   5.939  0.2047  0.0183  0.5431
    6SAPS   H7Y  764   6.200   2.751   5.965 -0.2933 -0.5904  0.9752
    6SAPS   C38  765   6.252   2.681   5.769 -0.2897  0.0628 -0.2575
    6SAPS   H8X  766   6.151   2.681   5.721  0.8781  1.3388 -2.9256
    6SAPS   H8Y  767   6.310   2.595   5.730 -2.3185 -1.7437  0.4984
    6SAPS   C39  768   6.309   2.814   5.735  0.1448 -0.0598 -0.0114
    6SAPS   H9X  769   6.408   2.834   5.780 -0.0189 -2.1275  1.3979
    6SAPS   H9Y  770   6.230   2.876   5.783 -2.2499 -2.5913 -0.4164
    6SAPS  C310  771   6.299   2.844   5.586  0.1243 -0.4020 -0.1567
    6SAPS  H10X  772   6.330   2.950   5.575 -0.0575 -0.1187  1.6875
    6SAPS  H10Y  773   6.191   2.836   5.562 -0.2941 -0.9755  1.7364
    6SAPS  C311  774   6.380   2.760   5.495  0.3933  0.2756  0.4446
    6SAPS  H11X  775   6.353   2.652   5.497  0.8408  0.1214 -0.9017
    6SAPS  H11Y  776   6.486   2.761   5.529  0.9214  2.2117 -1.0770
    6SAPS  C312  777   6.380   2.798   5.341 -0.3105  0.1965 -0.9150
    6SAPS  H12X  778   6.370   2.908   5.328 -1.5610  0.1176 -0.6727
    6SAPS  H12Y  779   6.300   2.748   5.284 -1.7527  0.9493  0.3687
    6SAPS  C313  780   6.514   2.764   5.278 -0.2888  0.9639 -0.2598
    6SAPS  H13X  781   6.551   2.663   5.305 -2.0440  0.0738 -1.0658
    6SAPS  H13Y  782   6.596   2.828   5.320  0.0830  0.1197  0.3280
    6SAPS  C314  783   6.515   2.779   5.127  0.1656  0.2706 -0.3247
    6SAPS  H14X  784   6.461   2.869   5.092 -1.9683 -0.7252  0.2712
    6SAPS  H14Y  785   6.457   2.696   5.081  3.1500 -1.2935 -1.5406
    6SAPS  C315  786   6.663   2.769   5.067  0.4206 -0.1407 -0.3230
    6SAPS  H15X  787   6.691   2.667   5.100  0.1780  0.7754  3.0290
    6SAPS  H15Y  788   6.745   2.838   5.098  1.5805 -1.3072 -0.7212
    6SAPS  C316  789   6.669   2.749   4.917  0.4860 -0.2698 -0.0350
    6SAPS  H16X  790   6.563   2.724   4.896 -0.4007  2.0745  1.3050
    6SAPS  H16Y  791   6.744   2.672   4.890  1.7049  0.7077  0.4949
    6SAPS  C317  792   6.707   2.872   4.838 -0.1096 -0.2481 -0.5162
    6SAPS  H17X  793   6.798   2.910   4.888 -0.3677  1.7989 -1.5277
    6SAPS  H17Y  794   6.623   2.945   4.836  1.9810  2.2793 -1.2502
    6SAPS  C318  795   6.737   2.835   4.692 -0.4614 -0.2996 -0.3310
    6SAPS  H18X  796   6.834   2.782   4.685  0.9154  2.1105 -0.2469
    6SAPS  H18Y  797   6.752   2.922   4.626  1.7226  0.0466  0.5515
    6SAPS  H18Z  798   6.657   2.763   4.662  0.4586 -1.6944  0.4394
    7SAPS     N  799   4.055   4.393   7.448 -0.4065  0.8917 -0.6777
    7SAPS   HN1  800   4.080   4.477   7.504 -1.0898  1.3981 -1.1108
    7SAPS   HN2  801   4.112   4.391   7.361  1.1490  0.3702  0.3105
    7SAPS   HN3  802   3.952   4.393   7.430 -0.1566 -0.1487 -2.3550
    7SAPS   C12  803   4.092   4.278   7.538 -0.6340 -0.6536 -0.8935
    7SAPS  H12A  804   4.052   4.306   7.635  1.4846  1.7399 -0.6307
    7SAPS   C13  805   4.032   4.136   7.514  0.2182  0.7482  0.1717
    7SAPS  O13A  806   3.954   4.110   7.413  0.4120 -0.2574 -0.6010
    7SAPS  O13B  807   4.056   4.041   7.598 -1.0261 -0.0333 -0.5346
    7SAPS   C11  808   4.252   4.268   7.542 -0.2926  0.4386 -0.3113
    7SAPS  H11A  809   4.280   4.224   7.444 -3.8474 -0.5776 -1.0163
    7SAPS  H11B  810   4.288   4.196   7.620  0.4548  0.4941 -0.6091
    7SAPS     P  811   4.405   4.434   7.687 -0.1841 -0.2068  0.4030
    7SAPS   O13  812   4.363   4.362   7.812 -0.3921  0.2878 -0.0821
    7SAPS   O14  813   4.546   4.428   7.648 -0.0117 -0.3831  0.3583
    7SAPS   O12  814   4.310   4.397   7.563 -0.2845 -0.3015  0.1389
    7SAPS   O11  815   4.386   4.589   7.712 -0.1820 -0.7435 -0.4481
    7SAPS    C1  816   4.345   4.682   7.611 -0.6047  0.7953  0.6210
    7SAPS    HA  817   4.273   4.636   7.539  1.2756  0.8234 -1.3707
    7SAPS    HB  818   4.283   4.764   7.656 -0.5575 -0.2448  2.6739
    7SAPS    C2  819   4.462   4.756   7.530  0.2003  0.5669 -0.3477
    7SAPS    HS  820   4.417   4.834   7.466  2.4065  1.8250 -0.4542
    7SAPS   O21  821   4.546   4.673   7.461 -1.5510 -0.1747  0.9344
    7SAPS   C21  822   4.505   4.613   7.353 -0.1218 -0.4746 -0.4345
    7SAPS   O22  823   4.404   4.647   7.288  0.2951  0.2096 -0.1026
    7SAPS   C22  824   4.599   4.503   7.306 -0.1751  0.0836 -0.2792
    7SAPS   H2R  825   4.704   4.521   7.338  0.2105  0.9745 -1.9264
    7SAPS   H2S  826   4.556   4.409   7.346 -1.8191 -0.2805 -2.7261
    7SAPS    C3  827   4.534   4.845   7.631  0.3320  0.1045 -0.3890
    7SAPS    HX  828   4.579   4.795   7.719 -0.7578  2.1450  1.3981
    7SAPS    HY  829   4.474   4.920   7.686  1.1420 -1.4778  2.8775
    7SAPS   O31  830   4.653   4.906   7.574  0.0545 -0.0312 -0.3264
    7SAPS   C31  831   4.630   5.015   7.502  0.0602  0.1312  0.0421
    7SAPS   O32  832   4.523   5.074   7.490 -0.1385  0.8747 -0.3624
    7SAPS   C32  833   4.762   5.054   7.428  0.6621  0.1595 -0.9023
    7SAPS   H2X  834   4.827   4.966   7.411  0.8160  0.7534 -4.0612
    7SAPS   H2Y  835   4.814   5.131   7.489 -0.4519 -0.2894  0.6802
    7SAPS   C23  836   4.602   4.489   7.150  0.4242 -0.7480  0.3503
    7SAPS   H3R  837   4.499   4.482   7.109 -0.7921 -0.6340  3.1718
    7SAPS   H3S  838   4.649   4.390   7.132  0.1666 -0.7112 -0.5981
    7SAPS   C24  839   4.686   4.591   7.067 -0.3941  0.7746  0.0221
    7SAPS   H4R  840   4.704   4.532   6.974 -0.4695 -1.7513  1.5027
    7SAPS   H4S  841   4.784   4.611   7.116  0.2353 -1.5027 -0.1688
    7SAPS   C25  842   4.606   4.711   7.028 -0.4429 -0.0079  0.3941
    7SAPS   H5R  843   4.597   4.785   7.110 -0.3155  0.4199  0.0265
    7SAPS   C26  844   4.551   4.737   6.907  0.2945  0.3190  0.4976
    7SAPS   H6R  845   4.484   4.824   6.900 -0.0942  0.1523  1.9323
    7SAPS   C27  846   4.558   4.666   6.772 -0.2348  1.0620  0.0790
    7SAPS   H7R  847   4.460   4.658   6.720  0.8153 -3.2138 -1.7499
    7SAPS   H7S  848   4.592   4.561   6.789 -1.0210  0.1624 -3.0556
    7SAPS   C28  849   4.668   4.731   6.689 -0.6686 -0.6351  0.6704
    7SAPS   H8R  850   4.739   4.787   6.752  0.0876 -0.2127 -0.5373
    7SAPS   C29  851   4.687   4.725   6.557  0.7633 -0.4405  0.3602
    7SAPS   H9R  852   4.776   4.766   6.507  0.6084 -0.4737  0.0493
    7SAPS  C210  853   4.591   4.656   6.455 -0.0551 -0.1014 -0.0134
    7SAPS  H10R  854   4.487   4.647   6.495  0.5866  0.1139  1.7885
    7SAPS  H10S  855   4.626   4.551   6.448  0.0589 -0.4471  3.7183
    7SAPS  C211  856   4.576   4.732   6.324 -0.5748  0.3473  0.1222
    7SAPS  H11R  857   4.509   4.817   6.344  0.0324  0.0903  4.2970
    7SAPS  C212  858   4.646   4.719   6.214  0.2448 -0.2103 -0.4674
    7SAPS  H12R  859   4.616   4.793   6.138  0.8542  1.6139  0.9848
    7SAPS  C213  860   4.727   4.600   6.167 -1.1735  0.6774 -0.1814
    7SAPS  H13R  861   4.776   4.537   6.245  0.8702  1.1655 -1.0127
    7SAPS  H13S  862   4.816   4.637   6.111 -1.4847 -0.1483 -1.2646
    7SAPS  C214  863   4.656   4.505   6.072 -0.0349  0.1740 -0.2759
    7SAPS  H14R  864   4.547   4.497   6.084 -0.1570 -1.3702 -1.9226
    7SAPS  C215  865   4.704   4.452   5.957  0.2043 -0.4311 -0.0770
    7SAPS  H15R  866   4.641   4.383   5.900  1.4682 -1.3329 -0.4155
    7SAPS  C216  867   4.845   4.464   5.912 -0.4211  0.9057 -0.1181
    7SAPS  H16R  868   4.897   4.366   5.915 -0.7097  0.7099 -1.0437
    7SAPS  H16S  869   4.917   4.525   5.970 -0.1585  1.0554 -0.5945
    7SAPS  C217  870   4.848   4.510   5.765  0.3765 -0.4418  0.0309
    7SAPS  H17R  871   4.949   4.553   5.750  0.0066  0.3014 -0.3883
    7SAPS  H17S  872   4.765   4.576   5.729 -0.5273 -1.6080 -0.0802
    7SAPS  C218  873   4.827   4.386   5.675  0.0236 -0.0487 -0.5794
    7SAPS  H18R  874   4.752   4.318   5.720  2.6374 -1.6124  1.6627
    7SAPS  H18S  875   4.922   4.330   5.686 -0.1978 -0.1065  1.3836
    7SAPS  C219  876   4.811   4.409   5.525 -0.6271  0.8654 -0.0434
    7SAPS  H19R  877   4.710   4.452   5.507  0.1903  2.1463 -1.8402
    7SAPS  H19S  878   4.815   4.310   5.474  1.0758 -0.0797  1.7890
    7SAPS  C220  879   4.924   4.493   5.467  0.2547  0.6208 -0.2174
    7SAPS  H20R  880   5.022   4.447   5.491  0.2618  1.5271  1.7304
    7SAPS  H20S  881   4.925   4.597   5.508 -2.4928  0.9368 -0.7492
    7SAPS  H20T  882   4.907   4.505   5.358  0.2696  0.9926 -0.1804
    7SAPS   C33  883   4.744   5.134   7.292  0.5757  0.5940 -0.0321
    7SAPS   H3X  884   4.836   5.195   7.279  1.5609 -1.4312 -3.9168
    7SAPS   H3Y  885   4.656   5.198   7.316 -0.8899 -1.3049 -0.1126
    7SAPS   C34  886   4.728   5.058   7.164 -0.1152  0.3257  0.0474
    7SAPS   H4X  887   4.652   4.978   7.170 -2.0935  2.2094  1.6192
    7SAPS   H4Y  888   4.825   5.009   7.141 -0.1934  0.8778 -1.5963
    7SAPS   C35  889   4.690   5.137   7.034  1.1026 -0.1487 -0.4881
    7SAPS   H5X  890   4.758   5.225   7.043  0.7354  0.0531  0.5263
    7SAPS   H5Y  891   4.585   5.169   7.052  1.1129 -0.9825  1.2947
    7SAPS   C36  892   4.717   5.074   6.895 -0.4873  0.2023  0.1720
    7SAPS   H6X  893   4.639   4.998   6.877 -1.4224  0.9862  0.8002
    7SAPS   H6Y  894   4.816   5.028   6.878 -0.3419  0.3461  0.6141
    7SAPS   C37  895   4.698   5.178   6.787  0.0445 -0.3727 -0.0959
    7SAPS   H7X  896   4.773   5.260   6.798  0.3049 -0.8668  2.1179
    7SAPS   H7Y  897   4.599   5.223   6.809 -1.3060 -3.2071  0.0269
    7SAPS   C38  898   4.707   5.130   6.637  0.0185  0.1467 -0.1403
    7SAPS   H8X  899   4.626   5.057   6.616 -1.6858  1.3378  1.8079
    7SAPS   H8Y  900   4.795   5.063   6.624  0.2594  0.6455 -1.1866
    7SAPS   C39  901   4.718   5.256   6.543  0.1337  0.4035 -0.0450
    7SAPS   H9X  902   4.819   5.293   6.568  1.5081 -1.4766 -2.4143
    7SAPS   H9Y  903   4.641   5.335   6.561 -0.5255 -0.3066  0.3199
    7SAPS  C310  904   4.717   5.209   6.395 -0.2831 -0.1940 -1.0925
    7SAPS  H10X  905   4.633   5.138   6.377 -0.9356 -0.5130  2.3847
    7SAPS  H10Y  906   4.815   5.157   6.390 -0.7577 -1.2386  0.0909
    7SAPS  C311  907   4.729   5.327   6.294  0.1705 -0.1553 -0.0548
    7SAPS  H11X  908   4.817   5.384   6.332 -0.5481  0.9615 -0.0286
    7SAPS  H11Y  909   4.637   5.387   6.285 -1.2493 -2.3236 -0.7687
    7SAPS  C312  910   4.756   5.282   6.152  0.1246 -0.0566 -0.4957
    7SAPS  H12X  911   4.704   5.186   6.132 -0.3823 -0.1025  0.9835
    7SAPS  H12Y  912   4.863   5.252   6.145  0.0613 -0.6911  0.9337
    7SAPS  C313  913   4.725   5.383   6.037 -0.0587  0.6751  0.6079
    7SAPS  H13X  914   4.784   5.472   6.065  0.7256  0.0417  1.0062
    7SAPS  H13Y  915   4.619   5.412   6.053 -0.0805 -0.2129  2.4231
    7SAPS  C314  916   4.751   5.332   5.900  0.1103  0.2868  0.5385
    7SAPS  H14X  917   4.688   5.242   5.881  1.1232 -0.7250  1.7900
    7SAPS  H14Y  918   4.860   5.307   5.894  0.2459  1.2013 -1.7899
    7SAPS  C315  919   4.726   5.431   5.790 -0.1589  0.1635  0.2814
    7SAPS  H15X  920   4.786   5.523   5.805 -0.6777  0.5476  0.0438
    7SAPS  H15Y  921   4.621   5.467   5.798 -0.8112 -1.5313 -0.2425
    7SAPS  C316  922   4.757   5.370   5.653 -0.2049  0.0612  0.0048
    7SAPS  H16X  923   4.678   5.295   5.631 -1.5842  1.0887  1.1996
    7SAPS  H16Y  924   4.859   5.327   5.661 -0.1446  0.2613  0.3531
    7SAPS  C317  925   4.760   5.473   5.542  0.5550  0.1629 -0.0478
    7SAPS  H17X  926   4.847   5.542   5.542  2.7035 -2.3748 -0.7332
    7SAPS  H17Y  927   4.663   5.527   5.548  1.5704  2.0903 -0.3709
    7SAPS  C318  928   4.779   5.400   5.405 -0.1507  0.0453  0.2524
    7SAPS  H18X  929   4.780   5.467   5.317  0.9572 -1.4352 -0.9033
    7SAPS  H18Y  930   4.696   5.326   5.398 -0.3602  0.2723  0.2806
    7SAPS  H18Z  931   4.870   5.338   5.394 -1.5834 -2.2579  0.5558
    8SAPS     N  932   3.470   5.646   7.953  0.1416  0.2579 -0.3843
    8SAPS   HN1  933   3.485   5.665   8.054 -1.2870 -1.0600  0.0965
    8SAPS   HN2  934   3.539   5.690   7.887  0.9120 -1.1940 -0.5891
    8SAPS   HN3  935   3.385   5.697   7.922 -0.2501  1.2162  2.0655
    8SAPS   C12  936   3.461   5.500   7.923  0.1620 -0.4840  0.0068
    8SAPS  H12A  937   3.542   5.453   7.977  1.3493  1.6436  0.1992
    8SAPS   C13  938   3.337   5.413   7.961 -0.3738  0.3989  0.9437
    8SAPS  O13A  939   3.234   5.474   7.992  0.7765  0.4835 -0.5340
    8SAPS  O13B  940   3.329   5.295   7.927  0.0163  0.4954 -0.1188
    8SAPS   C11  941   3.492   5.486   7.773 -0.2701 -0.0499  1.1719
    8SAPS  H11A  942   3.423   5.546   7.710  1.3778  0.9192  0.1999
    8SAPS  H11B  943   3.483   5.386   7.726 -0.9742 -0.0714  1.3436
    8SAPS     P  944   3.748   5.470   7.685 -0.2477  0.0785 -0.1563
    8SAPS   O13  945   3.868   5.544   7.732 -0.5911  0.0716 -0.4202
    8SAPS   O14  946   3.752   5.323   7.697 -0.5361  0.2714 -0.0899
    8SAPS   O12  947   3.625   5.531   7.752  0.2683  0.0711  0.2892
    8SAPS   O11  948   3.725   5.501   7.532 -0.3852  0.4167  0.1726
    8SAPS    C1  949   3.682   5.630   7.489  0.0086 -0.3830  0.2278
    8SAPS    HA  950   3.574   5.645   7.471  0.3544  1.7121 -0.3843
    8SAPS    HB  951   3.706   5.707   7.566 -0.5999 -0.3918  0.4261
    8SAPS    C2  952   3.750   5.673   7.364  0.7118  0.2023 -0.1274
    8SAPS    HS  953   3.705   5.765   7.319  0.9591  0.3357 -0.1069
    8SAPS   O21  954   3.756   5.561   7.271  0.6571 -0.4938 -0.6213
    8SAPS   C21  955   3.633   5.538   7.216 -0.0485  0.3752 -0.3374
    8SAPS   O22  956   3.532   5.601   7.248 -0.1554  0.0152  0.1600
    8SAPS   C22  957   3.639   5.412   7.135  0.3339 -0.0268 -0.8046
    8SAPS   H2R  958   3.730   5.355   7.162  0.0842  0.6676  1.8501
    8SAPS   H2S  959   3.551   5.347   7.155  0.0281  0.9671  1.3730
    8SAPS    C3  960   3.896   5.712   7.397  0.2250  0.3016  0.6239
    8SAPS    HX  961   3.931   5.629   7.462  2.7691 -0.4854 -1.5877
    8SAPS    HY  962   3.904   5.800   7.463 -1.2841  0.4179  0.6869
    8SAPS   O31  963   3.985   5.711   7.292 -0.2731 -0.6656 -0.2515
    8SAPS   C31  964   3.987   5.815   7.210 -0.0903  0.3665  0.2095
    8SAPS   O32  965   3.916   5.911   7.215  0.0713 -0.3171  1.1299
    8SAPS   C32  966   4.103   5.800   7.109  0.4542 -0.1609 -0.4339
    8SAPS   H2X  967   4.110   5.695   7.073  0.6695 -0.3746  0.2186
    8SAPS   H2Y  968   4.196   5.826   7.164  2.0777 -0.8674 -2.6488
    8SAPS   C23  969   3.647   5.446   6.981  0.6282  0.3971  0.0381
    8SAPS   H3R  970   3.551   5.490   6.950  0.1718 -0.4532  0.2100
    8SAPS   H3S  971   3.641   5.348   6.928 -0.7440  0.6375 -0.2765
    8SAPS   C24  972   3.770   5.519   6.927  0.1977 -0.1788 -0.5250
    8SAPS   H4R  973   3.777   5.618   6.977  0.2637 -0.9268  1.0258
    8SAPS   H4S  974   3.750   5.537   6.820 -3.4874 -0.1526  0.0510
    8SAPS   C25  975   3.901   5.445   6.955  0.7981  1.0387  0.3755
    8SAPS   H5R  976   3.911   5.388   7.048  1.0894  2.2611  1.1129
    8SAPS   C26  977   4.001   5.438   6.866 -0.7374 -0.5923 -0.1778
    8SAPS   H6R  978   4.088   5.374   6.883  0.0609  0.3766 -0.5400
    8SAPS   C27  979   4.000   5.500   6.733  0.5653  0.4666 -0.0305
    8SAPS   H7R  980   3.942   5.594   6.738 -0.8826 -0.2093 -2.6717
    8SAPS   H7S  981   3.943   5.445   6.656 -1.1398  0.3038  1.2860
    8SAPS   C28  982   4.141   5.546   6.703 -0.5503  0.1095 -0.7357
    8SAPS   H8R  983   4.204   5.558   6.792 -1.9344  0.7796  0.1743
    8SAPS   C29  984   4.187   5.590   6.583  0.5765  0.2556  0.0438
    8SAPS   H9R  985   4.295   5.608   6.581  0.6359  0.0829  1.0869
    8SAPS  C210  986   4.122   5.566   6.446  0.5649  0.0235  0.4280
    8SAPS  H10R  987   4.061   5.474   6.462 -1.3483  0.8751 -1.5404
    8SAPS  H10S  988   4.201   5.567   6.367 -0.6387  0.6930 -0.8086
    8SAPS  C211  989   4.018   5.675   6.412 -0.3580  0.0320 -0.4154
    8SAPS  H11R  990   3.970   5.720   6.501  0.1874 -2.1292  1.0561
    8SAPS  C212  991   3.982   5.723   6.295  0.3274  0.4017 -0.0351
    8SAPS  H12R  992   3.909   5.804   6.283  0.0731  0.2507  0.4808
    8SAPS  C213  993   4.043   5.668   6.168  0.1839  0.8694  0.2644
    8SAPS  H13R  994   4.096   5.572   6.183  0.2016  0.9175  0.5246
    8SAPS  H13S  995   4.123   5.744   6.153 -0.9990  1.8479 -1.3334
    8SAPS  C214  996   3.944   5.656   6.058 -0.3167 -1.0736  0.0409
    8SAPS  H14R  997   3.846   5.616   6.090 -0.4239 -0.2636  0.7805
    8SAPS  C215  998   3.968   5.694   5.929 -0.2258  0.0148 -0.0800
    8SAPS  H15R  999   3.884   5.689   5.857 -3.0850  1.5393  2.8465
    8SAPS  C216 1000   4.098   5.748   5.876 -1.2035  0.6621 -0.7694
    8SAPS  H16R 1001   4.186   5.729   5.941  0.7528  3.5391 -2.3552
    8SAPS  H16S 1002   4.090   5.858   5.862 -1.2017  0.5272 -1.9318
    8SAPS  C217 1003   4.128   5.692   5.737  0.2569 -0.3436 -0.1426
    8SAPS  H17R 1004   4.219   5.750   5.707 -0.3182  0.2115 -0.8612
    8SAPS  H17S 1005   4.046   5.703   5.663 -0.8106 -2.6359  0.6109
    8SAPS  C218 1006   4.154   5.542   5.735  0.4521  0.2460 -0.4781
    8SAPS  H18R 1007   4.061   5.489   5.764  1.7883 -1.1743  1.4727
    8SAPS  H18S 1008   4.229   5.510   5.811 -0.3155 -1.4693 -0.4003
    8SAPS  C219 1009   4.210   5.484   5.596 -0.0709  0.3985 -0.0276
    8SAPS  H19R 1010   4.148   5.528   5.514  0.8159  1.9397  0.0886
    8SAPS  H19S 1011   4.187   5.377   5.610 -1.9699  0.6321 -1.0402
    8SAPS  C220 1012   4.360   5.515   5.588  0.1667 -0.3206  0.5795
    8SAPS  H20R 1013   4.406   5.467   5.499  0.5788 -0.0602  0.6491
    8SAPS  H20S 1014   4.409   5.489   5.684  0.5989  1.0399  0.7520
    8SAPS  H20T 1015   4.377   5.624   5.574  0.0155 -0.5149 -1.4037
    8SAPS   C33 1016   4.095   5.902   6.985  0.1273 -0.5556 -0.4252
    8SAPS   H3X 1017   4.179   5.871   6.919 -0.7876 -0.8445 -1.4866
    8SAPS   H3Y 1018   4.112   6.006   7.022 -0.8773 -0.1707 -1.0014
    8SAPS   C34 1019   3.969   5.876   6.898 -0.5372 -0.3478  0.1417
    8SAPS   H4X 1020   3.875   5.902   6.950 -0.8489 -0.7004 -0.2415
    8SAPS   H4Y 1021   3.976   5.770   6.864  0.9823 -0.4031  0.5426
    8SAPS   C35 1022   3.977   5.966   6.774  0.8186 -0.2131  0.2535
    8SAPS   H5X 1023   3.957   6.073   6.797  2.5559  0.6307 -1.8067
    8SAPS   H5Y 1024   3.895   5.940   6.703  0.2661 -0.7574  1.0801
    8SAPS   C36 1025   4.106   5.970   6.678 -0.2658  0.3455  0.5626
    8SAPS   H6X 1026   4.138   5.867   6.652  0.2774  0.6220  0.1061
    8SAPS   H6Y 1027   4.193   6.015   6.731 -0.4166  3.2869 -1.4402
    8SAPS   C37 1028   4.089   6.043   6.540  0.6147 -0.6761  0.3624
    8SAPS   H7X 1029   4.061   6.150   6.550  2.4137 -0.2885  1.7010
    8SAPS   H7Y 1030   4.021   5.989   6.471 -0.8655 -1.7378  2.5281
    8SAPS   C38 1031   4.225   6.057   6.474  1.1487  0.1499  0.4010
    8SAPS   H8X 1032   4.273   5.957   6.470 -0.6550 -0.7383  0.3013
    8SAPS   H8Y 1033   4.296   6.127   6.523 -0.2188  0.5618  1.8660
    8SAPS   C39 1034   4.200   6.104   6.327  1.0748  0.3449 -0.9094
    8SAPS   H9X 1035   4.145   6.201   6.327  2.2898  1.0531 -0.5718
    8SAPS   H9Y 1036   4.136   6.029   6.277  0.7272 -1.9850  2.6452
    8SAPS  C310 1037   4.324   6.139   6.243 -0.2001  0.0412  0.2956
    8SAPS  H10X 1038   4.387   6.050   6.224  0.5304  0.4960  0.5479
    8SAPS  H10Y 1039   4.386   6.210   6.302 -1.4216 -0.7210  2.6142
    8SAPS  C311 1040   4.291   6.204   6.108  0.3077 -0.7575 -0.1420
    8SAPS  H11X 1041   4.220   6.140   6.051 -0.1410  1.3989 -2.1522
    8SAPS  H11Y 1042   4.382   6.210   6.044 -1.0671  0.5747 -2.0736
    8SAPS  C312 1043   4.237   6.346   6.131 -0.2267  0.2863  0.1274
    8SAPS  H12X 1044   4.313   6.395   6.196  0.7638 -0.5525 -0.3668
    8SAPS  H12Y 1045   4.134   6.346   6.174  0.2619  0.5425  1.3543
    8SAPS  C313 1046   4.223   6.440   6.008 -0.7058 -0.2038  0.0367
    8SAPS  H13X 1047   4.321   6.492   5.993 -0.5039 -0.0600  1.6981
    8SAPS  H13Y 1048   4.136   6.507   6.026 -0.7369  0.1568 -1.3195
    8SAPS  C314 1049   4.180   6.363   5.882 -0.5489  0.5040  0.5712
    8SAPS  H14X 1050   4.090   6.301   5.901 -0.2686 -0.2628 -0.5544
    8SAPS  H14Y 1051   4.260   6.296   5.845  0.6423  2.5264 -0.7072
    8SAPS  C315 1052   4.153   6.459   5.757 -0.3834  0.3852 -0.4003
    8SAPS  H15X 1053   4.245   6.514   5.729 -1.4996  2.1812 -0.7101
    8SAPS  H15Y 1054   4.085   6.536   5.799  0.9476  1.6539 -0.5031
    8SAPS  C316 1055   4.101   6.392   5.625  0.4823 -0.9697  0.2338
    8SAPS  H16X 1056   4.017   6.330   5.664  0.3248 -0.3803  0.8579
    8SAPS  H16Y 1057   4.179   6.329   5.577  0.7957  0.7612 -1.6618
    8SAPS  C317 1058   4.044   6.493   5.514 -0.1583 -0.0669 -0.1556
    8SAPS  H17X 1059   4.105   6.583   5.489  0.1755 -0.6131 -1.3652
    8SAPS  H17Y 1060   3.952   6.537   5.559  0.5204 -0.7012  1.9539
    8SAPS  C318 1061   4.006   6.429   5.377  0.6979 -0.7298  0.5189
    8SAPS  H18X 1062   3.994   6.509   5.300 -2.2887  0.8237  2.3712
    8SAPS  H18Y 1063   3.906   6.381   5.382  1.4664 -2.2670  1.9435
    8SAPS  H18Z 1064   4.078   6.351   5.345 -0.4757 -1.6163 -0.0595
    9SAPS     N 1065   6.596   3.923   7.283 -0.0191 -0.0300 -0.7150
    9SAPS   HN1 1066   6.507   3.869   7.288  0.7485 -1.4024 -1.5600
    9SAPS   HN2 1067   6.594   3.995   7.208 -0.3212 -1.6236 -2.3041
    9SAPS   HN3 1068   6.668   3.858   7.248 -0.3789 -0.1219 -1.3050
    9SAPS   C12 1069   6.644   3.982   7.411 -0.2946 -0.2769 -0.5450
    9SAPS  H12A 1070   6.622   4.087   7.410  0.6831 -0.0191  1.0751
    9SAPS   C13 1071   6.590   3.915   7.541  0.0250  0.0689 -0.0406
    9SAPS  O13A 1072   6.530   3.806   7.531  0.3004  0.3801 -0.2791
    9SAPS  O13B 1073   6.616   3.974   7.649 -0.6317  0.4752  0.0233
    9SAPS   C11 1074   6.796   3.967   7.409 -0.6027 -0.1218  0.4635
    9SAPS  H11A 1075   6.819   3.859   7.404  2.0432  0.4044 -0.3381
    9SAPS  H11B 1076   6.857   4.011   7.491 -0.2210 -0.0750  0.1565
    9SAPS     P 1077   6.858   4.177   7.240  0.0991  0.1290  0.0405
    9SAPS   O13 1078   6.725   4.233   7.222  0.6196  0.2179 -0.0519
    9SAPS   O14 1079   6.952   4.250   7.323  0.1086  0.0394  0.0823
    9SAPS   O12 1080   6.847   4.025   7.286 -0.1232  0.2824 -0.4580
    9SAPS   O11 1081   6.915   4.162   7.096 -0.4934  0.4194  0.4082
    9SAPS    C1 1082   6.909   4.039   7.036  0.0300  1.0651  0.3073
    9SAPS    HA 1083   6.950   3.952   7.092 -0.1472 -1.1902 -2.8089
    9SAPS    HB 1084   6.807   4.006   7.005  0.0039  1.0724  0.3834
    9SAPS    C2 1085   6.977   4.032   6.899  0.0017  0.5244 -0.0780
    9SAPS    HS 1086   6.997   3.927   6.869  0.0516  0.9048 -1.4226
    9SAPS   O21 1087   7.106   4.098   6.908  0.2843 -0.1587 -0.4342
    9SAPS   C21 1088   7.204   4.037   6.971 -0.5484 -0.1788 -0.4194
    9SAPS   O22 1089   7.194   3.934   7.036 -0.4287 -0.2229  0.6313
    9SAPS   C22 1090   7.341   4.115   6.951 -0.8664 -0.3545  0.0967
    9SAPS   H2R 1091   7.324   4.173   6.858 -4.1124 -0.4722  0.4705
    9SAPS   H2S 1092   7.362   4.170   7.045  2.8470 -3.3770  1.2908
    9SAPS    C3 1093   6.893   4.093   6.787 -0.3824 -0.1752 -0.1000
    9SAPS    HX 1094   6.875   4.199   6.817  1.7460  0.1901  0.0922
    9SAPS    HY 1095   6.795   4.042   6.782 -0.9829  0.9070  0.1971
    9SAPS   O31 1096   6.973   4.098   6.666 -0.2618 -0.1725  0.5286
    9SAPS   C31 1097   7.049   4.197   6.628  0.1273  0.6666 -0.6336
    9SAPS   O32 1098   7.062   4.305   6.687 -0.4015  0.5508 -0.5209
    9SAPS   C32 1099   7.117   4.150   6.497  0.2134 -0.8127  0.0575
    9SAPS   H2X 1100   7.033   4.142   6.424 -0.6959  1.1343  0.8112
    9SAPS   H2Y 1101   7.178   4.059   6.514  2.7189  0.6392 -0.6915
    9SAPS   C23 1102   7.460   4.025   6.915  0.5491 -0.6327 -0.1283
    9SAPS   H3R 1103   7.433   3.965   6.825 -0.7105 -1.8797  1.0423
    9SAPS   H3S 1104   7.468   3.951   6.996 -0.0691  1.1497  1.6365
    9SAPS   C24 1105   7.589   4.104   6.901 -0.4274 -0.2228  1.1378
    9SAPS   H4R 1106   7.672   4.030   6.908 -1.2362 -1.0693  2.2088
    9SAPS   H4S 1107   7.602   4.167   6.991  0.3724  0.5347  0.5037
    9SAPS   C25 1108   7.586   4.184   6.772  0.2631 -0.7331 -0.0215
    9SAPS   H5R 1109   7.548   4.287   6.773  0.8794 -0.4771 -1.3162
    9SAPS   C26 1110   7.644   4.160   6.661  0.4034  0.5215 -0.0359
    9SAPS   H6R 1111   7.646   4.239   6.584  1.1076  2.4306  1.8547
    9SAPS   C27 1112   7.707   4.030   6.622  0.3403 -1.1464 -0.1314
    9SAPS   H7R 1113   7.612   3.973   6.613 -1.4292  1.7754 -1.3184
    9SAPS   H7S 1114   7.748   3.981   6.713 -2.1015 -0.3200  1.5367
    9SAPS   C28 1115   7.786   4.026   6.495 -0.1664  0.3818 -0.2751
    9SAPS   H8R 1116   7.893   4.045   6.508 -0.2717 -0.1997  1.7559
    9SAPS   C29 1117   7.734   3.994   6.371 -0.3805 -0.0768  0.7533
    9SAPS   H9R 1118   7.811   3.994   6.292  0.2454 -0.6761  1.3464
    9SAPS  C210 1119   7.587   3.972   6.336 -0.1605 -0.5936  0.5641
    9SAPS  H10R 1120   7.531   4.057   6.380  2.3420  1.5911 -0.1931
    9SAPS  H10S 1121   7.558   3.873   6.378 -1.9491 -0.6611 -0.7012
    9SAPS  C211 1122   7.564   3.982   6.184 -0.2192 -0.0771 -0.1251
    9SAPS  H11R 1123   7.643   4.033   6.127  0.2245 -0.8105 -0.1681
    9SAPS  C212 1124   7.454   3.940   6.124  0.2841 -0.0485  0.8551
    9SAPS  H12R 1125   7.460   3.955   6.015 -0.1496  0.0576  0.8454
    9SAPS  C213 1126   7.331   3.869   6.187 -0.7298 -0.0569  0.3892
    9SAPS  H13R 1127   7.252   3.947   6.199 -0.3966  0.4860 -0.7848
    9SAPS  H13S 1128   7.366   3.822   6.281 -1.2843 -2.6205 -0.5970
    9SAPS  C214 1129   7.283   3.752   6.105  0.2762  0.2272  0.2010
    9SAPS  H14R 1130   7.322   3.760   6.002  0.9741  0.5976  0.4921
    9SAPS  C215 1131   7.170   3.684   6.133 -0.9141 -0.2634  0.2686
    9SAPS  H15R 1132   7.146   3.606   6.059  1.7941  0.7081 -1.8479
    9SAPS  C216 1133   7.106   3.679   6.268  0.1959 -0.0609 -0.2795
    9SAPS  H16R 1134   6.996   3.668   6.253  0.3539  0.3343 -1.9084
    9SAPS  H16S 1135   7.108   3.778   6.318  0.8700  0.5009 -1.3671
    9SAPS  C217 1136   7.163   3.579   6.365 -0.0681  0.5172 -0.5102
    9SAPS  H17R 1137   7.265   3.606   6.397 -0.5893 -2.2402  4.3591
    9SAPS  H17S 1138   7.158   3.478   6.318  2.2292  1.0178 -1.9763
    9SAPS  C218 1139   7.095   3.575   6.506  0.3085  0.6263 -0.2258
    9SAPS  H18R 1140   7.133   3.489   6.565 -0.2427  0.1725 -0.5253
    9SAPS  H18S 1141   6.987   3.553   6.497  0.5478 -0.5402 -0.3222
    9SAPS  C219 1142   7.102   3.709   6.588 -0.5258 -0.4181 -0.7670
    9SAPS  H19R 1143   7.027   3.701   6.669  0.4074 -0.4644  0.1018
    9SAPS  H19S 1144   7.073   3.798   6.529 -2.3930 -0.0009  0.6929
    9SAPS  C220 1145   7.237   3.736   6.661  0.7666 -0.4711  0.4297
    9SAPS  H20R 1146   7.233   3.838   6.706 -0.5808  0.8425 -2.4091
    9SAPS  H20S 1147   7.328   3.726   6.597  0.2859  4.1423 -1.4439
    9SAPS  H20T 1148   7.258   3.670   6.748  2.1372 -2.7942 -1.5430
    9SAPS   C33 1149   7.192   4.269   6.432 -0.2263 -0.5026 -0.2000
    9SAPS   H3X 1150   7.266   4.307   6.506  2.0091 -2.6030 -1.2212
    9SAPS   H3Y 1151   7.126   4.357   6.414 -1.3825 -1.0651  1.1074
    9SAPS   C34 1152   7.273   4.246   6.299  0.8238 -0.2733  0.0383
    9SAPS   H4X 1153   7.207   4.197   6.224  0.7418 -2.9291  1.6891
    9SAPS   H4Y 1154   7.347   4.169   6.329  0.0746 -0.3433  1.8276
    9SAPS   C35 1155   7.336   4.371   6.246  0.4980  0.1670 -0.2161
    9SAPS   H5X 1156   7.395   4.404   6.334  0.3593 -1.6000  0.5726
    9SAPS   H5Y 1157   7.255   4.444   6.227  0.5329  0.2537 -0.0350
    9SAPS   C36 1158   7.420   4.369   6.119  0.6526  0.4503  0.2334
    9SAPS   H6X 1159   7.358   4.322   6.039  1.2066  1.0454 -0.5576
    9SAPS   H6Y 1160   7.501   4.300   6.151  0.2803  1.1651  2.9494
    9SAPS   C37 1161   7.478   4.491   6.053 -0.2801 -0.1684 -0.0115
    9SAPS   H7X 1162   7.533   4.557   6.123  0.4598  0.6574 -1.3268
    9SAPS   H7Y 1163   7.397   4.545   5.999 -0.5026 -0.6443 -0.1657
    9SAPS   C38 1164   7.571   4.436   5.950 -0.9872  0.1886 -0.0905
    9SAPS   H8X 1165   7.531   4.357   5.883 -1.5989  1.2816 -1.0347
    9SAPS   H8Y 1166   7.650   4.392   6.015 -2.3919  1.6276  2.7874
    9SAPS   C39 1167   7.619   4.552   5.865 -0.4460 -0.3114 -0.1528
    9SAPS   H9X 1168   7.714   4.588   5.911 -0.6909  1.3829 -0.8868
    9SAPS   H9Y 1169   7.539   4.629   5.866 -0.3796 -0.2251  1.1398
    9SAPS  C310 1170   7.673   4.524   5.724  0.6652  0.3553  0.5789
    9SAPS  H10X 1171   7.754   4.450   5.738 -0.5047 -0.9929  0.4160
    9SAPS  H10Y 1172   7.711   4.616   5.674  0.7196 -0.6259 -1.3034
    9SAPS  C311 1173   7.554   4.474   5.637  0.2411 -0.0064 -0.2866
    9SAPS  H11X 1174   7.477   4.553   5.630 -0.2271 -0.5990 -2.5149
    9SAPS  H11Y 1175   7.503   4.389   5.688  1.0009  1.0737  2.4357
    9SAPS  C312 1176   7.604   4.421   5.506  0.4110  0.0977  0.1468
    9SAPS  H12X 1177   7.657   4.324   5.514  0.4641 -0.0603 -1.7210
    9SAPS  H12Y 1178   7.681   4.496   5.478  1.3245 -0.2244  1.6903
    9SAPS  C313 1179   7.494   4.402   5.403  0.9067 -0.2293 -0.0231
    9SAPS  H13X 1180   7.538   4.340   5.323  0.0184 -1.1310  0.1660
    9SAPS  H13Y 1181   7.488   4.504   5.359  2.5589 -0.2700 -0.3838
    9SAPS  C314 1182   7.356   4.353   5.453 -0.1461 -0.5646 -0.4886
    9SAPS  H14X 1183   7.319   4.432   5.522 -1.2556 -1.7227  0.2731
    9SAPS  H14Y 1184   7.364   4.255   5.504 -0.7236  0.1900  1.1169
    9SAPS  C315 1185   7.251   4.326   5.335  0.1701  0.5732  0.9783
    9SAPS  H15X 1186   7.302   4.266   5.256  0.9143  0.5993  1.4300
    9SAPS  H15Y 1187   7.208   4.415   5.284  0.7341  0.6830  0.6844
    9SAPS  C316 1188   7.133   4.234   5.378  0.1298  0.4127  0.0740
    9SAPS  H16X 1189   7.100   4.270   5.478 -0.8765 -0.5171  0.0867
    9SAPS  H16Y 1190   7.163   4.128   5.386 -2.1501 -0.6280 -3.1883
    9SAPS  C317 1191   7.015   4.254   5.280  0.1430 -0.0416 -0.0632
    9SAPS  H17X 1192   6.988   4.361   5.290  0.8414  0.2980 -1.4607
    9SAPS  H17Y 1193   6.932   4.201   5.331 -0.7098  2.1123  0.9115
    9SAPS  C318 1194   7.028   4.211   5.136  0.2892  0.3500 -0.3941
    9SAPS  H18X 1195   6.929   4.209   5.086  0.8005  0.5016 -1.4417
    9SAPS  H18Y 1196   7.068   4.107   5.137  2.0210  0.9713  0.9196
    9SAPS  H18Z 1197   7.108   4.259   5.074  1.0705  0.2219  0.4875
   10SAPS     N 1198   3.905   3.811   7.540 -0.2950  0.8067  0.5092
   10SAPS   HN1 1199   3.966   3.760   7.607  0.6884  1.3778  0.0697
   10SAPS   HN2 1200   3.931   3.911   7.548 -1.4964  1.2151 -0.3245
   10SAPS   HN3 1201   3.808   3.798   7.574 -0.3785 -0.6261 -0.1941
   10SAPS   C12 1202   3.926   3.737   7.416  0.2371 -0.7953 -0.5782
   10SAPS  H12A 1203   3.941   3.809   7.337  3.7029 -1.8312 -1.0435
   10SAPS   C13 1204   4.048   3.638   7.426  0.5225 -0.0364 -0.4745
   10SAPS  O13A 1205   4.096   3.609   7.540  0.2292  0.1665  0.3933
   10SAPS  O13B 1206   4.071   3.566   7.325  0.3655  0.0014 -0.1748
   10SAPS   C11 1207   3.797   3.663   7.383 -0.4117 -0.1121 -0.1859
   10SAPS  H11A 1208   3.763   3.602   7.469 -1.7633  0.4533 -0.2934
   10SAPS  H11B 1209   3.819   3.598   7.296 -1.6239 -0.4338 -0.2668
   10SAPS     P 1210   3.607   3.741   7.213  0.2607  0.4624  0.4599
   10SAPS   O13 1211   3.613   3.600   7.171  0.0577 -0.1211 -0.1643
   10SAPS   O14 1212   3.471   3.797   7.233  0.2239  0.1527 -0.4923
   10SAPS   O12 1213   3.692   3.751   7.353  1.0191  0.0483  0.4168
   10SAPS   O11 1214   3.690   3.834   7.118 -0.3452 -0.4820 -0.2688
   10SAPS    C1 1215   3.715   3.967   7.167  0.3232 -0.2973  0.5973
   10SAPS    HA 1216   3.658   3.997   7.258  0.3691  0.2660  0.4453
   10SAPS    HB 1217   3.820   3.982   7.203 -0.3992  2.9002  1.7699
   10SAPS    C2 1218   3.700   4.071   7.058  0.6195 -1.0663 -0.1588
   10SAPS    HS 1219   3.594   4.092   7.034  1.5754  1.2143 -2.9246
   10SAPS   O21 1220   3.770   4.025   6.938  0.4073  0.2927  0.1090
   10SAPS   C21 1221   3.691   3.971   6.845 -0.3645  0.5846 -0.3455
   10SAPS   O22 1222   3.571   3.950   6.867  0.0683  0.1626 -0.6143
   10SAPS   C22 1223   3.774   3.956   6.715  0.1786 -0.7574  0.4494
   10SAPS   H2R 1224   3.792   4.053   6.664 -3.4118 -0.4708 -0.5455
   10SAPS   H2S 1225   3.867   3.900   6.737 -0.8746 -2.3531  0.9416
   10SAPS    C3 1226   3.762   4.210   7.089 -0.3846 -0.1909  0.1503
   10SAPS    HX 1227   3.873   4.208   7.087 -0.1567  0.1060  4.2011
   10SAPS    HY 1228   3.753   4.236   7.196  0.9917  2.7360 -0.3441
   10SAPS   O31 1229   3.712   4.326   7.015 -0.1822 -0.5400  0.8034
   10SAPS   C31 1230   3.579   4.354   7.030  0.1680 -0.3415 -0.4905
   10SAPS   O32 1231   3.511   4.285   7.106 -0.3378  0.5072  0.1910
   10SAPS   C32 1232   3.525   4.472   6.945 -0.2258 -0.4292 -0.6139
   10SAPS   H2X 1233   3.520   4.561   7.011  0.2019  0.3399 -1.5991
   10SAPS   H2Y 1234   3.427   4.433   6.911 -0.5689  0.6299 -0.8600
   10SAPS   C23 1235   3.696   3.863   6.614 -1.0783 -0.0390 -0.5292
   10SAPS   H3R 1236   3.601   3.907   6.576 -1.3318 -0.3587 -0.2772
   10SAPS   H3S 1237   3.652   3.775   6.666 -2.3983  1.6251  1.3142
   10SAPS   C24 1238   3.767   3.832   6.474  0.2953  0.4323 -0.0232
   10SAPS   H4R 1239   3.828   3.920   6.445  1.4353 -0.6667 -1.0201
   10SAPS   H4S 1240   3.679   3.819   6.408 -1.1199 -2.8282  2.2337
   10SAPS   C25 1241   3.849   3.714   6.491 -0.4954 -0.3771  0.1476
   10SAPS   H5R 1242   3.882   3.698   6.595 -1.0134  1.2057  0.5953
   10SAPS   C26 1243   3.891   3.629   6.394  0.6041 -0.4117 -0.7962
   10SAPS   H6R 1244   3.968   3.552   6.414 -0.9284 -1.3397  2.0211
   10SAPS   C27 1245   3.860   3.643   6.252 -0.1205 -0.0301 -0.1739
   10SAPS   H7R 1246   3.957   3.632   6.200 -0.7392 -1.4118 -1.0812
   10SAPS   H7S 1247   3.823   3.747   6.236 -0.8863  0.0391  1.7480
   10SAPS   C28 1248   3.755   3.546   6.204 -0.0638 -0.1210 -0.7179
   10SAPS   H8R 1249   3.698   3.490   6.280 -1.6119  0.4863 -1.3855
   10SAPS   C29 1250   3.738   3.500   6.081 -0.3618  0.0883  0.0872
   10SAPS   H9R 1251   3.673   3.414   6.062  0.6573 -0.3499 -1.6674
   10SAPS  C210 1252   3.822   3.540   5.963  0.1595 -0.2904 -0.3102
   10SAPS  H10R 1253   3.923   3.496   5.976 -0.2403 -1.0034  0.5174
   10SAPS  H10S 1254   3.818   3.651   5.957 -0.8123 -0.3517 -1.0800
   10SAPS  C211 1255   3.763   3.480   5.834  0.2140 -0.5171 -1.2235
   10SAPS  H11R 1256   3.766   3.370   5.823  0.5067 -0.4937 -1.3954
   10SAPS  C212 1257   3.703   3.557   5.747 -0.0504 -0.2031 -0.4268
   10SAPS  H12R 1258   3.669   3.515   5.651 -0.6450 -0.4567 -0.1132
   10SAPS  C213 1259   3.684   3.707   5.745  0.0085  0.4293  0.0478
   10SAPS  H13R 1260   3.653   3.743   5.846 -0.5420  0.5583 -0.1632
   10SAPS  H13S 1261   3.598   3.728   5.679  0.8066  0.3103 -1.0544
   10SAPS  C214 1262   3.806   3.784   5.709 -0.1612  0.4482 -0.3148
   10SAPS  H14R 1263   3.902   3.754   5.753  0.8960  0.7162 -2.3455
   10SAPS  C215 1264   3.807   3.886   5.618  0.1952 -0.7221  0.1637
   10SAPS  H15R 1265   3.900   3.944   5.606  0.0707 -0.4728  0.3833
   10SAPS  C216 1266   3.687   3.940   5.537 -0.0359 -0.6783 -0.6879
   10SAPS  H16R 1267   3.708   4.049   5.531 -0.5757 -0.5150  0.2545
   10SAPS  H16S 1268   3.592   3.913   5.588  0.9143 -0.0121  1.5507
   10SAPS  C217 1269   3.706   3.896   5.387 -0.4495  0.2153 -0.1685
   10SAPS  H17R 1270   3.809   3.917   5.351  0.5191 -1.0068  1.7592
   10SAPS  H17S 1271   3.644   3.971   5.334  0.1453 -0.3399 -1.7173
   10SAPS  C218 1272   3.656   3.749   5.372 -0.1119 -0.5381  0.3366
   10SAPS  H18R 1273   3.550   3.730   5.399 -1.2366  0.8323 -2.6167
   10SAPS  H18S 1274   3.730   3.704   5.442 -0.3779  1.0405  1.6972
   10SAPS  C219 1275   3.680   3.684   5.235  0.0923 -0.7566  0.5258
   10SAPS  H19R 1276   3.788   3.695   5.210  0.1778  1.9741  1.6883
   10SAPS  H19S 1277   3.636   3.747   5.155  0.4936  0.0110  0.9049
   10SAPS  C220 1278   3.630   3.543   5.214  0.7261 -0.5874  0.1335
   10SAPS  H20R 1279   3.635   3.510   5.108  1.3569  0.3287 -0.1368
   10SAPS  H20S 1280   3.523   3.528   5.239  0.5679  0.0149 -0.1611
   10SAPS  H20T 1281   3.685   3.468   5.276 -1.1855 -1.9174  0.2970
   10SAPS   C33 1282   3.616   4.533   6.831 -0.0565 -0.2358 -0.1006
   10SAPS   H3X 1283   3.720   4.519   6.867 -0.7571 -2.5603  1.2018
   10SAPS   H3Y 1284   3.589   4.641   6.823 -0.7628 -0.2269  1.9201
   10SAPS   C34 1285   3.591   4.463   6.694  0.1770 -0.2522 -0.5354
   10SAPS   H4X 1286   3.482   4.451   6.679  0.3634 -1.9869 -0.7178
   10SAPS   H4Y 1287   3.630   4.359   6.704  0.8143  0.1338  1.4644
   10SAPS   C35 1288   3.657   4.546   6.584  0.7586 -0.1045  0.3649
   10SAPS   H5X 1289   3.766   4.557   6.597  0.8861 -2.3268  1.7947
   10SAPS   H5Y 1290   3.609   4.646   6.578  0.8167  0.0279  1.7201
   10SAPS   C36 1291   3.628   4.484   6.447  0.0549 -0.4398  0.4370
   10SAPS   H6X 1292   3.524   4.454   6.423 -0.3801  1.1621  0.2006
   10SAPS   H6Y 1293   3.679   4.385   6.447  3.2175  1.0367  2.6542
   10SAPS   C37 1294   3.686   4.578   6.338  0.4453 -0.3827 -0.3762
   10SAPS   H7X 1295   3.794   4.596   6.355  0.5347 -1.0010 -0.2712
   10SAPS   H7Y 1296   3.623   4.669   6.337 -1.2108 -1.4831 -1.1077
   10SAPS   C38 1297   3.684   4.513   6.195 -0.2146  0.1170 -0.0572
   10SAPS   H8X 1298   3.582   4.478   6.167 -0.7386  1.5070  0.0582
   10SAPS   H8Y 1299   3.754   4.427   6.205 -1.8802 -1.4372 -1.1989
   10SAPS   C39 1300   3.727   4.612   6.095  0.3886  0.3240  0.3201
   10SAPS   H9X 1301   3.831   4.648   6.109  1.1419 -0.7558 -1.9420
   10SAPS   H9Y 1302   3.669   4.707   6.102 -1.9551 -0.7695 -2.1969
   10SAPS  C310 1303   3.718   4.567   5.944 -0.0252 -0.8613 -0.6745
   10SAPS  H10X 1304   3.624   4.515   5.915  0.6390 -1.5683 -1.6122
   10SAPS  H10Y 1305   3.795   4.493   5.914 -0.2694 -0.4546 -2.3921
   10SAPS  C311 1306   3.740   4.694   5.862 -0.2970  1.3135 -0.1798
   10SAPS  H11X 1307   3.833   4.746   5.894 -0.4528  0.6379  1.4832
   10SAPS  H11Y 1308   3.652   4.759   5.876 -1.0077  0.4975 -0.7373
   10SAPS  C312 1309   3.734   4.657   5.715  0.5159  0.4829  0.2410
   10SAPS  H12X 1310   3.635   4.610   5.696 -0.3348  2.2571  0.0451
   10SAPS  H12Y 1311   3.808   4.580   5.685  0.7575  0.9945 -0.5032
   10SAPS  C313 1312   3.741   4.783   5.633  0.2974  0.1370 -0.2038
   10SAPS  H13X 1313   3.831   4.842   5.658  1.8912 -2.0687 -0.4943
   10SAPS  H13Y 1314   3.652   4.847   5.652  0.1128 -0.2949  0.4188
   10SAPS  C314 1315   3.741   4.757   5.479 -0.0585  0.4841  0.1096
   10SAPS  H14X 1316   3.677   4.672   5.448  0.1593  0.5710 -0.5896
   10SAPS  H14Y 1317   3.846   4.730   5.458 -0.8387 -1.5038 -1.4855
   10SAPS  C315 1318   3.707   4.886   5.404 -0.0729  0.2248 -0.3318
   10SAPS  H15X 1319   3.612   4.932   5.440 -0.5262 -0.4670 -0.6332
   10SAPS  H15Y 1320   3.695   4.853   5.299 -0.2106 -2.3408  0.4230
   10SAPS  C316 1321   3.827   4.991   5.409 -0.4648  0.2427  0.9168
   10SAPS  H16X 1322   3.923   4.935   5.396  0.6555  2.8273 -4.6533
   10SAPS  H16Y 1323   3.830   5.047   5.505  0.4448 -1.6177  2.0543
   10SAPS  C317 1324   3.819   5.096   5.298  0.3235 -0.2510 -0.9480
   10SAPS  H17X 1325   3.728   5.153   5.328  0.7966 -0.2605  0.6327
   10SAPS  H17Y 1326   3.798   5.040   5.205  0.3916  0.3098 -1.3024
   10SAPS  C318 1327   3.945   5.185   5.282 -0.3874 -0.4874  0.2727
   10SAPS  H18X 1328   3.954   5.217   5.176 -0.4483 -0.0669  0.3932
   10SAPS  H18Y 1329   4.039   5.127   5.285  0.3462  0.6348 -0.3367
   10SAPS  H18Z 1330   3.955   5.263   5.360 -0.1613 -0.8063  0.5649
   11SAPS     N 1331   3.918   3.150   2.419 -0.2772 -0.3866 -0.4872
   11SAPS   HN1 1332   3.876   3.211   2.346 -0.1416 -0.0141 -0.2555
   11SAPS   HN2 1333   3.905   3.054   2.382  1.2295 -1.2352  1.0289
   11SAPS   HN3 1334   3.860   3.165   2.504  1.2338  0.2704  0.4761
   11SAPS   C12 1335   4.059   3.186   2.458  0.4870  0.7990  0.3356
   11SAPS  H12A 1336   4.081   3.128   2.546 -2.8722  0.8193  1.2884
   11SAPS   C13 1337   4.163   3.150   2.345 -0.4118 -0.0501 -0.7016
   11SAPS  O13A 1338   4.123   3.090   2.244 -0.0471  0.1595 -0.1536
   11SAPS  O13B 1339   4.283   3.159   2.373 -0.3033  0.4097 -0.0708
   11SAPS   C11 1340   4.068   3.337   2.496 -0.0638 -0.3902  0.2871
   11SAPS  H11A 1341   4.172   3.355   2.531 -0.6997  2.0732  1.1172
   11SAPS  H11B 1342   3.997   3.362   2.578 -0.9478  0.9140 -0.8338
   11SAPS     P 1343   4.094   3.574   2.385  0.0348 -0.2705  0.2341
   11SAPS   O13 1344   4.235   3.569   2.345 -0.4172  0.0182 -0.0851
   11SAPS   O14 1345   4.008   3.659   2.302  0.0068 -0.1516  0.1169
   11SAPS   O12 1346   4.039   3.429   2.384  0.4282  0.6837 -0.1424
   11SAPS   O11 1347   4.080   3.625   2.533 -0.0568 -0.6229  0.6669
   11SAPS    C1 1348   4.202   3.635   2.613 -0.0097  0.1133  0.9056
   11SAPS    HA 1349   4.267   3.545   2.603  1.1742  1.0598 -0.2553
   11SAPS    HB 1350   4.265   3.719   2.580 -0.2282 -0.2046 -0.3522
   11SAPS    C2 1351   4.162   3.653   2.764 -0.3919 -0.5523  0.4814
   11SAPS    HS 1352   4.257   3.639   2.819  0.0066  0.1204 -0.0262
   11SAPS   O21 1353   4.064   3.558   2.805 -0.3007 -0.1906 -0.0903
   11SAPS   C21 1354   4.115   3.440   2.827  0.2039  0.0337  0.0398
   11SAPS   O22 1355   4.229   3.405   2.822 -0.5175 -0.3023  0.1842
   11SAPS   C22 1356   3.999   3.355   2.864 -0.2240  0.8816 -0.1887
   11SAPS   H2R 1357   3.931   3.337   2.779 -0.0090  1.4003 -0.4737
   11SAPS   H2S 1358   4.051   3.261   2.895  2.6225  2.3509 -0.1657
   11SAPS    C3 1359   4.103   3.795   2.791  0.7060  0.7068  0.5357
   11SAPS    HX 1360   4.030   3.806   2.707  0.7036 -0.1813  0.4161
   11SAPS    HY 1361   4.182   3.871   2.770 -0.2355  1.3765 -0.8042
   11SAPS   O31 1362   4.038   3.800   2.924  0.2606  0.4856 -0.0081
   11SAPS   C31 1363   3.897   3.791   2.921  0.1069 -1.2704 -0.0616
   11SAPS   O32 1364   3.829   3.774   2.826 -0.4189 -0.6253  0.0421
   11SAPS   C32 1365   3.860   3.815   3.064 -0.1522 -0.2537  0.1778
   11SAPS   H2X 1366   3.895   3.916   3.097  3.3274 -2.0286  2.5360
   11SAPS   H2Y 1367   3.909   3.737   3.125  0.5906 -0.4856 -0.6905
   11SAPS   C23 1368   3.914   3.414   2.979 -0.9967  0.4342  0.3827
   11SAPS   H3R 1369   3.823   3.354   2.957  1.1189 -2.4997 -1.1946
   11SAPS   H3S 1370   3.899   3.523   2.971 -0.5117  0.3848 -1.7105
   11SAPS   C24 1371   3.983   3.398   3.111 -0.1559  0.0604  0.2188
   11SAPS   H4R 1372   4.078   3.454   3.109 -0.0918 -0.0000 -2.2965
   11SAPS   H4S 1373   4.008   3.290   3.119 -2.8744 -1.1612 -4.2227
   11SAPS   C25 1374   3.894   3.444   3.228  0.7082 -0.4852 -0.1826
   11SAPS   H5R 1375   3.909   3.548   3.257 -2.1587 -1.1821  4.9519
   11SAPS   C26 1376   3.798   3.372   3.283  0.6683 -0.1515  0.5187
   11SAPS   H6R 1377   3.739   3.421   3.362  2.6350  0.6889  1.5426
   11SAPS   C27 1378   3.767   3.239   3.245  0.2138 -0.2088  0.4747
   11SAPS   H7R 1379   3.843   3.198   3.176  0.5464  0.3032  0.5355
   11SAPS   H7S 1380   3.677   3.224   3.182 -0.1541  0.2945  0.8741
   11SAPS   C28 1381   3.748   3.148   3.365  0.6029 -0.4452 -0.2841
   11SAPS   H8R 1382   3.654   3.092   3.369  0.5661 -0.3316  2.7619
   11SAPS   C29 1383   3.834   3.141   3.469  0.2668  0.1193 -0.6823
   11SAPS   H9R 1384   3.815   3.078   3.557  1.6429  0.8986  0.2096
   11SAPS  C210 1385   3.967   3.215   3.489 -0.2950  0.1612  0.3731
   11SAPS  H10R 1386   3.956   3.324   3.506 -1.1882  0.1772 -0.2153
   11SAPS  H10S 1387   4.019   3.222   3.391 -1.6397  2.8847 -0.2399
   11SAPS  C211 1388   4.065   3.141   3.571 -0.2774  1.0150  0.1946
   11SAPS  H11R 1389   4.138   3.081   3.515  1.4389  2.3808  0.8520
   11SAPS  C212 1390   4.067   3.131   3.702  0.6423 -0.2570  0.0106
   11SAPS  H12R 1391   4.143   3.075   3.759 -0.6142 -0.5563  1.4767
   11SAPS  C213 1392   3.970   3.201   3.800 -0.2488 -1.1565  0.3483
   11SAPS  H13R 1393   3.922   3.291   3.757  0.3118 -1.6187 -1.3085
   11SAPS  H13S 1394   4.039   3.231   3.882  3.2777 -1.8971 -2.1252
   11SAPS  C214 1395   3.863   3.110   3.840 -0.2881 -0.1884  0.1943
   11SAPS  H14R 1396   3.833   3.051   3.751  1.2051  1.8826 -1.8004
   11SAPS  C215 1397   3.804   3.083   3.962 -0.4925  0.3584  0.3715
   11SAPS  H15R 1398   3.717   3.015   3.967 -0.9682  1.0293  2.0811
   11SAPS  C216 1399   3.833   3.136   4.095  0.2726 -0.4226  0.4567
   11SAPS  H16R 1400   3.737   3.168   4.140 -0.1723 -0.5176 -0.4010
   11SAPS  H16S 1401   3.908   3.217   4.096  0.3721 -0.5166  1.3283
   11SAPS  C217 1402   3.892   3.022   4.176 -0.0430 -0.1605  0.5367
   11SAPS  H17R 1403   3.988   3.006   4.123 -0.5414  0.2012 -0.4923
   11SAPS  H17S 1404   3.841   2.923   4.173  0.5095 -0.4356  0.0974
   11SAPS  C218 1405   3.900   3.041   4.332  0.3345 -0.0944 -0.0109
   11SAPS  H18R 1406   3.942   3.143   4.350 -0.7150  0.3636 -0.0676
   11SAPS  H18S 1407   3.970   2.964   4.370 -0.3609 -0.0409  1.4858
   11SAPS  C219 1408   3.755   3.045   4.395 -0.4030 -0.0875 -0.2150
   11SAPS  H19R 1409   3.703   2.947   4.384 -0.6947 -0.0174  0.5110
   11SAPS  H19S 1410   3.697   3.121   4.339  0.2015  1.2338  0.8976
   11SAPS  C220 1411   3.756   3.070   4.547 -0.3778 -0.0578  0.6548
   11SAPS  H20R 1412   3.651   3.057   4.584 -0.3168  0.2181  0.9295
   11SAPS  H20S 1413   3.793   3.173   4.568 -2.2315  0.7991 -0.0152
   11SAPS  H20T 1414   3.820   3.003   4.608 -0.7060 -0.8343  0.1671
   11SAPS   C33 1415   3.707   3.811   3.080 -0.0055  0.5183 -0.0237
   11SAPS   H3X 1416   3.664   3.754   2.995 -1.1279 -0.2143  1.0135
   11SAPS   H3Y 1417   3.692   3.920   3.064 -2.0968  0.2211 -0.2717
   11SAPS   C34 1418   3.650   3.777   3.219 -0.4025 -0.7032  0.1741
   11SAPS   H4X 1419   3.648   3.669   3.244 -2.6725 -0.5340  0.9450
   11SAPS   H4Y 1420   3.545   3.812   3.229 -0.3162 -0.9238  2.1614
   11SAPS   C35 1421   3.722   3.856   3.332 -0.0978 -0.5547 -0.1009
   11SAPS   H5X 1422   3.730   3.964   3.303 -1.1005  0.3492  2.6998
   11SAPS   H5Y 1423   3.827   3.825   3.349 -0.2978 -1.1278  0.0845
   11SAPS   C36 1424   3.657   3.833   3.475 -0.3879 -0.3868  0.8360
   11SAPS   H6X 1425   3.549   3.812   3.457 -0.1305 -0.2054 -1.1292
   11SAPS   H6Y 1426   3.652   3.925   3.538  0.4281  0.2639 -0.0093
   11SAPS   C37 1427   3.728   3.716   3.545  0.2452 -0.1444  0.7416
   11SAPS   H7X 1428   3.828   3.745   3.582 -0.0454 -0.8830  2.1569
   11SAPS   H7Y 1429   3.727   3.632   3.472  1.7162 -0.8456  1.5122
   11SAPS   C38 1430   3.661   3.665   3.674 -0.1382  0.5659  1.3063
   11SAPS   H8X 1431   3.553   3.639   3.663 -0.8104  2.1558  3.3355
   11SAPS   H8Y 1432   3.652   3.753   3.742  2.3675  1.9419  0.0158
   11SAPS   C39 1433   3.743   3.555   3.742 -0.2838  0.5471 -0.3836
   11SAPS   H9X 1434   3.849   3.581   3.761 -1.3502  2.7315  3.9134
   11SAPS   H9Y 1435   3.740   3.462   3.682  1.2660  0.8984 -1.0555
   11SAPS  C310 1436   3.687   3.514   3.880  0.0788  0.1091 -0.4123
   11SAPS  H10X 1437   3.736   3.419   3.908 -1.6859 -0.7518 -0.1742
   11SAPS  H10Y 1438   3.579   3.492   3.876  0.0078  0.2098  0.7328
   11SAPS  C311 1439   3.712   3.623   3.996 -0.2048  0.4959 -0.4401
   11SAPS  H11X 1440   3.693   3.726   3.959  1.6450  1.8839  2.1110
   11SAPS  H11Y 1441   3.821   3.621   4.016 -0.2670  0.7898 -0.0429
   11SAPS  C312 1442   3.629   3.582   4.128 -0.2972 -0.4401 -0.1455
   11SAPS  H12X 1443   3.523   3.606   4.108 -0.4061 -0.6691  0.1563
   11SAPS  H12Y 1444   3.657   3.644   4.216 -0.1725  0.6871 -0.9549
   11SAPS  C313 1445   3.644   3.442   4.172 -0.8166  0.0959 -0.2023
   11SAPS  H13X 1446   3.751   3.413   4.170 -0.5074  0.6088  3.1619
   11SAPS  H13Y 1447   3.588   3.382   4.097 -2.8121  1.0786  0.4286
   11SAPS  C314 1448   3.582   3.405   4.305 -0.7373  0.4302 -0.5069
   11SAPS  H14X 1449   3.549   3.300   4.298  0.0046  0.1093  0.5002
   11SAPS  H14Y 1450   3.488   3.463   4.318 -1.8586 -1.5965  1.0004
   11SAPS  C315 1451   3.675   3.423   4.427  0.6412 -0.4222 -0.0801
   11SAPS  H15X 1452   3.708   3.527   4.407  0.4049 -0.5235 -1.0002
   11SAPS  H15Y 1453   3.762   3.355   4.421 -0.1394 -1.3370 -1.7270
   11SAPS  C316 1454   3.602   3.429   4.558  0.2568 -0.0679 -0.4229
   11SAPS  H16X 1455   3.575   3.325   4.589 -1.0261  0.3172 -0.1926
   11SAPS  H16Y 1456   3.511   3.493   4.548  1.2477  1.4489 -0.0081
   11SAPS  C317 1457   3.694   3.486   4.669  0.1166  0.6363  0.1574
   11SAPS  H17X 1458   3.735   3.585   4.638 -0.1482  1.8331  3.2528
   11SAPS  H17Y 1459   3.778   3.415   4.683 -1.8912 -1.7138  1.0794
   11SAPS  C318 1460   3.632   3.499   4.808  0.7784 -0.3858  0.5386
   11SAPS  H18X 1461   3.709   3.524   4.884 -0.2749  1.1951  1.1339
   11SAPS  H18Y 1462   3.583   3.401   4.827 -1.0272  0.5074  0.6970
   11SAPS  H18Z 1463   3.553   3.575   4.791  0.5633 -0.7761 -0.2046
   12SAPS     N 1464   0.420   1.730   2.405  0.4916 -0.9159 -0.5257
   12SAPS   HN1 1465   0.520   1.716   2.429  0.4733 -0.7409 -0.3475
   12SAPS   HN2 1466   0.362   1.667   2.464 -0.6720  1.0905  0.5884
   12SAPS   HN3 1467   0.404   1.725   2.302 -0.3553 -0.8346 -0.4101
   12SAPS   C12 1468   0.384   1.871   2.449  0.1261  0.0900  0.1240
   12SAPS  H12A 1469   0.462   1.894   2.521 -0.6439  1.4370  0.5680
   12SAPS   C13 1470   0.393   1.981   2.343  0.2676  0.5484  0.8614
   12SAPS  O13A 1471   0.414   1.947   2.223 -0.2575  0.1347 -0.5726
   12SAPS  O13B 1472   0.356   2.096   2.366  0.5136  0.1492  0.3372
   12SAPS   C11 1473   0.243   1.875   2.513  0.0674  0.6128 -0.0512
   12SAPS  H11A 1474   0.174   1.805   2.461  0.1313 -2.4536  3.5271
   12SAPS  H11B 1475   0.199   1.976   2.499  2.6258  1.4613 -2.9913
   12SAPS     P 1476   0.220   1.688   2.696  0.1273 -0.0989 -0.3624
   12SAPS   O13 1477   0.284   1.597   2.599 -0.0979 -0.1149 -0.0973
   12SAPS   O14 1478   0.259   1.664   2.835 -0.0341  0.4599 -0.0431
   12SAPS   O12 1479   0.260   1.827   2.649  0.7456  0.2838 -0.2643
   12SAPS   O11 1480   0.064   1.679   2.669  0.3075 -0.0727  0.9869
   12SAPS    C1 1481  -0.032   1.787   2.691  0.5570 -0.0969  0.0199
   12SAPS    HA 1482   0.014   1.887   2.675 -1.1707  0.4699 -1.7886
   12SAPS    HB 1483  -0.115   1.782   2.617  1.0104 -1.9383 -0.4152
   12SAPS    C2 1484  -0.093   1.789   2.839 -0.6239 -0.2795  0.3751
   12SAPS    HS 1485  -0.154   1.881   2.848 -3.1623 -1.7189 -0.7916
   12SAPS   O21 1486   0.006   1.794   2.945 -0.1122 -0.7468 -0.0294
   12SAPS   C21 1487   0.075   1.910   2.954  0.0170 -0.4513  0.0556
   12SAPS   O22 1488   0.066   2.013   2.892  0.5437  0.7401  0.2185
   12SAPS   C22 1489   0.153   1.881   3.083 -0.2341 -0.2877  0.6264
   12SAPS   H2R 1490   0.088   1.844   3.165  0.1304 -1.0621  0.5716
   12SAPS   H2S 1491   0.228   1.801   3.066  1.3030  0.7977  1.9747
   12SAPS    C3 1492  -0.186   1.665   2.857 -0.1417 -0.0660  0.7979
   12SAPS    HX 1493  -0.125   1.572   2.851  2.4069  1.5769 -2.5464
   12SAPS    HY 1494  -0.249   1.650   2.767  0.1598  0.4793  0.4904
   12SAPS   O31 1495  -0.270   1.677   2.965 -0.8950  0.5054 -0.0186
   12SAPS   C31 1496  -0.376   1.597   2.979 -0.2072  0.0514  0.1432
   12SAPS   O32 1497  -0.405   1.505   2.906  0.3396  0.2920  0.2503
   12SAPS   C32 1498  -0.460   1.637   3.096  0.4329 -0.0001 -0.7718
   12SAPS   H2X 1499  -0.567   1.616   3.074  0.4633  1.9236 -3.1364
   12SAPS   H2Y 1500  -0.445   1.744   3.121  0.8236  0.0647 -1.2640
   12SAPS   C23 1501   0.231   2.005   3.132  0.0894 -0.0263 -0.3719
   12SAPS   H3R 1502   0.294   2.053   3.055 -1.8197  0.9630 -1.3968
   12SAPS   H3S 1503   0.287   1.970   3.222  0.1425  0.5748 -0.1682
   12SAPS   C24 1504   0.137   2.110   3.183 -0.0329  0.1356  0.5980
   12SAPS   H4R 1505   0.064   2.061   3.251  0.0217 -1.6610 -0.5691
   12SAPS   H4S 1506   0.089   2.154   3.093 -0.0675  0.6085  0.8428
   12SAPS   C25 1507   0.226   2.218   3.248  0.0136  0.4739 -0.0229
   12SAPS   H5R 1508   0.252   2.303   3.184  2.1807 -0.2355 -0.1466
   12SAPS   C26 1509   0.237   2.230   3.381  0.0591 -0.1867 -0.9494
   12SAPS   H6R 1510   0.302   2.310   3.421 -0.4057 -0.3075  0.0800
   12SAPS   C27 1511   0.188   2.141   3.492  0.1759  0.5477 -1.0862
   12SAPS   H7R 1512   0.278   2.098   3.543 -0.9860  1.4664  1.9131
   12SAPS   H7S 1513   0.135   2.053   3.448  0.0230 -0.0037  0.1531
   12SAPS   C28 1514   0.093   2.203   3.591 -0.6367  0.2618 -0.7121
   12SAPS   H8R 1515   0.018   2.273   3.552 -0.3465  0.8116 -0.3086
   12SAPS   C29 1516   0.085   2.171   3.721  0.2551 -0.2861  0.7163
   12SAPS   H9R 1517   0.018   2.220   3.792  1.7618 -0.2416  2.1630
   12SAPS  C210 1518   0.159   2.060   3.782 -0.5654 -0.5400  0.1502
   12SAPS  H10R 1519   0.236   2.099   3.852 -1.6962  1.1145  0.5479
   12SAPS  H10S 1520   0.225   2.003   3.713  0.9771  2.3866 -0.9700
   12SAPS  C211 1521   0.062   1.976   3.855 -0.1753 -0.4730  0.1511
   12SAPS  H11R 1522  -0.013   1.929   3.789 -0.7057  1.3711 -0.6239
   12SAPS  C212 1523   0.054   1.948   3.987 -0.6519  0.2740 -0.6107
   12SAPS  H12R 1524  -0.019   1.872   4.017 -0.4480  0.2319 -0.2164
   12SAPS  C213 1525   0.136   2.011   4.094  0.4072 -0.3696 -0.1718
   12SAPS  H13R 1526   0.064   2.050   4.169 -0.0300 -3.4445  1.1322
   12SAPS  H13S 1527   0.201   2.098   4.069  0.2213 -0.9981 -3.2907
   12SAPS  C214 1528   0.220   1.895   4.159 -0.1945 -0.5792  0.5690
   12SAPS  H14R 1529   0.282   1.841   4.087 -1.0772  1.6128 -1.9894
   12SAPS  C215 1530   0.230   1.865   4.293  0.3413 -0.1696  0.3672
   12SAPS  H15R 1531   0.296   1.786   4.332 -0.6298 -0.2754  1.8544
   12SAPS  C216 1532   0.159   1.946   4.403 -0.4856  0.4196 -0.4558
   12SAPS  H16R 1533   0.110   2.035   4.358 -0.3222  0.2786 -0.9102
   12SAPS  H16S 1534   0.224   1.984   4.485 -1.0943  0.5856 -0.0439
   12SAPS  C217 1535   0.053   1.850   4.457 -0.3221  0.0702  0.0680
   12SAPS  H17R 1536   0.105   1.756   4.485 -0.7602 -1.0985 -2.6739
   12SAPS  H17S 1537  -0.005   1.811   4.370  0.2110 -2.1703  0.6489
   12SAPS  C218 1538  -0.034   1.912   4.567 -0.6344  0.3001  0.5655
   12SAPS  H18R 1539  -0.113   1.967   4.512  0.4518  0.7349 -0.6148
   12SAPS  H18S 1540   0.029   1.980   4.628  1.0140  0.3262 -1.0903
   12SAPS  C219 1541  -0.095   1.803   4.660  0.2673 -0.0515  0.1408
   12SAPS  H19R 1542  -0.023   1.743   4.720  1.7225  1.1816 -0.3284
   12SAPS  H19S 1543  -0.156   1.747   4.586  0.1658  1.0091 -0.5967
   12SAPS  C220 1544  -0.184   1.866   4.765  0.5451  0.0532 -0.0151
   12SAPS  H20R 1545  -0.272   1.915   4.718 -0.8528 -0.8029  1.5657
   12SAPS  H20S 1546  -0.130   1.942   4.826  0.7026 -0.6031  0.6926
   12SAPS  H20T 1547  -0.223   1.792   4.839 -2.6367  0.8166 -0.7669
   12SAPS   C33 1548  -0.418   1.552   3.216 -0.8525 -0.5131  0.2068
   12SAPS   H3X 1549  -0.308   1.536   3.224 -0.6705 -0.2789 -1.5699
   12SAPS   H3Y 1550  -0.457   1.448   3.211 -2.6425  0.1787 -1.6360
   12SAPS   C34 1551  -0.486   1.607   3.341  0.0312  0.2567  0.2685
   12SAPS   H4X 1552  -0.594   1.612   3.318  0.1273  1.5059  0.0009
   12SAPS   H4Y 1553  -0.444   1.710   3.353 -0.1825  0.0364  3.9476
   12SAPS   C35 1554  -0.447   1.529   3.464  0.5245 -0.0729 -0.9010
   12SAPS   H5X 1555  -0.492   1.581   3.551 -0.4817 -3.6026  0.8275
   12SAPS   H5Y 1556  -0.340   1.530   3.496 -0.0890  0.1227  1.2916
   12SAPS   C36 1557  -0.494   1.380   3.466 -0.1379  0.1126 -0.1516
   12SAPS   H6X 1558  -0.420   1.319   3.410  0.0152 -2.3052  2.4283
   12SAPS   H6Y 1559  -0.594   1.376   3.417 -0.6315  1.1645  0.7122
   12SAPS   C37 1560  -0.503   1.315   3.609  0.1275 -0.0727  0.2005
   12SAPS   H7X 1561  -0.595   1.341   3.665 -0.5267  0.5748 -1.1168
   12SAPS   H7Y 1562  -0.420   1.352   3.672  2.1087 -0.9522 -1.7429
   12SAPS   C38 1563  -0.490   1.158   3.596  0.1129 -0.0030 -0.2983
   12SAPS   H8X 1564  -0.522   1.126   3.495 -1.3455 -0.7195  0.3522
   12SAPS   H8Y 1565  -0.547   1.104   3.675  1.4025 -3.0576 -1.3127
   12SAPS   C39 1566  -0.345   1.109   3.610  0.2172 -0.1323 -0.5455
   12SAPS   H9X 1567  -0.291   1.155   3.524 -1.1998  0.5013 -1.1177
   12SAPS   H9Y 1568  -0.339   0.998   3.603  0.6692 -0.1508  0.0071
   12SAPS  C310 1569  -0.286   1.153   3.746 -0.0704  0.3986 -0.1031
   12SAPS  H10X 1570  -0.238   1.253   3.736 -0.0326  0.4137  0.2064
   12SAPS  H10Y 1571  -0.196   1.090   3.764  0.4114  1.1052  0.0238
   12SAPS  C311 1572  -0.376   1.134   3.867  0.2319 -0.2382 -0.0340
   12SAPS  H11X 1573  -0.437   1.043   3.855  0.2154 -0.2234 -0.0621
   12SAPS  H11Y 1574  -0.443   1.223   3.872  0.8954  0.2110  1.2431
   12SAPS  C312 1575  -0.303   1.119   3.994 -1.1117 -0.2979 -0.0886
   12SAPS  H12X 1576  -0.229   1.202   3.999  2.0864 -2.8058 -1.8263
   12SAPS  H12Y 1577  -0.244   1.026   3.976  0.2528  0.7866 -1.5801
   12SAPS  C313 1578  -0.382   1.108   4.125  0.7576  0.2041 -0.0389
   12SAPS  H13X 1579  -0.469   1.042   4.108  1.1509 -0.1943 -0.5418
   12SAPS  H13Y 1580  -0.430   1.206   4.146  0.8263  0.7369 -2.1174
   12SAPS  C314 1581  -0.295   1.075   4.242 -0.1927  0.0633  0.4115
   12SAPS  H14X 1582  -0.209   1.145   4.249  3.0729 -3.5699 -0.0390
   12SAPS  H14Y 1583  -0.253   0.973   4.234  0.6739  0.4825 -0.6505
   12SAPS  C315 1584  -0.374   1.058   4.375 -0.4429 -0.3287 -0.2754
   12SAPS  H15X 1585  -0.374   1.159   4.421  1.9704  0.7069 -2.3156
   12SAPS  H15Y 1586  -0.309   0.995   4.440 -0.0685 -0.3122 -0.6298
   12SAPS  C316 1587  -0.519   0.999   4.371  0.0592  1.0308  0.4973
   12SAPS  H16X 1588  -0.520   0.916   4.297 -0.7033 -0.6115  2.2598
   12SAPS  H16Y 1589  -0.579   1.082   4.327 -0.7109 -0.2255 -0.9138
   12SAPS  C317 1590  -0.575   0.969   4.509  0.4342 -0.4850 -0.1805
   12SAPS  H17X 1591  -0.685   0.967   4.500  0.5055 -0.6235 -1.0603
   12SAPS  H17Y 1592  -0.546   1.054   4.574  1.3100 -0.9159  0.0140
   12SAPS  C318 1593  -0.527   0.830   4.557  0.9550 -0.3719  0.1625
   12SAPS  H18X 1594  -0.596   0.756   4.511  1.2961 -0.3489 -0.3947
   12SAPS  H18Y 1595  -0.549   0.821   4.666 -1.8411  0.7668 -0.2128
   12SAPS  H18Z 1596  -0.422   0.799   4.539 -0.0420 -3.1018 -1.6189
   13SAPS     N 1597   6.375   2.678   2.207  0.0785 -0.2482  0.0927
   13SAPS   HN1 1598   6.383   2.597   2.142  0.5155 -0.4192  0.3541
   13SAPS   HN2 1599   6.300   2.651   2.273 -1.0071 -0.9582 -1.3793
   13SAPS   HN3 1600   6.348   2.763   2.153 -1.2448  0.3560  1.6329
   13SAPS   C12 1601   6.515   2.705   2.265  0.8209 -0.4923 -0.3871
   13SAPS  H12A 1602   6.589   2.719   2.187  1.1232 -0.0624 -0.0262
   13SAPS   C13 1603   6.536   2.834   2.346 -0.1244  0.2865 -0.2339
   13SAPS  O13A 1604   6.448   2.920   2.345  0.2414 -0.7159  0.2824
   13SAPS  O13B 1605   6.655   2.865   2.365 -0.4427 -0.3636  0.5587
   13SAPS   C11 1606   6.530   2.583   2.349  0.0401 -0.1000  0.2637
   13SAPS  H11A 1607   6.448   2.578   2.424 -1.6406 -2.5819 -1.5936
   13SAPS  H11B 1608   6.624   2.581   2.408  1.3398 -2.9106 -1.6615
   13SAPS     P 1609   6.589   2.326   2.306 -0.2275 -0.2934 -0.0674
   13SAPS   O13 1610   6.485   2.223   2.319 -0.0625 -0.1187 -0.2624
   13SAPS   O14 1611   6.693   2.284   2.207  0.0156  0.0280  0.1090
   13SAPS   O12 1612   6.521   2.465   2.269  0.0223 -0.0956 -0.0783
   13SAPS   O11 1613   6.660   2.368   2.431 -0.2618  0.1685 -0.0336
   13SAPS    C1 1614   6.714   2.275   2.527 -0.8300 -0.0987 -0.2120
   13SAPS    HA 1615   6.687   2.170   2.499 -2.4064  0.6638 -1.8125
   13SAPS    HB 1616   6.824   2.277   2.512 -1.0275  0.7359 -1.7702
   13SAPS    C2 1617   6.674   2.302   2.670  0.0706 -0.3109 -0.2810
   13SAPS    HS 1618   6.716   2.220   2.733 -0.0772 -0.4361 -0.3465
   13SAPS   O21 1619   6.527   2.296   2.674  0.0762  0.2391 -0.4270
   13SAPS   C21 1620   6.466   2.190   2.641  0.2882  0.1176 -0.6144
   13SAPS   O22 1621   6.512   2.076   2.631 -0.0649 -0.0780 -0.1335
   13SAPS   C22 1622   6.319   2.227   2.610 -0.3345 -0.3575 -0.0050
   13SAPS   H2R 1623   6.292   2.292   2.696  2.7896  0.0433  0.7902
   13SAPS   H2S 1624   6.317   2.281   2.513  1.2795  1.6452  1.0037
   13SAPS    C3 1625   6.712   2.446   2.706 -0.3047 -0.7553 -0.3061
   13SAPS    HX 1626   6.664   2.508   2.627  0.7617  0.4016 -0.0832
   13SAPS    HY 1627   6.820   2.470   2.721 -0.6718  0.5208  0.4487
   13SAPS   O31 1628   6.642   2.483   2.825  0.1358  0.2053 -0.1676
   13SAPS   C31 1629   6.701   2.453   2.940  0.1164 -0.4626  0.2679
   13SAPS   O32 1630   6.810   2.390   2.942 -0.0196 -0.5412 -0.1021
   13SAPS   C32 1631   6.624   2.507   3.063  0.1961 -0.3293 -0.0271
   13SAPS   H2X 1632   6.516   2.493   3.044  0.3578 -1.3047 -0.2750
   13SAPS   H2Y 1633   6.648   2.616   3.066 -0.8751 -0.0768 -0.1391
   13SAPS   C23 1634   6.225   2.101   2.618  0.0912  0.0211  0.4057
   13SAPS   H3R 1635   6.266   2.029   2.544  0.8941  0.6784  0.1994
   13SAPS   H3S 1636   6.131   2.144   2.577  1.1452 -0.0501 -2.2272
   13SAPS   C24 1637   6.209   2.032   2.757  0.1361 -0.5672 -0.3747
   13SAPS   H4R 1638   6.307   2.016   2.807  0.8102  2.3869 -0.6020
   13SAPS   H4S 1639   6.156   1.939   2.726  1.5712 -1.1316 -1.2416
   13SAPS   C25 1640   6.122   2.127   2.836  0.0882 -0.2383  0.6105
   13SAPS   H5R 1641   6.036   2.157   2.773 -0.2355 -2.2742  0.0044
   13SAPS   C26 1642   6.141   2.186   2.957  0.1182  0.3283  0.3315
   13SAPS   H6R 1643   6.065   2.253   3.000 -1.6335 -1.8722  0.8916
   13SAPS   C27 1644   6.257   2.157   3.043 -0.5176  0.2204  0.2675
   13SAPS   H7R 1645   6.292   2.260   3.066  1.2980 -0.5534  1.2283
   13SAPS   H7S 1646   6.349   2.117   2.995 -0.2906  2.6536 -1.4835
   13SAPS   C28 1647   6.217   2.092   3.172  0.1806 -0.0587 -0.3602
   13SAPS   H8R 1648   6.111   2.070   3.193  0.6816 -1.3434  1.0323
   13SAPS   C29 1649   6.306   2.054   3.272  0.2463 -0.7194  0.8037
   13SAPS   H9R 1650   6.275   2.001   3.363  3.2364 -1.4842  1.5015
   13SAPS  C210 1651   6.456   2.062   3.250  0.1546 -0.8430 -0.3722
   13SAPS  H10R 1652   6.494   2.124   3.334 -0.5629 -0.1095 -0.5750
   13SAPS  H10S 1653   6.482   2.115   3.156  2.0210 -1.2688 -0.1348
   13SAPS  C211 1654   6.528   1.926   3.256  0.5792  0.2380  0.0523
   13SAPS  H11R 1655   6.531   1.868   3.163  2.6039  1.6093 -0.7992
   13SAPS  C212 1656   6.579   1.860   3.360 -0.0579  0.0320  0.1625
   13SAPS  H12R 1657   6.619   1.759   3.337 -1.3743 -1.1842  2.8264
   13SAPS  C213 1658   6.589   1.893   3.507 -0.4279 -0.4020  0.0674
   13SAPS  H13R 1659   6.562   1.998   3.532  2.9496  0.3888  0.8979
   13SAPS  H13S 1660   6.694   1.894   3.546 -1.0322  0.4159  1.8011
   13SAPS  C214 1661   6.515   1.796   3.592  0.2178  0.6655  0.4628
   13SAPS  H14R 1662   6.554   1.696   3.569 -0.6211  0.1114  1.3700
   13SAPS  C215 1663   6.436   1.807   3.701 -0.4669  0.3546 -0.2968
   13SAPS  H15R 1664   6.379   1.721   3.738 -0.4129  0.7303  0.6721
   13SAPS  C216 1665   6.404   1.927   3.782  0.2400  0.1682 -0.3982
   13SAPS  H16R 1666   6.491   1.995   3.796  0.4895 -0.1937 -0.1369
   13SAPS  H16S 1667   6.359   1.897   3.880 -1.8778 -1.1318 -1.6945
   13SAPS  C217 1668   6.309   2.020   3.697  0.0407  0.4081  0.0831
   13SAPS  H17R 1669   6.354   2.043   3.598  1.0986  2.8865  1.0633
   13SAPS  H17S 1670   6.306   2.126   3.731  4.0348  0.8464 -0.4345
   13SAPS  C218 1671   6.162   1.977   3.700 -0.2050  0.1163 -0.6363
   13SAPS  H18R 1672   6.127   2.016   3.798 -1.0685 -0.2467 -0.7921
   13SAPS  H18S 1673   6.148   1.867   3.701 -0.6608  0.1617  0.9613
   13SAPS  C219 1674   6.083   2.049   3.586  0.3818 -0.2610 -0.0790
   13SAPS  H19R 1675   5.977   2.029   3.609  0.5578 -0.6682  0.4141
   13SAPS  H19S 1676   6.112   1.991   3.496 -1.6998 -1.7096  0.1314
   13SAPS  C220 1677   6.114   2.199   3.569  0.8107 -0.3056 -0.0979
   13SAPS  H20R 1678   6.038   2.239   3.498  0.3883  1.7081  1.3723
   13SAPS  H20S 1679   6.217   2.211   3.530  0.4769  0.3939 -0.8043
   13SAPS  H20T 1680   6.105   2.263   3.660  0.3655  0.9164 -0.9645
   13SAPS   C33 1681   6.662   2.452   3.205 -0.5401 -0.2844  0.9101
   13SAPS   H3X 1682   6.771   2.468   3.216 -0.7191  1.1481  0.7010
   13SAPS   H3Y 1683   6.630   2.345   3.198 -0.6400 -0.2322  0.4933
   13SAPS   C34 1684   6.591   2.521   3.332 -0.0238  0.3267 -0.2073
   13SAPS   H4X 1685   6.592   2.632   3.342  0.3524  0.4138 -1.0448
   13SAPS   H4Y 1686   6.649   2.497   3.423 -2.8326  0.2527  1.6595
   13SAPS   C35 1687   6.446   2.468   3.357 -0.1903  0.0236  0.1404
   13SAPS   H5X 1688   6.441   2.359   3.340  1.0923 -0.3254  1.7038
   13SAPS   H5Y 1689   6.376   2.510   3.282 -0.6634 -1.1401 -0.0908
   13SAPS   C36 1690   6.388   2.492   3.503  0.2399  0.4842  0.0692
   13SAPS   H6X 1691   6.295   2.433   3.511  0.3817  0.1743 -0.4516
   13SAPS   H6Y 1692   6.364   2.599   3.516 -2.6412  0.0009 -0.6310
   13SAPS   C37 1693   6.479   2.436   3.618 -0.1259  0.2559  0.3406
   13SAPS   H7X 1694   6.573   2.495   3.605 -1.4329  2.2000 -0.9839
   13SAPS   H7Y 1695   6.513   2.333   3.595 -2.6997 -0.8840  1.3731
   13SAPS   C38 1696   6.420   2.429   3.761 -0.1617  0.0297  0.2681
   13SAPS   H8X 1697   6.319   2.383   3.756 -1.3945  2.5963 -0.1450
   13SAPS   H8Y 1698   6.410   2.532   3.800  1.4363  0.3577 -0.1083
   13SAPS   C39 1699   6.515   2.351   3.859  0.4986  0.5703 -0.8774
   13SAPS   H9X 1700   6.613   2.403   3.854  0.0077  1.7536  0.8914
   13SAPS   H9Y 1701   6.534   2.250   3.817 -1.7618  0.7634 -2.5607
   13SAPS  C310 1702   6.458   2.322   3.996 -0.4791 -0.1172 -0.4660
   13SAPS  H10X 1703   6.349   2.303   3.985 -0.3333 -1.7855  0.6051
   13SAPS  H10Y 1704   6.475   2.410   4.061 -2.1546  0.2623 -0.4913
   13SAPS  C311 1705   6.499   2.200   4.075 -0.8072 -0.4240  0.8338
   13SAPS  H11X 1706   6.598   2.216   4.125  0.2304 -1.1501 -0.8977
   13SAPS  H11Y 1707   6.514   2.110   4.012 -0.2657 -0.0921  0.4830
   13SAPS  C312 1708   6.399   2.165   4.177 -0.5612  1.3838 -0.6700
   13SAPS  H12X 1709   6.296   2.143   4.143 -0.4498 -0.4751  0.0786
   13SAPS  H12Y 1710   6.385   2.249   4.248  0.4628 -1.6010  3.3993
   13SAPS  C313 1711   6.448   2.038   4.254 -0.3489 -0.0378  0.1923
   13SAPS  H13X 1712   6.402   2.029   4.354 -3.1025 -0.7187 -1.0256
   13SAPS  H13Y 1713   6.557   2.041   4.272 -0.2800 -0.0883 -0.1914
   13SAPS  C314 1714   6.410   1.905   4.185 -0.3312  0.1632  0.2384
   13SAPS  H14X 1715   6.428   1.915   4.075 -1.3412  0.6099  0.1000
   13SAPS  H14Y 1716   6.301   1.909   4.205  0.1188  0.6644  2.9827
   13SAPS  C315 1717   6.481   1.779   4.235 -0.0890  0.3617  0.5283
   13SAPS  H15X 1718   6.471   1.787   4.345 -0.6319 -0.2224  0.5278
   13SAPS  H15Y 1719   6.586   1.791   4.202 -0.1657  1.8277  0.7543
   13SAPS  C316 1720   6.415   1.647   4.207 -0.9950  0.0634 -0.3986
   13SAPS  H16X 1721   6.307   1.641   4.233 -1.1146 -0.4889 -1.0120
   13SAPS  H16Y 1722   6.466   1.571   4.269 -0.4100 -0.1864 -1.1730
   13SAPS  C317 1723   6.424   1.607   4.060 -0.6251 -0.2653 -0.9165
   13SAPS  H17X 1724   6.532   1.596   4.036 -0.2778  0.4661  0.2543
   13SAPS  H17Y 1725   6.390   1.685   3.989 -1.2338 -0.5986 -0.9956
   13SAPS  C318 1726   6.364   1.469   4.042  0.1801  0.5051 -0.2638
   13SAPS  H18X 1727   6.344   1.443   3.936  1.0156 -0.2368 -0.2466
   13SAPS  H18Y 1728   6.273   1.451   4.104 -1.3251  0.7874 -2.2818
   13SAPS  H18Z 1729   6.441   1.402   4.085  0.7639  1.8070  0.8037
   14SAPS     N 1730   6.656   0.895   2.647  0.3010  0.5793  0.7050
   14SAPS   HN1 1731   6.751   0.934   2.634  0.6843 -0.7217 -0.7027
   14SAPS   HN2 1732   6.627   0.933   2.739  0.8642  0.5934  0.8803
   14SAPS   HN3 1733   6.656   0.791   2.661  0.6611  0.6258  1.0576
   14SAPS   C12 1734   6.566   0.940   2.538 -0.2633 -0.4900 -0.5111
   14SAPS  H12A 1735   6.616   0.947   2.443 -0.4939 -0.3632 -0.6245
   14SAPS   C13 1736   6.452   0.841   2.510 -0.0321 -0.7354 -0.1949
   14SAPS  O13A 1737   6.370   0.867   2.412  0.5677 -0.2093 -0.4890
   14SAPS  O13B 1738   6.445   0.734   2.571  0.3117  0.2169  1.0208
   14SAPS   C11 1739   6.489   1.063   2.581 -0.2221 -0.4755  0.0348
   14SAPS  H11A 1740   6.424   1.044   2.669  0.6964 -0.9608  0.6299
   14SAPS  H11B 1741   6.433   1.103   2.493  1.5281  1.1980 -0.3805
   14SAPS     P 1742   6.601   1.305   2.572  0.0834  0.2844  0.3458
   14SAPS   O13 1743   6.711   1.295   2.472  0.5088  0.8037 -0.3584
   14SAPS   O14 1744   6.474   1.359   2.522  0.0218  0.4655 -0.0733
   14SAPS   O12 1745   6.586   1.155   2.625 -0.5880  0.0441 -0.1498
   14SAPS   O11 1746   6.661   1.376   2.694  0.7182 -0.2552  0.4444
   14SAPS    C1 1747   6.788   1.333   2.744  0.4217 -0.0573 -0.3706
   14SAPS    HA 1748   6.866   1.301   2.672  1.4769 -1.3307  1.2756
   14SAPS    HB 1749   6.829   1.415   2.807 -0.3413  1.2372 -1.5005
   14SAPS    C2 1750   6.760   1.215   2.845 -0.5815  0.1409  1.4889
   14SAPS    HS 1751   6.760   1.121   2.785  0.6309  0.4054  1.0473
   14SAPS   O21 1752   6.633   1.224   2.915 -0.3809 -0.0127  0.1373
   14SAPS   C21 1753   6.566   1.118   2.942  0.3022 -0.3064 -1.1216
   14SAPS   O22 1754   6.585   1.007   2.896  0.0989  0.1228 -0.6503
   14SAPS   C22 1755   6.446   1.154   3.037 -0.0165  0.0816 -0.1082
   14SAPS   H2R 1756   6.483   1.211   3.124 -0.1039 -1.0671  0.7007
   14SAPS   H2S 1757   6.372   1.214   2.980 -0.6305 -1.0619 -0.5462
   14SAPS    C3 1758   6.881   1.202   2.947 -0.6606  0.3552 -0.6987
   14SAPS    HX 1759   6.976   1.181   2.893  0.9521  0.8908  1.7572
   14SAPS    HY 1760   6.851   1.117   3.013  0.2271 -0.1907 -0.9853
   14SAPS   O31 1761   6.900   1.326   3.020  0.2208 -0.8537  0.0780
   14SAPS   C31 1762   6.817   1.352   3.124 -0.4578 -0.0847  0.7727
   14SAPS   O32 1763   6.741   1.270   3.169 -0.0400  0.8303  0.5476
   14SAPS   C32 1764   6.803   1.496   3.146 -0.2837  0.3142 -0.2000
   14SAPS   H2X 1765   6.702   1.538   3.129  0.5659  2.4972 -0.2776
   14SAPS   H2Y 1766   6.871   1.557   3.081 -0.7555 -0.9207 -1.9126
   14SAPS   C23 1767   6.377   1.038   3.111  0.6605  0.3080 -0.2568
   14SAPS   H3R 1768   6.441   1.030   3.202 -1.5905  1.5646  1.5620
   14SAPS   H3S 1769   6.372   0.944   3.054 -1.3814  0.5872 -0.6087
   14SAPS   C24 1770   6.231   1.067   3.155  0.2118  0.6004  0.0726
   14SAPS   H4R 1771   6.225   1.165   3.207 -0.6872  0.2032  0.7595
   14SAPS   H4S 1772   6.214   0.993   3.236 -0.2138  0.5067 -0.0996
   14SAPS   C25 1773   6.133   1.057   3.042  0.3882  0.3560  0.7521
   14SAPS   H5R 1774   6.161   1.122   2.958 -1.2907  0.0374 -0.1025
   14SAPS   C26 1775   6.027   0.981   3.020  0.0070  0.0569  0.7262
   14SAPS   H6R 1776   5.966   0.996   2.929 -0.5159 -0.6178  0.9644
   14SAPS   C27 1777   5.950   0.893   3.113  0.6649  0.2343 -0.0367
   14SAPS   H7R 1778   5.848   0.864   3.081 -1.5997  2.6297  4.1894
   14SAPS   H7S 1779   5.934   0.958   3.201  0.1642 -1.6541  1.3099
   14SAPS   C28 1780   6.028   0.761   3.137  0.3424  0.1370  0.9249
   14SAPS   H8R 1781   6.070   0.714   3.047  0.4338 -0.0670  1.0726
   14SAPS   C29 1782   6.050   0.697   3.253 -0.2792 -0.0592  0.0322
   14SAPS   H9R 1783   6.104   0.601   3.256 -1.3630 -0.6807  0.1034
   14SAPS  C210 1784   6.020   0.747   3.395  0.2137 -0.0094  0.3450
   14SAPS  H10R 1785   5.951   0.673   3.441  1.0819 -0.2052  1.3630
   14SAPS  H10S 1786   5.954   0.836   3.391  1.3152  0.7973 -1.0312
   14SAPS  C211 1787   6.143   0.785   3.475  0.1870  0.9283  0.4596
   14SAPS  H11R 1788   6.235   0.812   3.420 -0.1036  0.6305 -0.1796
   14SAPS  C212 1789   6.164   0.760   3.609  0.2871 -0.3406 -0.9087
   14SAPS  H12R 1790   6.264   0.785   3.648 -0.1814  1.6041 -0.8953
   14SAPS  C213 1791   6.066   0.700   3.707 -0.9739 -0.1609  0.5610
   14SAPS  H13R 1792   5.970   0.675   3.657 -0.3201 -1.0405 -0.2713
   14SAPS  H13S 1793   6.060   0.776   3.788  0.4692 -0.7568  1.2559
   14SAPS  C214 1794   6.136   0.578   3.758  0.8913  0.7736 -0.3283
   14SAPS  H14R 1795   6.148   0.500   3.681 -3.2830 -2.4819  1.8765
   14SAPS  C215 1796   6.164   0.552   3.888 -0.0929 -0.5607 -0.5670
   14SAPS  H15R 1797   6.225   0.465   3.915  0.0278 -0.3847 -0.2587
   14SAPS  C216 1798   6.132   0.637   4.006 -0.1799 -0.2939 -0.5340
   14SAPS  H16R 1799   6.182   0.736   4.005 -0.3899 -0.1885 -0.4606
   14SAPS  H16S 1800   6.194   0.591   4.087 -1.7537 -0.9098  0.3609
   14SAPS  C217 1801   5.982   0.657   4.039 -0.3105  0.2552 -0.4773
   14SAPS  H17R 1802   5.925   0.563   4.052  1.1733 -0.5611  0.4600
   14SAPS  H17S 1803   5.948   0.713   3.949  0.4747 -2.9294 -2.9363
   14SAPS  C218 1804   5.979   0.728   4.180 -0.1534  0.1960  0.7511
   14SAPS  H18R 1805   6.030   0.823   4.155  0.9901 -0.2642  1.2768
   14SAPS  H18S 1806   6.041   0.667   4.250  1.5191 -0.4423 -1.2144
   14SAPS  C219 1807   5.842   0.748   4.246 -0.4746 -0.3419 -0.0734
   14SAPS  H19R 1808   5.794   0.648   4.261  2.0085 -1.9877 -2.1786
   14SAPS  H19S 1809   5.786   0.805   4.169  1.1378  2.3657  0.6303
   14SAPS  C220 1810   5.838   0.825   4.375  0.1152 -0.0406  0.4121
   14SAPS  H20R 1811   5.912   0.789   4.450  1.9522 -1.1974 -1.8126
   14SAPS  H20S 1812   5.735   0.817   4.416  0.9232  0.9359  2.8187
   14SAPS  H20T 1813   5.855   0.934   4.367 -0.8268  0.1080  0.2859
   14SAPS   C33 1814   6.850   1.528   3.293  0.8362  0.7313 -0.2251
   14SAPS   H3X 1815   6.862   1.638   3.304  4.2284  0.5019 -0.6333
   14SAPS   H3Y 1816   6.952   1.490   3.314 -0.0012 -1.8724 -0.5372
   14SAPS   C34 1817   6.748   1.476   3.392  0.0723  0.1023  0.6833
   14SAPS   H4X 1818   6.738   1.366   3.377 -0.3633  0.1239  0.7937
   14SAPS   H4Y 1819   6.652   1.526   3.368  0.7283  1.6725  1.1944
   14SAPS   C35 1820   6.776   1.497   3.542  0.0726 -0.3664 -0.4019
   14SAPS   H5X 1821   6.788   1.606   3.561 -2.6182 -0.2698  1.2445
   14SAPS   H5Y 1822   6.868   1.441   3.567  0.8885  1.3738  0.6742
   14SAPS   C36 1823   6.667   1.430   3.626 -0.2269  0.4468 -0.5973
   14SAPS   H6X 1824   6.676   1.320   3.624 -1.5468  0.2814  0.5171
   14SAPS   H6Y 1825   6.563   1.463   3.602 -0.8395 -0.5275  0.5814
   14SAPS   C37 1826   6.674   1.479   3.775 -0.5561 -0.2730 -0.2255
   14SAPS   H7X 1827   6.581   1.442   3.822 -2.0534  2.9270 -0.4372
   14SAPS   H7Y 1828   6.670   1.590   3.769 -0.8593 -0.2837 -0.1919
   14SAPS   C38 1829   6.793   1.435   3.851  0.1534  0.5647  0.2984
   14SAPS   H8X 1830   6.876   1.500   3.816 -2.1179  3.8965  0.7601
   14SAPS   H8Y 1831   6.828   1.330   3.835  0.2658  0.7475 -0.7474
   14SAPS   C39 1832   6.785   1.459   4.003  0.1763 -0.3643  0.0633
   14SAPS   H9X 1833   6.709   1.391   4.047  2.3511 -2.1075  1.3532
   14SAPS   H9Y 1834   6.741   1.560   4.009  0.3869 -0.2328 -0.5409
   14SAPS  C310 1835   6.918   1.435   4.079  0.6432  0.1893 -0.2387
   14SAPS  H10X 1836   6.998   1.499   4.035  1.1544 -1.1663 -1.3976
   14SAPS  H10Y 1837   6.958   1.335   4.048  0.4012  0.1480 -0.4175
   14SAPS  C311 1838   6.911   1.461   4.223 -0.8693 -0.1434  0.7073
   14SAPS  H11X 1839   6.878   1.566   4.238 -0.1639 -0.0052  1.3772
   14SAPS  H11Y 1840   7.011   1.453   4.273 -1.1812 -2.0017  1.1091
   14SAPS  C312 1841   6.814   1.374   4.296 -0.1377 -0.3199 -0.8773
   14SAPS  H12X 1842   6.832   1.266   4.278  2.5551 -0.1592  0.4153
   14SAPS  H12Y 1843   6.712   1.397   4.258  0.7776  1.6978 -2.2774
   14SAPS  C313 1844   6.808   1.402   4.447  0.8851 -0.8383  0.7482
   14SAPS  H13X 1845   6.790   1.509   4.470 -2.1782 -1.0791 -0.1746
   14SAPS  H13Y 1846   6.909   1.372   4.483  1.0665 -0.1757  0.7985
   14SAPS  C314 1847   6.712   1.322   4.528 -0.0375 -0.0976 -0.3478
   14SAPS  H14X 1848   6.747   1.312   4.633 -0.9321  2.5551  0.2997
   14SAPS  H14Y 1849   6.712   1.219   4.486  0.4516 -0.0419 -0.4928
   14SAPS  C315 1850   6.578   1.392   4.532  0.2086  0.0330 -0.6105
   14SAPS  H15X 1851   6.524   1.406   4.436 -0.1102  0.4918 -0.3685
   14SAPS  H15Y 1852   6.589   1.495   4.571 -2.8534  1.5914 -3.3267
   14SAPS  C316 1853   6.484   1.317   4.629 -0.0870  1.1288 -0.6742
   14SAPS  H16X 1854   6.520   1.318   4.734  0.4451 -3.1199 -0.6333
   14SAPS  H16Y 1855   6.500   1.209   4.609 -0.8743  0.7267  0.7152
   14SAPS  C317 1856   6.339   1.367   4.605  0.1763  1.1031  0.7712
   14SAPS  H17X 1857   6.269   1.304   4.665  0.2056  0.1329 -0.1857
   14SAPS  H17Y 1858   6.315   1.359   4.497 -1.1053 -2.2169  1.1612
   14SAPS  C318 1859   6.315   1.516   4.641  0.0423 -0.3571  0.1623
   14SAPS  H18X 1860   6.366   1.565   4.555 -2.3758  1.5532 -0.2707
   14SAPS  H18Y 1861   6.370   1.545   4.734  0.0917 -0.4445  0.1609
   14SAPS  H18Z 1862   6.208   1.544   4.640 -0.3617 -1.8137 -0.5753
   15SAPS     N 1863   6.325   3.071   2.564 -0.4585  0.2963  0.2401
   15SAPS   HN1 1864   6.387   3.050   2.645  0.2944  0.6963 -0.2193
   15SAPS   HN2 1865   6.355   2.999   2.495  0.5333  0.0309  0.9259
   15SAPS   HN3 1866   6.351   3.166   2.531 -0.4424  0.2201  0.0368
   15SAPS   C12 1867   6.181   3.057   2.602  0.2299 -0.1588 -0.5203
   15SAPS  H12A 1868   6.171   2.983   2.679 -2.3043 -0.6081 -1.1947
   15SAPS   C13 1869   6.120   3.193   2.659 -0.6309 -0.2383  0.6461
   15SAPS  O13A 1870   6.191   3.296   2.652  0.7135 -0.2337  0.4159
   15SAPS  O13B 1871   6.007   3.189   2.713  0.5570  0.3986  0.1520
   15SAPS   C11 1872   6.094   3.016   2.480 -0.0305 -0.8773  0.3408
   15SAPS  H11A 1873   6.103   3.107   2.417 -0.3266 -2.4571 -2.1026
   15SAPS  H11B 1874   5.991   3.005   2.520  0.8817 -1.0993  2.7693
   15SAPS     P 1875   6.110   2.764   2.474 -0.6181  0.0291 -0.2979
   15SAPS   O13 1876   5.970   2.765   2.522  0.1572 -0.7766  0.3800
   15SAPS   O14 1877   6.148   2.657   2.374 -0.2386 -0.3589 -0.2231
   15SAPS   O12 1878   6.146   2.902   2.405 -0.4322  0.0282  0.5211
   15SAPS   O11 1879   6.218   2.760   2.591 -0.0261  0.2125  0.1606
   15SAPS    C1 1880   6.246   2.644   2.668  0.0012 -0.3410  0.2463
   15SAPS    HA 1881   6.156   2.594   2.708 -1.9663  3.0118  0.3848
   15SAPS    HB 1882   6.320   2.578   2.617  1.3096  0.4485  1.0519
   15SAPS    C2 1883   6.317   2.695   2.794  0.0280 -0.6291 -0.8077
   15SAPS    HS 1884   6.327   2.608   2.863 -1.3851  0.0380  0.2853
   15SAPS   O21 1885   6.246   2.801   2.872 -0.9012 -0.2812 -1.2860
   15SAPS   C21 1886   6.145   2.761   2.940  0.0242 -1.2668  0.2645
   15SAPS   O22 1887   6.097   2.649   2.936  0.3640  0.0784  0.2424
   15SAPS   C22 1888   6.094   2.875   3.034 -0.2921 -0.6251 -0.0061
   15SAPS   H2R 1889   6.158   2.966   3.030 -1.5536  0.4320  2.0964
   15SAPS   H2S 1890   5.990   2.895   3.001 -0.4047 -1.9337 -0.5125
   15SAPS    C3 1891   6.463   2.747   2.766 -0.7144  0.3955 -0.5335
   15SAPS    HX 1892   6.458   2.822   2.684 -0.8680 -0.1896 -1.0700
   15SAPS    HY 1893   6.513   2.657   2.723  1.0817  0.9603  0.2540
   15SAPS   O31 1894   6.547   2.782   2.872  0.1134  0.0960 -0.0200
   15SAPS   C31 1895   6.557   2.913   2.900  0.1945  0.5261  0.1761
   15SAPS   O32 1896   6.500   3.000   2.833  0.4437  0.2651 -0.6605
   15SAPS   C32 1897   6.656   2.929   3.015 -0.2652 -0.2618  0.4964
   15SAPS   H2X 1898   6.753   2.960   2.969 -1.5349  0.8081 -1.5809
   15SAPS   H2Y 1899   6.668   2.833   3.071 -2.3115 -1.8166 -1.5298
   15SAPS   C23 1900   6.087   2.824   3.184  0.3672  0.0103  0.1827
   15SAPS   H3R 1901   6.191   2.808   3.219  0.7670  0.6247 -0.6769
   15SAPS   H3S 1902   6.039   2.724   3.182  1.0401 -0.3326 -2.2683
   15SAPS   C24 1903   6.006   2.914   3.278 -0.3179  0.3502  0.0510
   15SAPS   H4R 1904   5.996   2.851   3.368 -0.7951  0.5209  0.1235
   15SAPS   H4S 1905   5.906   2.915   3.229  0.0476 -1.8926 -0.8512
   15SAPS   C25 1906   6.072   3.044   3.301 -0.7719  0.0055  0.4661
   15SAPS   H5R 1907   6.073   3.110   3.214 -0.6447 -1.0498 -0.3511
   15SAPS   C26 1908   6.125   3.089   3.416 -0.9669 -0.1716  0.3416
   15SAPS   H6R 1909   6.163   3.192   3.406 -0.4951 -0.1395  1.9866
   15SAPS   C27 1910   6.138   3.026   3.549 -0.6931  0.1887 -0.4195
   15SAPS   H7R 1911   6.216   3.081   3.607 -0.7285 -0.2482  0.0482
   15SAPS   H7S 1912   6.180   2.925   3.529  1.8523  1.0095  0.2976
   15SAPS   C28 1913   6.004   3.008   3.620 -0.3035 -0.2794  0.2128
   15SAPS   H8R 1914   5.927   2.983   3.545  1.3585  0.0902 -1.7047
   15SAPS   C29 1915   5.979   3.029   3.751 -0.2964 -0.5530 -1.0411
   15SAPS   H9R 1916   5.879   2.999   3.787 -0.1097  0.4501  0.3872
   15SAPS  C210 1917   6.070   3.092   3.857 -0.7765  0.5162 -0.1969
   15SAPS  H10R 1918   6.013   3.183   3.886  0.5737  1.0134  1.0462
   15SAPS  H10S 1919   6.172   3.125   3.827  0.0516 -0.3596  1.5028
   15SAPS  C211 1920   6.096   2.979   3.958  0.2860  0.2633 -0.0611
   15SAPS  H11R 1921   6.165   2.899   3.926 -0.4537  0.1309 -1.4120
   15SAPS  C212 1922   6.061   2.983   4.088 -0.6604  0.0230 -0.5002
   15SAPS  H12R 1923   6.089   2.903   4.158  0.7891  1.8095  1.0714
   15SAPS  C213 1924   5.986   3.098   4.149  0.9704  0.1675  0.0829
   15SAPS  H13R 1925   6.005   3.191   4.091  1.0644 -0.0328 -0.2097
   15SAPS  H13S 1926   6.023   3.107   4.253  2.7528 -1.7655 -0.3096
   15SAPS  C214 1927   5.833   3.076   4.149  0.7196 -0.3694  0.0600
   15SAPS  H14R 1928   5.785   3.049   4.054  0.0544 -2.1220  0.8484
   15SAPS  C215 1929   5.750   3.101   4.255 -0.4689 -0.1204 -0.0392
   15SAPS  H15R 1930   5.645   3.069   4.243 -0.1858 -0.7383 -1.0007
   15SAPS  C216 1931   5.791   3.151   4.394 -1.2685  0.1172  0.1205
   15SAPS  H16R 1932   5.705   3.200   4.444 -1.8644 -0.3378 -0.4387
   15SAPS  H16S 1933   5.870   3.228   4.385  0.9196 -1.9532  0.5554
   15SAPS  C217 1934   5.849   3.033   4.477  0.6104 -0.5586 -0.1780
   15SAPS  H17R 1935   5.938   2.982   4.435  1.8768  1.6895 -0.4053
   15SAPS  H17S 1936   5.773   2.953   4.485  0.5404 -0.6448 -1.4322
   15SAPS  C218 1937   5.892   3.079   4.625  0.3359 -0.1662  0.5411
   15SAPS  H18R 1938   5.949   3.174   4.617 -0.4113  0.3076  0.7462
   15SAPS  H18S 1939   5.952   3.004   4.680  0.0883 -0.6927  0.1051
   15SAPS  C219 1940   5.767   3.101   4.709 -0.0871 -0.0277  0.4182
   15SAPS  H19R 1941   5.713   3.003   4.704  0.6404 -0.4915  1.3022
   15SAPS  H19S 1942   5.691   3.165   4.660 -0.9787  0.1955  2.0071
   15SAPS  C220 1943   5.792   3.142   4.850 -0.0095  0.7068 -0.8030
   15SAPS  H20R 1944   5.835   3.244   4.849  1.2470  0.2204  0.5389
   15SAPS  H20S 1945   5.876   3.082   4.892 -0.9345  0.1836  0.3772
   15SAPS  H20T 1946   5.698   3.132   4.909 -0.2823 -0.5486 -1.4107
   15SAPS   C33 1947   6.616   3.048   3.105 -0.3382 -0.1602 -0.3531
   15SAPS   H3X 1948   6.570   3.131   3.048 -3.3444  0.8991  3.1864
   15SAPS   H3Y 1949   6.702   3.095   3.157 -1.1212  0.1489  0.6993
   15SAPS   C34 1950   6.515   3.008   3.212 -0.8887 -0.0897 -0.3731
   15SAPS   H4X 1951   6.443   2.937   3.167  1.7951 -3.1721 -0.1928
   15SAPS   H4Y 1952   6.460   3.101   3.238  0.7175  0.9828 -0.5878
   15SAPS   C35 1953   6.574   2.956   3.338 -0.2953 -0.8639 -0.0381
   15SAPS   H5X 1954   6.647   3.032   3.373 -1.9210 -0.8180  3.7745
   15SAPS   H5Y 1955   6.631   2.862   3.318  0.1145 -0.5500 -0.3622
   15SAPS   C36 1956   6.475   2.935   3.459  0.6873 -0.3509  0.4774
   15SAPS   H6X 1957   6.386   2.870   3.442  1.2051 -1.4368  1.7786
   15SAPS   H6Y 1958   6.434   3.037   3.478  2.7610  0.1767  2.4941
   15SAPS   C37 1959   6.549   2.886   3.583  0.1846  1.4799 -0.2312
   15SAPS   H7X 1960   6.639   2.950   3.595 -0.0835  1.8860 -0.3639
   15SAPS   H7Y 1961   6.573   2.779   3.567 -0.6817  1.3645 -0.8606
   15SAPS   C38 1962   6.465   2.898   3.709 -0.0930  0.4033 -0.4182
   15SAPS   H8X 1963   6.364   2.865   3.676  0.3417  0.5916 -2.0146
   15SAPS   H8Y 1964   6.449   3.004   3.738 -0.4599  0.4316 -0.7124
   15SAPS   C39 1965   6.519   2.817   3.826  0.5753 -1.3931  0.0662
   15SAPS   H9X 1966   6.618   2.853   3.860  1.0671 -2.1030 -0.5970
   15SAPS   H9Y 1967   6.531   2.709   3.803  1.0433 -1.1624 -0.8197
   15SAPS  C310 1968   6.429   2.852   3.943 -0.1212 -0.2740 -0.0886
   15SAPS  H10X 1969   6.328   2.825   3.908 -0.7074  0.3739  1.0204
   15SAPS  H10Y 1970   6.434   2.962   3.963  3.1173  0.0125 -1.7572
   15SAPS  C311 1971   6.439   2.757   4.064 -0.3293 -0.5560  0.2813
   15SAPS  H11X 1972   6.547   2.755   4.091  0.4739 -0.1643 -2.5618
   15SAPS  H11Y 1973   6.413   2.653   4.035 -0.5795 -0.1335 -1.1031
   15SAPS  C312 1974   6.330   2.794   4.171 -0.7658  0.3283  0.3227
   15SAPS  H12X 1975   6.237   2.764   4.118  0.7926 -1.3528 -1.6518
   15SAPS  H12Y 1976   6.337   2.905   4.174 -0.1017  0.3019  0.0122
   15SAPS  C313 1977   6.337   2.746   4.314 -0.4812  1.3143  0.1998
   15SAPS  H13X 1978   6.433   2.773   4.361 -0.2679  1.4432 -0.2996
   15SAPS  H13Y 1979   6.329   2.635   4.316  2.5618  1.0253  2.1929
   15SAPS  C314 1980   6.229   2.813   4.394  0.0872  0.1791  0.2046
   15SAPS  H14X 1981   6.140   2.811   4.328  1.8826 -0.9849 -2.3495
   15SAPS  H14Y 1982   6.254   2.920   4.413 -0.6664  0.3105  0.4799
   15SAPS  C315 1983   6.192   2.763   4.534  0.2950  0.0059 -0.2346
   15SAPS  H15X 1984   6.225   2.659   4.556 -1.0930  0.1529  3.1193
   15SAPS  H15Y 1985   6.082   2.777   4.539  0.3909  0.3575  2.6721
   15SAPS  C316 1986   6.238   2.855   4.644 -0.0571  0.3725 -0.2658
   15SAPS  H16X 1987   6.204   2.960   4.627  0.3505  0.8669  1.7442
   15SAPS  H16Y 1988   6.349   2.860   4.648  0.0711 -1.7852 -0.3914
   15SAPS  C317 1989   6.195   2.813   4.786  0.8034  0.7138  0.4723
   15SAPS  H17X 1990   6.087   2.795   4.767  1.0068 -1.5612  1.1444
   15SAPS  H17Y 1991   6.201   2.901   4.852  0.7018 -0.3013  1.8886
   15SAPS  C318 1992   6.253   2.683   4.847 -0.0165 -0.9487  0.0853
   15SAPS  H18X 1993   6.356   2.701   4.883  0.0322  0.4007 -0.6368
   15SAPS  H18Y 1994   6.245   2.593   4.783  0.1302 -2.3409  1.9500
   15SAPS  H18Z 1995   6.194   2.653   4.937 -0.6794  2.8351  1.0826
   16SAPS     N 1996   5.077   1.327   2.505 -0.0140 -0.2319 -0.1500
   16SAPS   HN1 1997   5.158   1.355   2.565 -0.7149 -0.9159  1.1594
   16SAPS   HN2 1998   5.051   1.408   2.445 -1.7603  0.7401  1.8036
   16SAPS   HN3 1999   4.996   1.312   2.568  1.1533  1.2621  1.8383
   16SAPS   C12 2000   5.107   1.202   2.430 -0.0968  0.0153 -0.0235
   16SAPS  H12A 2001   5.023   1.177   2.367  0.2581 -1.4164  0.0522
   16SAPS   C13 2002   5.241   1.205   2.346  0.4575 -0.2553 -0.1245
   16SAPS  O13A 2003   5.324   1.302   2.359  0.5131  0.0386 -0.0030
   16SAPS  O13B 2004   5.275   1.095   2.298 -0.2837  0.1228  0.1805
   16SAPS   C11 2005   5.129   1.094   2.541  0.2395 -0.6183  0.3330
   16SAPS  H11A 2006   5.212   1.132   2.605  0.8498 -0.2358 -0.6474
   16SAPS  H11B 2007   5.164   0.999   2.495 -0.4061 -1.8987  2.3735
   16SAPS     P 2008   5.001   0.938   2.705  0.2233 -0.4550  0.3686
   16SAPS   O13 2009   4.876   0.878   2.655  0.6953 -0.1485 -0.1848
   16SAPS   O14 2010   5.116   0.845   2.707  0.1485 -0.0496  0.3300
   16SAPS   O12 2011   5.015   1.074   2.626 -0.1872  0.1059  0.5735
   16SAPS   O11 2012   4.977   0.986   2.850  0.5347  0.0419  0.0868
   16SAPS    C1 2013   4.921   1.115   2.876 -0.3961 -0.1467 -0.0849
   16SAPS    HA 2014   4.886   1.171   2.787  0.3431  2.6785  1.2995
   16SAPS    HB 2015   4.837   1.103   2.948 -0.3391 -1.4287 -0.2075
   16SAPS    C2 2016   5.039   1.205   2.938  0.1165  0.4418 -0.8263
   16SAPS    HS 2017   5.133   1.169   2.892 -0.3393  0.2465 -1.6187
   16SAPS   O21 2018   5.035   1.187   3.083  0.6594  0.2763 -0.3909
   16SAPS   C21 2019   5.123   1.098   3.132  0.4641  0.0899 -0.1833
   16SAPS   O22 2020   5.211   1.035   3.073 -0.7007 -0.3404  0.5273
   16SAPS   C22 2021   5.091   1.084   3.286 -0.2388  0.1372 -0.6096
   16SAPS   H2R 2022   5.123   1.175   3.342  0.1029  0.6864 -1.6599
   16SAPS   H2S 2023   4.981   1.095   3.296 -0.1498 -0.3229  1.1422
   16SAPS    C3 2024   5.038   1.355   2.905  0.0067 -0.0004 -0.5747
   16SAPS    HX 2025   4.954   1.404   2.960  0.7573  1.2344 -0.5000
   16SAPS    HY 2026   5.026   1.378   2.797  2.6424 -0.1164 -0.9464
   16SAPS   O31 2027   5.159   1.407   2.955  0.1695 -0.4129 -1.0616
   16SAPS   C31 2028   5.258   1.412   2.866 -0.0991 -0.3169 -0.1089
   16SAPS   O32 2029   5.252   1.386   2.749  0.3404  0.5419 -0.3522
   16SAPS   C32 2030   5.394   1.446   2.928 -0.7173 -0.4022  0.5896
   16SAPS   H2X 2031   5.386   1.551   2.963 -2.9100 -0.7282  1.2187
   16SAPS   H2Y 2032   5.467   1.427   2.847 -2.8043 -1.1974 -1.2134
   16SAPS   C23 2033   5.141   0.954   3.352 -0.4723 -0.6581  0.0929
   16SAPS   H3R 2034   5.252   0.947   3.350 -0.5038 -1.2796 -1.7760
   16SAPS   H3S 2035   5.101   0.873   3.287  2.5547 -1.0129 -1.5315
   16SAPS   C24 2036   5.090   0.964   3.496  0.2591 -0.1183  0.1500
   16SAPS   H4R 2037   4.982   0.989   3.488 -0.1056 -1.0449  1.7333
   16SAPS   H4S 2038   5.141   1.045   3.552  3.3495 -2.0780  0.4061
   16SAPS   C25 2039   5.119   0.839   3.574  0.4742 -0.1166  0.6586
   16SAPS   H5R 2040   5.147   0.753   3.511  0.1906 -2.3461  3.3850
   16SAPS   C26 2041   5.143   0.825   3.707 -0.2733  0.8348  0.8899
   16SAPS   H6R 2042   5.174   0.724   3.738  0.3439  0.4449 -0.8604
   16SAPS   C27 2043   5.119   0.926   3.812  0.1142 -0.1955  0.1370
   16SAPS   H7R 2044   5.151   1.026   3.777 -0.2190  0.1235  0.7496
   16SAPS   H7S 2045   5.183   0.896   3.898 -0.9864 -1.8939  0.4131
   16SAPS   C28 2046   4.982   0.957   3.862  0.0881 -0.1479  0.4419
   16SAPS   H8R 2047   4.900   0.922   3.798  0.1509  1.4731 -0.5569
   16SAPS   C29 2048   4.943   1.008   3.981 -0.0056 -0.3065 -0.0144
   16SAPS   H9R 2049   4.836   1.028   4.000 -0.1227 -2.1001  1.5984
   16SAPS  C210 2050   5.036   1.038   4.099 -0.2144  0.2925 -0.8466
   16SAPS  H10R 2051   5.055   1.147   4.095 -0.3188  0.3521  0.1427
   16SAPS  H10S 2052   5.137   0.993   4.085  0.0802  1.0402 -1.1862
   16SAPS  C211 2053   4.984   1.007   4.241  0.0579 -0.4059 -0.7972
   16SAPS  H11R 2054   4.981   1.099   4.302  0.4556 -1.7208  1.3147
   16SAPS  C212 2055   4.947   0.890   4.294 -0.1660  0.0450  0.3188
   16SAPS  H12R 2056   4.902   0.888   4.395 -2.7810  0.5314 -0.7640
   16SAPS  C213 2057   4.935   0.759   4.218  0.1025  0.4222  0.0730
   16SAPS  H13R 2058   5.028   0.745   4.159  1.0403  3.6374  0.5957
   16SAPS  H13S 2059   4.851   0.783   4.150 -1.2851  0.6509  1.8081
   16SAPS  C214 2060   4.889   0.634   4.294 -0.0147 -0.4039 -0.5254
   16SAPS  H14R 2061   4.861   0.648   4.399  0.3714 -0.8442 -0.3585
   16SAPS  C215 2062   4.893   0.511   4.242 -0.1535  0.4133 -0.1701
   16SAPS  H15R 2063   4.861   0.426   4.304  1.2097  2.2626  3.3529
   16SAPS  C216 2064   4.946   0.473   4.102  0.7682  0.5384  0.9209
   16SAPS  H16R 2065   4.936   0.364   4.084  0.2238  1.0032 -2.0154
   16SAPS  H16S 2066   5.053   0.499   4.088  0.5945  0.4053 -0.8574
   16SAPS  C217 2067   4.871   0.544   3.986 -0.7890 -0.2340  0.5604
   16SAPS  H17R 2068   4.879   0.655   3.992  1.3731 -0.3514  0.7314
   16SAPS  H17S 2069   4.763   0.519   3.991 -0.6577 -0.9993 -0.1742
   16SAPS  C218 2070   4.935   0.502   3.852  0.4615 -0.0798 -0.0269
   16SAPS  H18R 2071   4.913   0.394   3.836 -0.2747 -0.0764  0.8753
   16SAPS  H18S 2072   5.045   0.516   3.861  1.0356 -3.2593 -0.7142
   16SAPS  C219 2073   4.885   0.586   3.737 -0.5157 -0.3160 -0.0396
   16SAPS  H19R 2074   4.917   0.690   3.758  1.1806 -1.1234  1.6813
   16SAPS  H19S 2075   4.775   0.573   3.746 -0.3403 -2.3128 -0.2544
   16SAPS  C220 2076   4.939   0.538   3.610 -0.1904 -0.3648 -0.5243
   16SAPS  H20R 2077   4.903   0.433   3.601 -2.6575  0.4043 -0.2317
   16SAPS  H20S 2078   5.050   0.535   3.613 -0.1479  0.2523 -1.2018
   16SAPS  H20T 2079   4.909   0.597   3.521  0.1644  0.1270 -0.3234
   16SAPS   C33 2080   5.425   1.356   3.046 -0.6611  0.2110 -0.8247
   16SAPS   H3X 2081   5.532   1.343   3.071 -0.8668  2.1200  1.3372
   16SAPS   H3Y 2082   5.394   1.249   3.041 -0.8333  0.1366  1.1152
   16SAPS   C34 2083   5.361   1.400   3.182  0.0435 -0.3091  0.4870
   16SAPS   H4X 2084   5.251   1.387   3.178  0.2994 -2.8050 -2.1850
   16SAPS   H4Y 2085   5.390   1.507   3.188  0.3932 -0.3942  0.3903
   16SAPS   C35 2086   5.418   1.312   3.298 -0.0298 -0.6413 -0.3371
   16SAPS   H5X 2087   5.529   1.320   3.307 -0.1729  2.7972 -0.1988
   16SAPS   H5Y 2088   5.387   1.209   3.272 -0.0982 -1.0307  1.2190
   16SAPS   C36 2089   5.361   1.366   3.436 -0.0124  0.5365 -0.3488
   16SAPS   H6X 2090   5.250   1.368   3.445  0.0623  1.6488  0.5033
   16SAPS   H6Y 2091   5.395   1.471   3.449  2.3909 -0.0808 -1.1572
   16SAPS   C37 2092   5.405   1.261   3.539  0.5067 -0.3771  0.0199
   16SAPS   H7X 2093   5.488   1.200   3.497 -0.4233 -0.7503 -1.3737
   16SAPS   H7Y 2094   5.328   1.181   3.541 -1.4530  1.4022 -0.8460
   16SAPS   C38 2095   5.436   1.311   3.677 -0.2789  0.5232 -0.6697
   16SAPS   H8X 2096   5.356   1.381   3.708  0.4208  1.0389 -0.0132
   16SAPS   H8Y 2097   5.530   1.370   3.684 -0.4126  0.7040 -0.3998
   16SAPS   C39 2098   5.441   1.195   3.772  0.4178 -0.0681  0.7380
   16SAPS   H9X 2099   5.527   1.129   3.748  0.4005  0.9115 -2.5239
   16SAPS   H9Y 2100   5.350   1.134   3.755 -0.6738  1.8194 -0.5839
   16SAPS  C310 2101   5.446   1.236   3.917  0.9777 -0.3545 -0.1805
   16SAPS  H10X 2102   5.359   1.303   3.932  1.7892  0.4720  1.0425
   16SAPS  H10Y 2103   5.538   1.295   3.937 -0.8121  1.9550  1.9605
   16SAPS  C311 2104   5.446   1.119   4.024  0.0618  0.2264 -0.5755
   16SAPS  H11X 2105   5.519   1.041   3.995 -1.5920 -1.7814  0.3595
   16SAPS  H11Y 2106   5.353   1.058   4.015  0.1747 -0.4272  1.8281
   16SAPS  C312 2107   5.453   1.163   4.171  0.4034 -0.2321  0.2868
   16SAPS  H12X 2108   5.367   1.229   4.194 -0.2087 -0.4535 -1.2771
   16SAPS  H12Y 2109   5.536   1.236   4.183 -1.1591  1.6703  0.0622
   16SAPS  C313 2110   5.454   1.060   4.279 -0.1479  0.0744 -0.6648
   16SAPS  H13X 2111   5.557   1.021   4.292 -0.5240 -0.6465  0.3039
   16SAPS  H13Y 2112   5.391   0.974   4.248  0.1067  0.3196 -1.9106
   16SAPS  C314 2113   5.416   1.112   4.416  0.4821  0.2960 -1.1680
   16SAPS  H14X 2114   5.306   1.123   4.422  0.4906 -0.2130 -0.0819
   16SAPS  H14Y 2115   5.478   1.203   4.434  2.8449 -1.9733  3.9279
   16SAPS  C315 2116   5.449   1.024   4.536 -0.3941 -0.7141 -0.1653
   16SAPS  H15X 2117   5.529   0.949   4.521 -2.0485 -2.7133  0.5990
   16SAPS  H15Y 2118   5.371   0.948   4.557  0.0040 -0.7985  1.1289
   16SAPS  C316 2119   5.483   1.109   4.664  0.5236 -0.6978  0.5891
   16SAPS  H16X 2120   5.390   1.155   4.704  0.3961 -1.7776  1.5747
   16SAPS  H16Y 2121   5.553   1.193   4.643  0.8295  0.4910  5.2581
   16SAPS  C317 2122   5.540   1.028   4.785  0.3179 -0.4459  1.0486
   16SAPS  H17X 2123   5.630   0.980   4.740  0.4316 -0.0208  0.8165
   16SAPS  H17Y 2124   5.474   0.944   4.816 -1.1715 -0.6291 -2.2120
   16SAPS  C318 2125   5.586   1.114   4.897 -0.1195  0.2214 -0.4616
   16SAPS  H18X 2126   5.679   1.171   4.875 -0.3272  0.1137 -1.6802
   16SAPS  H18Y 2127   5.618   1.046   4.979 -0.5631 -0.3103 -0.7259
   16SAPS  H18Z 2128   5.506   1.178   4.942 -0.6234 -1.0668  0.5537
   17SAPS     N 2129   4.855   1.709   2.524  0.4345 -0.4150  0.7295
   17SAPS   HN1 2130   4.780   1.639   2.540  0.1653 -0.2270  0.2957
   17SAPS   HN2 2131   4.950   1.679   2.553  0.9404  0.5396  0.0957
   17SAPS   HN3 2132   4.827   1.799   2.568 -1.2488  0.0998 -1.2487
   17SAPS   C12 2133   4.846   1.712   2.374 -0.0588  0.9567  0.4115
   17SAPS  H12A 2134   4.871   1.814   2.347 -1.0082  1.1770  0.3296
   17SAPS   C13 2135   4.923   1.615   2.290  1.1219 -0.0337  1.3554
   17SAPS  O13A 2136   4.986   1.519   2.339  1.0500 -0.3061  0.2047
   17SAPS  O13B 2137   4.907   1.618   2.164  0.0948 -0.2211  0.0559
   17SAPS   C11 2138   4.696   1.705   2.330 -0.2702 -0.6906 -0.4085
   17SAPS  H11A 2139   4.660   1.600   2.343 -0.5154 -0.8035 -1.7991
   17SAPS  H11B 2140   4.692   1.730   2.222 -3.6573 -0.1539 -0.2708
   17SAPS     P 2141   4.469   1.844   2.320  0.0694 -0.0726  0.1149
   17SAPS   O13 2142   4.500   1.938   2.209  0.1125 -0.1488 -0.5824
   17SAPS   O14 2143   4.393   1.718   2.288 -0.5090 -0.7872 -0.9783
   17SAPS   O12 2144   4.608   1.803   2.400 -0.5279 -0.2407 -0.0127
   17SAPS   O11 2145   4.385   1.917   2.423 -0.5445  0.1306  0.3551
   17SAPS    C1 2146   4.301   1.860   2.522  0.6287  0.4986 -0.0717
   17SAPS    HA 2147   4.203   1.912   2.530 -0.3456 -0.9783 -1.7067
   17SAPS    HB 2148   4.293   1.750   2.507  3.1253  0.2549 -0.0785
   17SAPS    C2 2149   4.359   1.876   2.668  0.6925 -0.2075  0.0006
   17SAPS    HS 2150   4.294   1.815   2.734  1.6524 -2.0054 -0.6549
   17SAPS   O21 2151   4.363   2.021   2.692 -0.2993 -0.3991  0.0755
   17SAPS   C21 2152   4.259   2.067   2.750 -0.0144  0.3724 -0.5350
   17SAPS   O22 2153   4.152   2.011   2.765 -0.2705  0.1088 -0.1224
   17SAPS   C22 2154   4.291   2.206   2.811  0.4817  0.3974  0.6653
   17SAPS   H2R 2155   4.316   2.270   2.725 -1.7202  1.3582  0.6808
   17SAPS   H2S 2156   4.198   2.244   2.857  0.1590  0.2181  0.1677
   17SAPS    C3 2157   4.505   1.820   2.703  0.7537  0.1483 -0.0776
   17SAPS    HX 2158   4.576   1.868   2.633  2.4535  2.3509  2.9180
   17SAPS    HY 2159   4.496   1.709   2.695 -1.8981  0.3847 -1.4081
   17SAPS   O31 2160   4.556   1.847   2.832 -0.3649 -0.9663  0.0937
   17SAPS   C31 2161   4.685   1.808   2.847  1.0520 -0.2251 -0.2375
   17SAPS   O32 2162   4.749   1.739   2.769 -0.1210 -0.0778 -0.5918
   17SAPS   C32 2163   4.740   1.880   2.970  0.4814 -0.0166  0.1679
   17SAPS   H2X 2164   4.702   1.818   3.054 -0.7153  1.3517  0.6680
   17SAPS   H2Y 2165   4.691   1.979   2.965 -0.7494 -0.6570 -1.7746
   17SAPS   C23 2166   4.418   2.205   2.905 -0.3432  0.2631  0.7806
   17SAPS   H3R 2167   4.442   2.313   2.913  1.3146  0.0061 -0.3676
   17SAPS   H3S 2168   4.509   2.165   2.856 -0.3951  0.8991  0.1584
   17SAPS   C24 2169   4.385   2.127   3.035  0.6056 -0.1200  0.0742
   17SAPS   H4R 2170   4.479   2.106   3.091  0.3130  0.9759  1.0172
   17SAPS   H4S 2171   4.363   2.027   2.990  1.9226  0.8040 -2.8710
   17SAPS   C25 2172   4.271   2.160   3.129 -0.1185 -0.5835  0.3480
   17SAPS   H5R 2173   4.174   2.183   3.083  0.2002 -1.0153 -0.5645
   17SAPS   C26 2174   4.270   2.178   3.263  0.0838  0.5902  0.2080
   17SAPS   H6R 2175   4.175   2.210   3.308  0.9706  0.8350  1.9918
   17SAPS   C27 2176   4.390   2.160   3.358  0.4254  0.5552  0.1047
   17SAPS   H7R 2177   4.406   2.253   3.416 -2.1301  2.4083 -1.9290
   17SAPS   H7S 2178   4.481   2.142   3.296  0.5850 -3.6221  1.2358
   17SAPS   C28 2179   4.361   2.046   3.457 -0.3653 -0.2592  0.1185
   17SAPS   H8R 2180   4.340   1.946   3.415 -1.7590  0.9399 -2.2150
   17SAPS   C29 2181   4.377   2.047   3.593 -0.5221  0.8009  0.0058
   17SAPS   H9R 2182   4.374   1.955   3.652 -0.7044  0.1853 -0.9453
   17SAPS  C210 2183   4.409   2.167   3.683 -0.6449  0.8537  0.4958
   17SAPS  H10R 2184   4.330   2.191   3.757  1.8959  1.8431  3.0658
   17SAPS  H10S 2185   4.404   2.255   3.616 -2.6567  0.3540 -0.0732
   17SAPS  C211 2186   4.550   2.169   3.741  0.3498  0.3876  0.7587
   17SAPS  H11R 2187   4.621   2.118   3.674 -1.0605  1.1012 -1.3741
   17SAPS  C212 2188   4.592   2.225   3.855  0.1550  0.3680 -0.2430
   17SAPS  H12R 2189   4.696   2.214   3.889 -0.0573 -1.7246 -0.1230
   17SAPS  C213 2190   4.500   2.297   3.950 -0.1619  0.0124 -0.3711
   17SAPS  H13R 2191   4.496   2.230   4.038  1.6855 -0.3897 -0.5562
   17SAPS  H13S 2192   4.391   2.299   3.928 -0.0742  0.1986 -0.7963
   17SAPS  C214 2193   4.545   2.433   3.995  0.5901 -0.0337  0.3797
   17SAPS  H14R 2194   4.524   2.516   3.926  3.3379  1.0863  0.7507
   17SAPS  C215 2195   4.606   2.464   4.112  0.5394 -0.7335 -0.2744
   17SAPS  H15R 2196   4.640   2.566   4.138  0.6726 -1.1334  1.2237
   17SAPS  C216 2197   4.651   2.366   4.221 -0.0348 -0.5481 -0.5074
   17SAPS  H16R 2198   4.745   2.403   4.267 -1.1213 -0.3816  1.6842
   17SAPS  H16S 2199   4.681   2.273   4.168  0.2007  0.6403 -2.5913
   17SAPS  C217 2200   4.556   2.345   4.347 -0.5604 -0.1965 -0.4628
   17SAPS  H17R 2201   4.586   2.262   4.415 -0.5712 -2.5382 -3.1369
   17SAPS  H17S 2202   4.458   2.313   4.304 -1.7591  0.8252  1.3662
   17SAPS  C218 2203   4.527   2.474   4.435 -0.0781  0.1621  0.9491
   17SAPS  H18R 2204   4.488   2.542   4.356  0.2878  1.5838  1.9566
   17SAPS  H18S 2205   4.618   2.520   4.477 -0.3510 -1.1271  3.1060
   17SAPS  C219 2206   4.420   2.459   4.545 -0.0645 -0.2261  0.0809
   17SAPS  H19R 2207   4.325   2.429   4.497 -1.2867  2.0323  0.9415
   17SAPS  H19S 2208   4.399   2.564   4.576 -0.9108 -0.3341 -0.1015
   17SAPS  C220 2209   4.450   2.369   4.670  0.6631  0.7495 -0.9728
   17SAPS  H20R 2210   4.540   2.410   4.721  1.2315  1.5987 -2.6043
   17SAPS  H20S 2211   4.459   2.260   4.648 -1.8077 -0.1629  1.7941
   17SAPS  H20T 2212   4.366   2.377   4.743  1.3015  2.0438 -0.3613
   17SAPS   C33 2213   4.893   1.893   2.974  0.8387  0.5467 -0.3802
   17SAPS   H3X 2214   4.919   1.964   3.055  0.7147 -0.3630  0.4676
   17SAPS   H3Y 2215   4.911   1.948   2.878 -1.9628  0.3884 -1.0793
   17SAPS   C34 2216   4.969   1.763   2.986  0.3655  0.4791  0.1847
   17SAPS   H4X 2217   4.921   1.688   2.920 -2.0941  1.1351  1.1140
   17SAPS   H4Y 2218   4.953   1.737   3.093 -0.6858  0.1613 -0.0409
   17SAPS   C35 2219   5.114   1.753   2.956  0.0985 -0.4624  0.4942
   17SAPS   H5X 2220   5.136   1.791   2.854  0.3709 -1.6185  0.1101
   17SAPS   H5Y 2221   5.150   1.648   2.964  2.3097  0.2228  0.2918
   17SAPS   C36 2222   5.190   1.843   3.050 -1.2090  0.1074 -0.9057
   17SAPS   H6X 2223   5.168   1.952   3.050  2.0803  1.0591  3.1324
   17SAPS   H6Y 2224   5.297   1.827   3.024 -1.0066 -1.7060  0.8171
   17SAPS   C37 2225   5.172   1.803   3.195  0.0968 -0.1901  0.3320
   17SAPS   H7X 2226   5.138   1.697   3.199 -3.2302  0.7349 -0.2213
   17SAPS   H7Y 2227   5.095   1.870   3.240 -1.0595  0.8563 -2.9406
   17SAPS   C38 2228   5.296   1.811   3.272  0.0567  0.1360 -0.4611
   17SAPS   H8X 2229   5.346   1.904   3.238 -1.9588  0.5035 -2.6901
   17SAPS   H8Y 2230   5.368   1.730   3.247  0.4591  0.7203 -1.2341
   17SAPS   C39 2231   5.275   1.814   3.426  0.3489  0.4947  0.0445
   17SAPS   H9X 2232   5.203   1.730   3.434 -1.0625  1.7765  1.8526
   17SAPS   H9Y 2233   5.214   1.897   3.466  0.7952  0.8750 -0.0545
   17SAPS  C310 2234   5.396   1.782   3.513 -0.5193  0.0257 -0.2434
   17SAPS  H10X 2235   5.457   1.875   3.524  0.6992 -0.9175  1.4572
   17SAPS  H10Y 2236   5.455   1.702   3.464  1.7327  2.5455 -1.9579
   17SAPS  C311 2237   5.356   1.736   3.657 -0.2864  0.7919 -0.3411
   17SAPS  H11X 2238   5.338   1.626   3.654 -0.0257  0.7593 -1.5350
   17SAPS  H11Y 2239   5.265   1.790   3.690 -0.7800 -0.6217  0.7183
   17SAPS  C312 2240   5.450   1.751   3.776 -1.1610  0.1378 -0.1564
   17SAPS  H12X 2241   5.474   1.858   3.796 -0.3571  0.0270 -0.4558
   17SAPS  H12Y 2242   5.544   1.707   3.735 -2.0538  0.3738 -2.6113
   17SAPS  C313 2243   5.407   1.669   3.898  0.2980  0.5356  0.2125
   17SAPS  H13X 2244   5.364   1.578   3.851 -1.0195  2.4676 -2.6119
   17SAPS  H13Y 2245   5.328   1.720   3.958  1.5535  1.3133  1.2847
   17SAPS  C314 2246   5.514   1.639   4.009 -0.2611 -0.5352 -0.0823
   17SAPS  H14X 2247   5.596   1.585   3.956 -0.8897 -1.0617 -0.5437
   17SAPS  H14Y 2248   5.465   1.568   4.079  0.2716  0.4755  1.3446
   17SAPS  C315 2249   5.546   1.773   4.086  0.1990  0.4188 -0.4302
   17SAPS  H15X 2250   5.462   1.846   4.089 -0.3033 -0.1646  0.4094
   17SAPS  H15Y 2251   5.634   1.824   4.042  0.1819  2.0937  1.3259
   17SAPS  C316 2252   5.592   1.740   4.236  0.2632  0.0507 -0.6038
   17SAPS  H16X 2253   5.694   1.696   4.245 -0.1805 -0.5376  2.3497
   17SAPS  H16Y 2254   5.521   1.663   4.273  0.2617  0.2610 -0.1738
   17SAPS  C317 2255   5.592   1.863   4.326  0.1048 -0.1430 -0.2394
   17SAPS  H17X 2256   5.495   1.917   4.319  0.3153  0.3595  0.5549
   17SAPS  H17Y 2257   5.662   1.942   4.292 -0.1980  0.1147 -0.2612
   17SAPS  C318 2258   5.635   1.834   4.462  0.0556  0.4762 -0.3957
   17SAPS  H18X 2259   5.732   1.780   4.466  0.7122  1.6573  3.3075
   17SAPS  H18Y 2260   5.564   1.760   4.503  0.2785  0.0410 -0.7808
   17SAPS  H18Z 2261   5.644   1.922   4.529  1.2012 -0.0524  0.1641
   18SAPS     N 2262   1.414   0.845   2.613 -0.4237 -0.4064 -0.6937
   18SAPS   HN1 2263   1.485   0.774   2.586 -1.0565 -1.2206 -0.2609
   18SAPS   HN2 2264   1.356   0.884   2.536 -2.5929 -1.4522  0.3305
   18SAPS   HN3 2265   1.468   0.917   2.666 -0.3504 -1.1127  0.2224
   18SAPS   C12 2266   1.332   0.775   2.713 -0.1965 -0.2144  0.1819
   18SAPS  H12A 2267   1.280   0.704   2.650  2.0434 -2.1395  0.3404
   18SAPS   C13 2268   1.423   0.692   2.813 -0.4245  0.8522  0.0728
   18SAPS  O13A 2269   1.548   0.693   2.799 -0.0660  0.3755  0.3462
   18SAPS  O13B 2270   1.362   0.638   2.914  0.1510  0.8348  0.6948
   18SAPS   C11 2271   1.237   0.871   2.796  0.1311 -0.3362 -0.1641
   18SAPS  H11A 2272   1.304   0.933   2.859  0.3818 -2.2119  1.4982
   18SAPS  H11B 2273   1.182   0.802   2.863 -0.5160 -1.9181 -2.1925
   18SAPS     P 2274   1.118   1.099   2.713 -0.1901  0.4786 -0.2861
   18SAPS   O13 2275   1.224   1.158   2.635 -0.0534 -0.3067 -0.0737
   18SAPS   O14 2276   0.981   1.120   2.675  0.4618  0.1959  0.3895
   18SAPS   O12 2277   1.143   0.943   2.714 -0.4218  0.4247  0.1554
   18SAPS   O11 2278   1.133   1.142   2.858 -0.5316  0.1282  0.3502
   18SAPS    C1 2279   1.048   1.194   2.954 -0.0327 -0.0865 -0.4860
   18SAPS    HA 2280   1.103   1.244   3.037 -0.8386  2.3021 -1.3236
   18SAPS    HB 2281   0.981   1.272   2.912  0.6813  0.3882 -0.7466
   18SAPS    C2 2282   0.947   1.089   3.005 -0.1699 -0.3480 -0.4878
   18SAPS    HS 2283   0.911   1.031   2.917  2.3135 -2.4428 -0.2294
   18SAPS   O21 2284   0.834   1.163   3.059  0.3859 -0.2656 -0.3131
   18SAPS   C21 2285   0.733   1.087   3.094 -0.7025  0.0298  0.4034
   18SAPS   O22 2286   0.714   0.970   3.058 -0.1979 -0.9815  0.3125
   18SAPS   C22 2287   0.640   1.158   3.197  0.1506 -0.0080 -0.4331
   18SAPS   H2R 2288   0.622   1.092   3.285 -1.2359  0.7170 -0.1475
   18SAPS   H2S 2289   0.701   1.244   3.231 -1.6937  1.1177  0.1168
   18SAPS    C3 2290   1.013   0.992   3.099  0.3977 -0.1664 -0.1890
   18SAPS    HX 2291   1.082   0.924   3.045  0.4092  0.8949 -1.5520
   18SAPS    HY 2292   0.938   0.921   3.140 -1.7865  1.3889 -1.2458
   18SAPS   O31 2293   1.088   1.057   3.206 -0.1198 -0.1352  0.1346
   18SAPS   C31 2294   1.024   1.066   3.322  0.1225 -1.2080  0.2860
   18SAPS   O32 2295   0.907   1.046   3.346  0.5081  0.1310 -0.0032
   18SAPS   C32 2296   1.120   1.124   3.430  0.5997 -0.0850  1.0136
   18SAPS   H2X 2297   1.123   1.233   3.406 -0.9675 -0.6764 -2.4929
   18SAPS   H2Y 2298   1.224   1.092   3.409 -0.2139 -1.3362 -1.5129
   18SAPS   C23 2299   0.505   1.209   3.139  0.8796  0.0342 -0.0030
   18SAPS   H3R 2300   0.430   1.129   3.118 -1.0717  1.3491  1.5885
   18SAPS   H3S 2301   0.527   1.246   3.037 -1.8480 -1.2391 -1.1387
   18SAPS   C24 2302   0.435   1.329   3.218  0.6461 -0.3177  0.1422
   18SAPS   H4R 2303   0.348   1.375   3.166  0.2170  0.2785  1.3264
   18SAPS   H4S 2304   0.512   1.408   3.227 -2.4683  3.1812 -1.3968
   18SAPS   C25 2305   0.385   1.293   3.354 -0.2615  0.3453 -0.3231
   18SAPS   H5R 2306   0.283   1.252   3.358 -1.7942  3.8006 -0.6838
   18SAPS   C26 2307   0.441   1.323   3.471  0.2161  0.2117 -0.6002
   18SAPS   H6R 2308   0.377   1.309   3.560  0.2909 -1.8304 -0.8189
   18SAPS   C27 2309   0.577   1.384   3.496 -0.4019  0.3210 -0.6447
   18SAPS   H7R 2310   0.564   1.477   3.557  0.2260 -0.6157  0.9858
   18SAPS   H7S 2311   0.624   1.415   3.401  1.0424  0.6953  0.1648
   18SAPS   C28 2312   0.676   1.283   3.545  0.3402 -0.2937 -0.9838
   18SAPS   H8R 2313   0.713   1.219   3.463 -0.6064  1.0777 -2.5579
   18SAPS   C29 2314   0.741   1.281   3.667  0.2981  0.3493 -0.4758
   18SAPS   H9R 2315   0.813   1.202   3.694  1.4826  0.6413 -2.6054
   18SAPS  C210 2316   0.729   1.377   3.782 -0.0671  0.9931 -0.4743
   18SAPS  H10R 2317   0.721   1.477   3.735  1.2454  0.6404 -1.5010
   18SAPS  H10S 2318   0.821   1.379   3.843  1.0227 -1.0976 -1.9123
   18SAPS  C211 2319   0.605   1.341   3.861 -1.4694  0.1402 -0.4882
   18SAPS  H11R 2320   0.508   1.342   3.811 -1.1370  0.7544 -1.1352
   18SAPS  C212 2321   0.611   1.289   3.992  0.1372 -0.7731 -0.3161
   18SAPS  H12R 2322   0.511   1.290   4.038 -0.6014 -1.1328 -1.8380
   18SAPS  C213 2323   0.736   1.263   4.081  0.1773  0.9239 -0.1087
   18SAPS  H13R 2324   0.832   1.289   4.031  0.3335 -0.7267 -0.7448
   18SAPS  H13S 2325   0.736   1.152   4.089  0.1433  0.9845  0.7931
   18SAPS  C214 2326   0.750   1.299   4.228  0.3163 -0.5110  0.0217
   18SAPS  H14R 2327   0.660   1.338   4.278  1.1654 -0.8058  1.8867
   18SAPS  C215 2328   0.869   1.325   4.297  0.2002  0.5201  0.3472
   18SAPS  H15R 2329   0.865   1.335   4.407  0.0176 -0.5580  0.4585
   18SAPS  C216 2330   1.007   1.285   4.249  0.2817  0.6945  0.1015
   18SAPS  H16R 2331   1.055   1.376   4.206 -0.4140  0.6050 -0.9100
   18SAPS  H16S 2332   1.006   1.217   4.161 -1.0847  2.3378 -1.2444
   18SAPS  C217 2333   1.087   1.227   4.364 -0.4288  0.4918  0.3849
   18SAPS  H17R 2334   1.078   1.285   4.458  2.4577  0.7662  0.5828
   18SAPS  H17S 2335   1.196   1.228   4.344 -0.5770 -1.3495 -0.7637
   18SAPS  C218 2336   1.064   1.081   4.406  0.5469  0.2884 -0.1933
   18SAPS  H18R 2337   1.067   1.007   4.323 -1.3028 -1.8366  1.4965
   18SAPS  H18S 2338   0.962   1.076   4.450  0.2700  0.9745 -0.7480
   18SAPS  C219 2339   1.156   1.035   4.519  0.3183 -0.2292 -0.9053
   18SAPS  H19R 2340   1.261   1.038   4.484  0.0613  0.3649 -1.6474
   18SAPS  H19S 2341   1.142   0.925   4.531 -0.2016 -0.0816 -0.0689
   18SAPS  C220 2342   1.140   1.110   4.653  0.6503  0.6813  0.2030
   18SAPS  H20R 2343   1.195   1.205   4.637  1.8952 -0.3391 -2.0923
   18SAPS  H20S 2344   1.192   1.062   4.738  1.1959 -1.1990 -1.1318
   18SAPS  H20T 2345   1.033   1.112   4.683  0.7175 -0.0435  0.5138
   18SAPS   C33 2346   1.080   1.091   3.578  0.0759  0.0990  0.1266
   18SAPS   H3X 2347   1.068   0.982   3.592 -0.8061  0.3806  1.7312
   18SAPS   H3Y 2348   0.988   1.144   3.609  0.3999  2.2737 -2.2706
   18SAPS   C34 2349   1.188   1.123   3.683 -0.5783  0.4033  0.0454
   18SAPS   H4X 2350   1.213   1.231   3.672  1.2670  0.0751  0.5472
   18SAPS   H4Y 2351   1.279   1.067   3.652 -1.0059 -0.3276  0.0811
   18SAPS   C35 2352   1.154   1.070   3.822  0.2368 -0.2646 -0.5501
   18SAPS   H5X 2353   1.144   0.961   3.807 -2.2526 -0.2726  0.5185
   18SAPS   H5Y 2354   1.049   1.101   3.841 -0.1413  0.1623 -2.9465
   18SAPS   C36 2355   1.248   1.108   3.933  0.1027 -0.0034  0.2697
   18SAPS   H6X 2356   1.345   1.054   3.925  0.3930  0.5649 -0.1281
   18SAPS   H6Y 2357   1.202   1.094   4.033 -1.4121  2.1867 -0.0545
   18SAPS   C37 2358   1.284   1.253   3.952 -0.0701  0.4011 -0.0751
   18SAPS   H7X 2359   1.188   1.302   3.977 -1.1285 -1.1071 -1.0369
   18SAPS   H7Y 2360   1.343   1.284   3.863  2.2556 -0.9740  0.8913
   18SAPS   C38 2361   1.381   1.282   4.073 -0.1261 -0.3604  0.7474
   18SAPS   H8X 2362   1.473   1.220   4.061 -1.1078 -1.8985  0.7963
   18SAPS   H8Y 2363   1.332   1.245   4.166  0.2725 -1.9418  0.3668
   18SAPS   C39 2364   1.414   1.430   4.111 -0.2867  0.8587 -1.0537
   18SAPS   H9X 2365   1.317   1.479   4.134 -0.7694 -0.8428  0.7671
   18SAPS   H9Y 2366   1.465   1.479   4.025  1.0212  1.6170  0.1039
   18SAPS  C310 2367   1.504   1.430   4.240  0.2603  0.7118  0.0513
   18SAPS  H10X 2368   1.590   1.362   4.221 -1.3517 -2.0466  1.8225
   18SAPS  H10Y 2369   1.449   1.369   4.315  2.0210 -2.9546 -1.3729
   18SAPS  C311 2370   1.543   1.574   4.293 -0.1899  0.3860 -0.1347
   18SAPS  H11X 2371   1.450   1.635   4.296 -1.6352 -1.7157  0.5710
   18SAPS  H11Y 2372   1.615   1.618   4.220  0.7903  2.2451  1.8705
   18SAPS  C312 2373   1.606   1.574   4.430 -1.4298  0.1688 -0.2792
   18SAPS  H12X 2374   1.704   1.523   4.437 -1.6034 -0.0912  0.3047
   18SAPS  H12Y 2375   1.542   1.512   4.496 -1.0406  0.4879  0.4148
   18SAPS  C313 2376   1.621   1.719   4.490 -0.0626 -0.4599 -0.6360
   18SAPS  H13X 2377   1.527   1.775   4.473 -0.6822 -1.4168 -0.4736
   18SAPS  H13Y 2378   1.693   1.782   4.433  1.3834 -2.1947 -0.8356
   18SAPS  C314 2379   1.668   1.717   4.633 -0.7478 -0.6543 -0.2033
   18SAPS  H14X 2380   1.777   1.697   4.633 -0.6404 -0.1619 -2.0178
   18SAPS  H14Y 2381   1.631   1.629   4.691  0.3340 -0.8734  0.1719
   18SAPS  C315 2382   1.657   1.847   4.707 -0.2071  0.1434  0.7975
   18SAPS  H15X 2383   1.651   1.922   4.625  1.3032 -0.9844 -0.4140
   18SAPS  H15Y 2384   1.740   1.869   4.778 -0.8892  0.1251  1.6093
   18SAPS  C316 2385   1.536   1.864   4.790  1.0066 -0.8098  0.4560
   18SAPS  H16X 2386   1.555   1.812   4.887  0.5424  1.3018  1.7504
   18SAPS  H16Y 2387   1.441   1.821   4.751 -0.3449  2.1804  0.1164
   18SAPS  C317 2388   1.496   2.007   4.826  0.1043 -0.0380  0.1657
   18SAPS  H17X 2389   1.451   2.050   4.735  0.4978  2.3755  1.0373
   18SAPS  H17Y 2390   1.585   2.063   4.863  0.1427  0.0688 -0.0917
   18SAPS  C318 2391   1.395   2.024   4.937  0.0396 -0.3054 -0.7701
   18SAPS  H18X 2392   1.293   1.992   4.905 -2.1176  5.1666 -0.5264
   18SAPS  H18Y 2393   1.385   2.134   4.950  0.0032 -0.2997 -0.8433
   18SAPS  H18Z 2394   1.427   1.973   5.030  1.6476 -2.0885 -2.2113
   19SAPS     N 2395   1.323   1.415   2.579 -0.3119  0.0573 -0.3746
   19SAPS   HN1 2396   1.324   1.498   2.642 -1.5327  2.3961 -3.1765
   19SAPS   HN2 2397   1.270   1.443   2.494  0.1841 -0.4095 -0.8550
   19SAPS   HN3 2398   1.277   1.337   2.630  0.1160  0.2126  0.2591
   19SAPS   C12 2399   1.465   1.360   2.549  0.5160 -0.1692 -0.1102
   19SAPS  H12A 2400   1.463   1.257   2.518  0.7421 -0.5962  1.2153
   19SAPS   C13 2401   1.535   1.440   2.438  0.5405  0.5227  0.0096
   19SAPS  O13A 2402   1.472   1.538   2.385 -0.0680 -0.5968 -0.0409
   19SAPS  O13B 2403   1.664   1.431   2.428  0.2617 -0.4940  0.4386
   19SAPS   C11 2404   1.556   1.374   2.683 -0.2147  0.9242  0.0435
   19SAPS  H11A 2405   1.556   1.483   2.705 -0.1989  0.5732  1.9552
   19SAPS  H11B 2406   1.663   1.350   2.665 -0.4589 -0.6196  0.4965
   19SAPS     P 2407   1.568   1.163   2.837 -0.2433 -0.2105 -0.0863
   19SAPS   O13 2408   1.535   1.070   2.726 -0.1094  0.0758 -0.3858
   19SAPS   O14 2409   1.711   1.193   2.862  0.0675  0.5814 -0.5378
   19SAPS   O12 2410   1.505   1.303   2.797  0.2295 -0.4112  0.0422
   19SAPS   O11 2411   1.502   1.109   2.957  0.4506  0.1363 -0.0213
   19SAPS    C1 2412   1.415   1.168   3.051  0.1150  0.3776  0.5105
   19SAPS    HA 2413   1.370   1.264   3.018  1.1938  1.1586  1.2609
   19SAPS    HB 2414   1.327   1.103   3.070  0.1494  0.6326  1.6086
   19SAPS    C2 2415   1.473   1.180   3.192 -0.4085  0.0006  0.0132
   19SAPS    HS 2416   1.580   1.211   3.195 -0.8298  1.6208 -0.5121
   19SAPS   O21 2417   1.457   1.053   3.267  0.0295  0.6408  0.3635
   19SAPS   C21 2418   1.549   1.022   3.358  0.5302 -0.2707 -0.2872
   19SAPS   O22 2419   1.649   1.088   3.386  0.7399  0.4323 -0.0092
   19SAPS   C22 2420   1.517   0.886   3.435  0.0585 -0.7632  1.0636
   19SAPS   H2R 2421   1.428   0.910   3.496 -1.0846  1.1531 -1.2004
   19SAPS   H2S 2422   1.501   0.815   3.351 -1.1146 -0.7270  1.2470
   19SAPS    C3 2423   1.390   1.289   3.267  0.2274  0.1204 -0.2061
   19SAPS    HX 2424   1.284   1.256   3.255 -1.2385  3.4906  2.0030
   19SAPS    HY 2425   1.400   1.389   3.220 -1.4100  1.3119  1.7938
   19SAPS   O31 2426   1.428   1.303   3.407 -0.1105  0.0049  0.4846
   19SAPS   C31 2427   1.492   1.407   3.448  0.2286 -0.0017 -0.2345
   19SAPS   O32 2428   1.536   1.496   3.383 -0.2837  0.5386  0.1037
   19SAPS   C32 2429   1.508   1.408   3.602 -0.4628  0.3163 -0.1133
   19SAPS   H2X 2430   1.420   1.367   3.657 -0.8403  0.0938 -0.8762
   19SAPS   H2Y 2431   1.507   1.517   3.621 -1.1174  0.6398 -1.8752
   19SAPS   C23 2432   1.627   0.842   3.529  1.0848 -0.5182 -0.3133
   19SAPS   H3R 2433   1.635   0.928   3.599 -1.0441 -0.5010 -0.0243
   19SAPS   H3S 2434   1.730   0.826   3.489  0.7931 -0.0850 -1.2523
   19SAPS   C24 2435   1.599   0.717   3.622 -0.3275 -0.3694 -0.2983
   19SAPS   H4R 2436   1.692   0.692   3.677 -1.3099 -2.2695  0.6086
   19SAPS   H4S 2437   1.575   0.627   3.561 -0.8464 -0.1386 -0.4334
   19SAPS   C25 2438   1.493   0.739   3.731  0.0564  0.5775  0.1177
   19SAPS   H5R 2439   1.395   0.731   3.682  0.0338 -0.2900  0.2908
   19SAPS   C26 2440   1.513   0.773   3.858  0.1503 -0.0703 -0.2865
   19SAPS   H6R 2441   1.423   0.789   3.919 -0.7418  1.9900 -2.0117
   19SAPS   C27 2442   1.643   0.788   3.923  0.3677 -0.3927 -0.4050
   19SAPS   H7R 2443   1.717   0.739   3.855 -0.5780  1.1814 -2.6797
   19SAPS   H7S 2444   1.651   0.720   4.010 -1.2599 -1.1859 -0.8425
   19SAPS   C28 2445   1.692   0.925   3.950 -0.4175  0.4114  0.5600
   19SAPS   H8R 2446   1.744   0.970   3.864 -1.8761  0.2657 -0.4424
   19SAPS   C29 2447   1.658   0.990   4.059  0.6406 -0.1514 -0.2452
   19SAPS   H9R 2448   1.694   1.093   4.070 -1.0205  0.6520 -1.8745
   19SAPS  C210 2449   1.571   0.949   4.172 -0.1550 -0.1049 -0.7156
   19SAPS  H10R 2450   1.490   0.883   4.135 -0.9096 -0.7396  1.8861
   19SAPS  H10S 2451   1.511   1.033   4.214 -1.1753 -0.5818 -1.1898
   19SAPS  C211 2452   1.647   0.867   4.270 -0.0296 -0.1150  0.3091
   19SAPS  H11R 2453   1.712   0.790   4.226  1.2374  1.3186 -0.4352
   19SAPS  C212 2454   1.640   0.879   4.402 -0.0342 -1.2706 -0.6255
   19SAPS  H12R 2455   1.705   0.822   4.472 -0.7826  2.5511  3.6610
   19SAPS  C213 2456   1.568   0.979   4.485 -0.0638  0.1917 -0.0792
   19SAPS  H13R 2457   1.540   0.927   4.579 -1.9033 -1.4994 -1.4877
   19SAPS  H13S 2458   1.478   1.010   4.428  0.9028  2.8377 -0.3472
   19SAPS  C214 2459   1.647   1.105   4.503 -0.1008  0.4057  0.0328
   19SAPS  H14R 2460   1.728   1.129   4.433 -1.8248  0.7030 -1.9559
   19SAPS  C215 2461   1.612   1.206   4.591 -0.0855 -0.4349 -0.4225
   19SAPS  H15R 2462   1.680   1.292   4.601 -0.1782 -0.1559 -1.9559
   19SAPS  C216 2463   1.504   1.208   4.691 -0.2139  0.9410  0.5889
   19SAPS  H16R 2464   1.434   1.122   4.691  1.4106 -0.4605 -1.3875
   19SAPS  H16S 2465   1.440   1.295   4.665  0.6060  1.1246 -0.9357
   19SAPS  C217 2466   1.561   1.238   4.837 -0.3756 -0.0049 -0.3398
   19SAPS  H17R 2467   1.473   1.267   4.899 -0.5263  1.5258 -1.2266
   19SAPS  H17S 2468   1.625   1.328   4.838 -2.4321  1.6694 -3.0472
   19SAPS  C218 2469   1.628   1.116   4.900 -0.4032 -0.3273  0.1706
   19SAPS  H18R 2470   1.706   1.085   4.827 -0.4919  0.2594 -0.1757
   19SAPS  H18S 2471   1.550   1.038   4.911  0.6655 -1.4207  0.1599
   19SAPS  C219 2472   1.690   1.135   5.035 -0.7315 -0.3441 -0.2049
   19SAPS  H19R 2473   1.777   1.200   5.015  0.1584 -1.8928 -1.6541
   19SAPS  H19S 2474   1.740   1.038   5.057 -0.7631  0.1632  2.4709
   19SAPS  C220 2475   1.616   1.160   5.164  0.5845  0.4976 -0.2010
   19SAPS  H20R 2476   1.568   1.067   5.200 -2.7411  2.5769  1.2238
   19SAPS  H20S 2477   1.535   1.234   5.149 -0.3222 -0.6759 -1.2674
   19SAPS  H20T 2478   1.681   1.204   5.243  0.2389  0.0713  0.3236
   19SAPS   C33 2479   1.639   1.347   3.639 -0.6650 -0.9985 -0.0904
   19SAPS   H3X 2480   1.707   1.418   3.588 -1.6366 -0.5597 -0.8052
   19SAPS   H3Y 2481   1.639   1.249   3.587 -1.1405 -0.4032 -1.2521
   19SAPS   C34 2482   1.669   1.339   3.789  0.5107 -1.0165 -0.3204
   19SAPS   H4X 2483   1.595   1.278   3.845 -1.1446  2.4301  1.5348
   19SAPS   H4Y 2484   1.659   1.440   3.834  2.4106  0.1113 -2.2068
   19SAPS   C35 2485   1.815   1.288   3.792 -0.1521  0.5431 -0.3103
   19SAPS   H5X 2486   1.878   1.352   3.727  0.1986  0.5129 -0.0040
   19SAPS   H5Y 2487   1.819   1.184   3.752  2.8328  0.1970  0.6098
   19SAPS   C36 2488   1.877   1.285   3.935  0.3831  0.3619 -0.0213
   19SAPS   H6X 2489   1.977   1.236   3.941  0.1765  0.1159  2.4354
   19SAPS   H6Y 2490   1.812   1.226   4.002  3.2825 -2.4052  0.5804
   19SAPS   C37 2491   1.917   1.413   3.992 -0.0349 -0.1082 -0.0210
   19SAPS   H7X 2492   1.823   1.467   4.015 -0.4028 -0.6495 -0.2382
   19SAPS   H7Y 2493   1.965   1.466   3.907 -2.4151  2.1795 -0.0486
   19SAPS   C38 2494   2.024   1.405   4.110  0.6163 -1.0080 -0.3195
   19SAPS   H8X 2495   2.052   1.509   4.141  0.3087 -1.1951  0.6288
   19SAPS   H8Y 2496   2.118   1.372   4.061  1.7587  1.0138  0.3865
   19SAPS   C39 2497   1.991   1.313   4.230  0.0943  0.1999 -0.2351
   19SAPS   H9X 2498   2.023   1.208   4.216 -0.1196  0.0034  0.6986
   19SAPS   H9Y 2499   1.882   1.321   4.254  0.0457  0.4282 -0.5183
   19SAPS  C310 2500   2.054   1.371   4.360  0.0694 -0.5854  0.9996
   19SAPS  H10X 2501   2.051   1.481   4.341  2.3424 -0.9833 -2.6863
   19SAPS  H10Y 2502   2.158   1.332   4.363  0.9740  1.1897 -2.2810
   19SAPS  C311 2503   1.985   1.344   4.490 -0.3606  0.6448  0.1257
   19SAPS  H11X 2504   2.023   1.247   4.528 -1.4853  0.6617  1.3681
   19SAPS  H11Y 2505   1.874   1.350   4.482 -0.3194  0.4343 -0.8016
   19SAPS  C312 2506   2.017   1.456   4.594  0.4178 -0.1453 -0.4704
   19SAPS  H12X 2507   1.978   1.548   4.546  0.4796 -0.5685 -1.3556
   19SAPS  H12Y 2508   2.127   1.468   4.610  0.3081  1.6432 -0.7780
   19SAPS  C313 2509   1.937   1.438   4.713 -0.1969 -0.1643  0.2862
   19SAPS  H13X 2510   1.831   1.453   4.684  0.5438  1.9564 -1.6396
   19SAPS  H13Y 2511   1.965   1.513   4.790 -0.5646 -0.1714  0.4274
   19SAPS  C314 2512   1.946   1.304   4.792 -0.1124  0.5834  0.0273
   19SAPS  H14X 2513   1.876   1.234   4.742 -1.8769  1.3029  1.3815
   19SAPS  H14Y 2514   1.890   1.324   4.886 -1.2943 -0.5050 -0.4185
   19SAPS  C315 2515   2.085   1.263   4.818  0.2847  0.5579  0.2211
   19SAPS  H15X 2516   2.115   1.346   4.886  1.4284  0.2360  0.1351
   19SAPS  H15Y 2517   2.155   1.260   4.732  0.0458 -0.9656  0.0518
   19SAPS  C316 2518   2.113   1.132   4.890  0.8792  0.4627 -0.9189
   19SAPS  H16X 2519   2.065   1.143   4.990  2.3748  2.6683 -0.3644
   19SAPS  H16Y 2520   2.220   1.112   4.908  0.7438 -0.1645 -0.7660
   19SAPS  C317 2521   2.042   1.007   4.827  0.6691 -0.0775  0.2602
   19SAPS  H17X 2522   2.066   1.019   4.719 -3.0298  1.5307 -0.5566
   19SAPS  H17Y 2523   1.931   1.016   4.829  0.6125 -0.3611 -0.8680
   19SAPS  C318 2524   2.103   0.875   4.863  0.3343  1.3987 -0.3290
   19SAPS  H18X 2525   2.214   0.880   4.866  0.4785  0.1889 -2.0972
   19SAPS  H18Y 2526   2.087   0.799   4.783 -1.0921  1.6403 -0.3106
   19SAPS  H18Z 2527   2.061   0.830   4.956  0.7722 -1.0740 -1.2577
   20SAPS     N 2528   1.969   6.503   2.916  0.1637 -0.9414 -0.1302
   20SAPS   HN1 2529   1.986   6.595   2.870 -1.0194 -1.0835 -0.8962
   20SAPS   HN2 2530   1.943   6.511   3.016 -0.8772  1.3731 -0.5150
   20SAPS   HN3 2531   2.059   6.452   2.917  0.9914  0.4447  1.4915
   20SAPS   C12 2532   1.864   6.425   2.844  0.7841 -0.6709 -0.2054
   20SAPS  H12A 2533   1.780   6.492   2.835  0.6245 -0.6740  1.1113
   20SAPS   C13 2534   1.895   6.394   2.698  0.6855 -0.2876  0.5148
   20SAPS  O13A 2535   1.992   6.445   2.646  0.7196  0.2955 -0.4430
   20SAPS  O13B 2536   1.797   6.343   2.633 -0.2699  0.2744 -0.1494
   20SAPS   C11 2537   1.827   6.289   2.906  0.6041  0.3430  0.2725
   20SAPS  H11A 2538   1.920   6.228   2.906  0.4468  0.0804 -0.8666
   20SAPS  H11B 2539   1.748   6.240   2.845  0.3650  1.1726 -0.0920
   20SAPS     P 2540   1.655   6.379   3.090  0.1981 -0.3517  0.4264
   20SAPS   O13 2541   1.667   6.522   3.050  0.0505 -0.3787  0.0376
   20SAPS   O14 2542   1.546   6.297   3.040  0.2888  0.3835 -0.1269
   20SAPS   O12 2543   1.796   6.306   3.045  0.8402 -0.4121 -0.5920
   20SAPS   O11 2544   1.662   6.377   3.246 -0.2053 -0.0149 -0.0832
   20SAPS    C1 2545   1.782   6.329   3.309  0.3146 -0.7090 -1.2144
   20SAPS    HA 2546   1.876   6.365   3.264  1.2505 -1.6634 -0.0868
   20SAPS    HB 2547   1.788   6.369   3.412 -0.3220  0.4495 -1.6093
   20SAPS    C2 2548   1.795   6.176   3.324  0.1214  0.8992  0.2600
   20SAPS    HS 2549   1.794   6.131   3.222 -0.6293  3.3988 -0.9284
   20SAPS   O21 2550   1.678   6.124   3.390 -0.0572 -0.6187  0.3617
   20SAPS   C21 2551   1.677   5.992   3.398  0.0620  0.1275 -0.2963
   20SAPS   O22 2552   1.740   5.914   3.331  0.5771 -0.0685 -0.0341
   20SAPS   C22 2553   1.599   5.950   3.521  0.0791  0.2073  0.7915
   20SAPS   H2R 2554   1.515   6.022   3.527 -0.5698 -0.4472 -0.1833
   20SAPS   H2S 2555   1.554   5.849   3.505  0.7513 -0.1851  1.2915
   20SAPS    C3 2556   1.931   6.136   3.382 -0.5030  0.0033 -0.6437
   20SAPS    HX 2557   2.015   6.173   3.319  1.0959 -0.1211  1.3276
   20SAPS    HY 2558   1.945   6.026   3.377  0.0819  0.0789 -0.7105
   20SAPS   O31 2559   1.927   6.191   3.512  0.3268 -0.1555  0.1164
   20SAPS   C31 2560   2.036   6.156   3.580  0.0764 -0.5887  1.1278
   20SAPS   O32 2561   2.134   6.100   3.533 -0.6072 -0.2613  0.4171
   20SAPS   C32 2562   2.024   6.190   3.728 -0.3052  0.6753 -0.1372
   20SAPS   H2X 2563   1.916   6.182   3.754 -0.3211 -1.6374 -0.7687
   20SAPS   H2Y 2564   2.061   6.293   3.749 -0.1697  0.4767  0.5882
   20SAPS   C23 2565   1.688   5.938   3.647 -0.7019 -0.1281 -0.5320
   20SAPS   H3R 2566   1.749   6.029   3.667 -1.4369  0.4020 -0.6873
   20SAPS   H3S 2567   1.766   5.861   3.628  2.7650  2.8599  0.4622
   20SAPS   C24 2568   1.618   5.874   3.769  0.2586 -0.6508  0.6372
   20SAPS   H4R 2569   1.703   5.851   3.836  1.2266  0.2046 -0.2587
   20SAPS   H4S 2570   1.563   5.788   3.724  1.3935 -0.9756 -0.1789
   20SAPS   C25 2571   1.521   5.975   3.828 -0.7595 -0.4569  0.2598
   20SAPS   H5R 2572   1.514   6.067   3.768  0.0867  0.2213  1.1696
   20SAPS   C26 2573   1.448   5.960   3.938  0.2811  0.2195  0.1466
   20SAPS   H6R 2574   1.373   6.033   3.969 -1.4200 -0.6882 -1.5714
   20SAPS   C27 2575   1.437   5.836   4.022 -0.4214  0.4239  1.0183
   20SAPS   H7R 2576   1.491   5.755   3.969 -0.0751  1.6672 -0.5964
   20SAPS   H7S 2577   1.332   5.803   4.040 -0.5642  0.6163  0.5669
   20SAPS   C28 2578   1.514   5.843   4.151  0.4462  0.4143  0.4460
   20SAPS   H8R 2579   1.613   5.794   4.146  0.4653  0.1073  2.7446
   20SAPS   C29 2580   1.481   5.898   4.269 -0.1362 -0.0972  0.8136
   20SAPS   H9R 2581   1.547   5.892   4.357  0.6105 -2.3180  0.1666
   20SAPS  C210 2582   1.347   5.960   4.303 -0.8501  0.5694  0.5389
   20SAPS  H10R 2583   1.280   5.871   4.301  0.3577 -0.3668  0.6078
   20SAPS  H10S 2584   1.306   6.018   4.217 -0.3535  1.2632  0.7656
   20SAPS  C211 2585   1.336   6.031   4.433  0.1738  0.0719 -0.3551
   20SAPS  H11R 2586   1.300   5.974   4.521  1.5280  0.8886  0.7584
   20SAPS  C212 2587   1.356   6.164   4.446 -0.3399  0.6675  0.5603
   20SAPS  H12R 2588   1.346   6.208   4.546 -1.2335  0.6662  0.4767
   20SAPS  C213 2589   1.383   6.264   4.336  0.2237  0.1345  0.1654
   20SAPS  H13R 2590   1.432   6.210   4.252  1.2763  0.9589  0.2385
   20SAPS  H13S 2591   1.470   6.322   4.372  1.6424 -1.7442 -0.0901
   20SAPS  C214 2592   1.262   6.337   4.282  0.2914 -0.1021  0.6503
   20SAPS  H14R 2593   1.168   6.347   4.338  1.2796  0.2815  2.2798
   20SAPS  C215 2594   1.266   6.404   4.161  0.3489  0.4223 -0.6057
   20SAPS  H15R 2595   1.171   6.447   4.126 -0.4990 -1.0415 -0.1902
   20SAPS  C216 2596   1.377   6.418   4.063 -0.2862 -0.0278 -0.0081
   20SAPS  H16R 2597   1.463   6.358   4.100  0.2203 -1.9565 -3.7784
   20SAPS  H16S 2598   1.412   6.521   4.038 -2.4845  0.8805  0.4796
   20SAPS  C217 2599   1.347   6.341   3.935  0.8809 -0.8154 -0.5773
   20SAPS  H17R 2600   1.239   6.349   3.908 -0.2644 -1.9143  3.0237
   20SAPS  H17S 2601   1.342   6.235   3.967 -0.6272 -0.6553 -0.1751
   20SAPS  C218 2602   1.437   6.365   3.807 -0.2460  0.1547 -0.0174
   20SAPS  H18R 2603   1.426   6.470   3.772 -0.4735 -1.0153 -3.9963
   20SAPS  H18S 2604   1.391   6.302   3.727  1.2033 -0.4446 -0.4042
   20SAPS  C219 2605   1.589   6.336   3.821 -0.6078 -0.3447 -0.1222
   20SAPS  H19R 2606   1.596   6.249   3.890 -0.8132 -2.2816 -2.4201
   20SAPS  H19S 2607   1.631   6.429   3.865  1.4199 -1.0824 -0.3660
   20SAPS  C220 2608   1.653   6.313   3.689 -0.6482 -0.3868  0.1033
   20SAPS  H20R 2609   1.619   6.219   3.641 -0.6854  0.7898 -2.3716
   20SAPS  H20S 2610   1.764   6.310   3.692 -0.6568 -0.7133  0.1242
   20SAPS  H20T 2611   1.629   6.393   3.615 -1.4256  0.3979  1.1683
   20SAPS   C33 2612   2.100   6.086   3.825  0.1136 -0.4393 -0.5374
   20SAPS   H3X 2613   2.205   6.104   3.796 -0.1283  1.3292 -0.4654
   20SAPS   H3Y 2614   2.072   5.980   3.806  0.6516 -0.0661 -4.1176
   20SAPS   C34 2615   2.085   6.117   3.975  0.5101  0.2967 -0.0252
   20SAPS   H4X 2616   2.113   6.222   3.998 -0.5372  0.4484  0.5993
   20SAPS   H4Y 2617   2.158   6.063   4.039 -0.5423  0.2388  1.1509
   20SAPS   C35 2618   1.944   6.109   4.029  0.2498  0.5542  0.4403
   20SAPS   H5X 2619   1.898   6.010   4.007  0.9551 -0.2087  2.2332
   20SAPS   H5Y 2620   1.885   6.193   3.986 -0.9255  0.4469  1.7732
   20SAPS   C36 2621   1.950   6.129   4.184 -0.2471 -0.2355  0.4926
   20SAPS   H6X 2622   1.986   6.234   4.195  0.6891 -0.3971 -0.7971
   20SAPS   H6Y 2623   2.017   6.063   4.242  0.4865  1.0240  1.1196
   20SAPS   C37 2624   1.812   6.101   4.249  0.3914 -0.0996  0.8417
   20SAPS   H7X 2625   1.808   5.991   4.262 -0.3664 -0.2184 -0.3272
   20SAPS   H7Y 2626   1.728   6.131   4.184  1.6696 -1.1883 -1.4325
   20SAPS   C38 2627   1.802   6.181   4.382 -0.1744  0.1520 -0.0987
   20SAPS   H8X 2628   1.698   6.167   4.418 -0.5921 -1.5981 -1.8101
   20SAPS   H8Y 2629   1.812   6.288   4.355  2.8104  0.0620  0.2560
   20SAPS   C39 2630   1.912   6.160   4.486  0.1135 -1.0212  0.3876
   20SAPS   H9X 2631   2.010   6.209   4.468 -0.7683  0.8991  0.6025
   20SAPS   H9Y 2632   1.940   6.052   4.491  2.0651 -0.5333  0.5609
   20SAPS  C310 2633   1.865   6.186   4.633  0.0051 -0.2569  0.2070
   20SAPS  H10X 2634   1.780   6.258   4.638 -0.1098 -0.4039  0.3367
   20SAPS  H10Y 2635   1.952   6.218   4.694 -2.9944  3.7441  2.9207
   20SAPS  C311 2636   1.812   6.053   4.695 -0.2634  0.2770 -0.0843
   20SAPS  H11X 2637   1.895   5.981   4.707  0.0825  0.5701 -0.6688
   20SAPS  H11Y 2638   1.738   6.004   4.629 -0.0417  0.4180 -0.4393
   20SAPS  C312 2639   1.743   6.074   4.826 -0.5058 -0.0025 -0.0549
   20SAPS  H12X 2640   1.656   6.139   4.797  0.3168  0.7258 -0.9703
   20SAPS  H12Y 2641   1.812   6.124   4.898  0.0506 -1.4018  0.4006
   20SAPS  C313 2642   1.690   5.946   4.892  0.1182 -0.1982 -0.2721
   20SAPS  H13X 2643   1.783   5.886   4.883  0.2929  0.1109 -0.5166
   20SAPS  H13Y 2644   1.626   5.895   4.817  0.8749  1.0020 -1.7659
   20SAPS  C314 2645   1.640   5.956   5.036 -0.1666 -0.1101 -0.1789
   20SAPS  H14X 2646   1.550   6.020   5.025 -0.9535 -1.2375 -0.3329
   20SAPS  H14Y 2647   1.709   6.010   5.106 -0.2483  0.8212 -0.7939
   20SAPS  C315 2648   1.605   5.820   5.097 -0.1185  0.2825  0.5408
   20SAPS  H15X 2649   1.686   5.766   5.150  0.0398  0.2073  0.2234
   20SAPS  H15Y 2650   1.561   5.756   5.018 -4.1112  2.8635  0.3423
   20SAPS  C316 2651   1.488   5.835   5.193 -0.0801  0.5369 -0.6060
   20SAPS  H16X 2652   1.397   5.883   5.150 -0.5403  1.4151  1.2446
   20SAPS  H16Y 2653   1.522   5.905   5.273  0.4218 -0.4966  0.1096
   20SAPS  C317 2654   1.453   5.706   5.263  1.4535  0.5001 -0.1246
   20SAPS  H17X 2655   1.493   5.719   5.366 -0.7155 -0.2455  0.8745
   20SAPS  H17Y 2656   1.495   5.616   5.213 -1.6136  0.1833 -2.4314
   20SAPS  C318 2657   1.303   5.680   5.276 -0.3026  0.3559 -0.3930
   20SAPS  H18X 2658   1.256   5.664   5.177  2.6520 -1.0546 -1.6717
   20SAPS  H18Y 2659   1.248   5.769   5.315 -0.0236  1.4845 -2.4228
   20SAPS  H18Z 2660   1.275   5.592   5.338  1.5411 -0.5747 -0.8215
   21CHL1    C3 2661   3.472   3.020   6.570  0.2448 -0.0614 -0.9542
   21CHL1    H3 2662   3.535   3.107   6.599  1.0957 -0.9113 -0.1998
   21CHL1    O3 2663   3.429   2.967   6.696 -0.2937 -0.1516  0.0859
   21CHL1   H3' 2664   3.333   2.962   6.691 -0.2888  0.3204 -0.6989
   21CHL1    C4 2665   3.346   3.066   6.499 -0.7225  0.1188 -0.1897
   21CHL1   H4A 2666   3.267   2.989   6.505 -0.3049 -0.2459  0.9474
   21CHL1   H4B 2667   3.306   3.155   6.552  0.7466  0.7720 -0.1142
   21CHL1    C5 2668   3.374   3.099   6.353 -0.1664  0.3889 -0.5364
   21CHL1    C6 2669   3.330   3.217   6.295  0.2628  0.4940 -0.2890
   21CHL1    H6 2670   3.257   3.278   6.352  1.3322  1.0411  0.5511
   21CHL1    C7 2671   3.362   3.264   6.160 -0.2147  0.3642 -0.2700
   21CHL1   H7A 2672   3.267   3.308   6.123 -0.2727  0.0151 -0.5405
   21CHL1   H7B 2673   3.440   3.342   6.154  1.3274 -1.1376 -0.4319
   21CHL1    C8 2674   3.402   3.140   6.072 -0.3086  0.4367 -0.0489
   21CHL1    H8 2675   3.308   3.084   6.053 -0.1820  0.1464  0.1773
   21CHL1   C14 2676   3.441   3.185   5.931 -0.5992 -0.1431 -0.4694
   21CHL1   H14 2677   3.522   3.259   5.947 -0.4383 -0.4683  0.2572
   21CHL1   C15 2678   3.350   3.265   5.842 -0.8504  0.0279  0.3597
   21CHL1  H15A 2679   3.245   3.227   5.835 -2.2601  3.7688 -3.8552
   21CHL1  H15B 2680   3.340   3.372   5.869 -1.6397 -0.1475  0.8017
   21CHL1   C16 2681   3.417   3.263   5.703 -0.4171  0.2452  0.2417
   21CHL1  H16A 2682   3.334   3.244   5.632 -2.3485  0.8647  2.1883
   21CHL1  H16B 2683   3.461   3.363   5.687  1.1170 -0.5212 -0.5248
   21CHL1   C17 2684   3.523   3.148   5.705  0.5254 -0.8400 -0.0300
   21CHL1   H17 2685   3.623   3.197   5.714  0.2518 -0.4427  0.9959
   21CHL1   C13 2686   3.498   3.078   5.841  0.2540  0.5691  0.6565
   21CHL1   C18 2687   3.376   2.977   5.808 -0.2830  0.1478 -0.3873
   21CHL1  H18A 2688   3.289   3.032   5.768 -0.2519 -0.5905 -1.5315
   21CHL1  H18B 2689   3.412   2.904   5.732  1.4215 -1.4155  1.7716
   21CHL1  H18C 2690   3.347   2.934   5.906 -1.4143 -3.1124 -1.9922
   21CHL1   C12 2691   3.627   3.015   5.895  0.3411 -0.6615 -0.0748
   21CHL1  H12A 2692   3.671   2.931   5.836 -0.1055 -0.7006 -0.3574
   21CHL1  H12B 2693   3.701   3.095   5.913 -1.7557  0.7245  3.2942
   21CHL1   C11 2694   3.598   2.971   6.037 -0.0300 -0.2348  0.2079
   21CHL1  H11A 2695   3.525   2.889   6.022  0.9561 -1.2776  0.9521
   21CHL1  H11B 2696   3.694   2.933   6.076  0.3516  1.4558  1.0158
   21CHL1    C9 2697   3.520   3.064   6.135  0.0328  0.1423  0.9373
   21CHL1    H9 2698   3.593   3.143   6.164  0.1157  0.6880 -0.6377
   21CHL1   C10 2699   3.472   3.005   6.272  0.3513 -0.9956 -0.1135
   21CHL1   C19 2700   3.384   2.879   6.250  0.0964  0.4218 -0.2844
   21CHL1  H19A 2701   3.453   2.810   6.199  2.4096  3.4037 -1.4863
   21CHL1  H19B 2702   3.332   2.827   6.333  1.8486  0.1111  0.6648
   21CHL1  H19C 2703   3.309   2.898   6.170 -0.0651 -2.1208 -0.8151
   21CHL1    C1 2704   3.594   2.980   6.356 -0.5090  0.9111 -0.0169
   21CHL1   H1A 2705   3.659   2.905   6.306 -1.6549 -1.8180  2.3732
   21CHL1   H1B 2706   3.647   3.077   6.373 -0.0207  0.3634  1.7493
   21CHL1    C2 2707   3.563   2.921   6.492  0.0324 -0.0426 -0.4239
   21CHL1   H2A 2708   3.665   2.905   6.533  0.0857 -1.5760 -1.0744
   21CHL1   H2B 2709   3.513   2.824   6.474  1.2297 -0.6499 -0.5436
   21CHL1   C20 2710   3.541   3.073   5.563  0.3850 -1.0760  0.3725
   21CHL1   H20 2711   3.439   3.044   5.530  0.2960 -1.6912  1.1448
   21CHL1   C21 2712   3.641   2.954   5.565  0.4922 -0.1344  0.5736
   21CHL1  H21A 2713   3.635   2.912   5.462 -0.0421  1.4522 -0.0737
   21CHL1  H21B 2714   3.615   2.875   5.638  1.9582 -0.9463  0.2532
   21CHL1  H21C 2715   3.742   2.989   5.596  0.4379  0.7352 -0.1755
   21CHL1   C22 2716   3.590   3.181   5.459 -0.6911  0.1603 -0.0282
   21CHL1  H22A 2717   3.545   3.280   5.481 -0.0743  0.0005  2.1344
   21CHL1  H22B 2718   3.697   3.192   5.485 -0.7374 -0.0878  0.2616
   21CHL1   C23 2719   3.570   3.139   5.311 -0.3401 -0.5256 -0.0270
   21CHL1  H23A 2720   3.650   3.204   5.269 -1.0180  0.4566  0.1656
   21CHL1  H23B 2721   3.598   3.033   5.294 -0.7498 -0.2376 -3.0610
   21CHL1   C24 2722   3.436   3.170   5.239  0.8104  0.1653  0.8766
   21CHL1  H24A 2723   3.357   3.162   5.316  1.3008 -1.0356  1.2711
   21CHL1  H24B 2724   3.437   3.272   5.194 -0.3833 -0.9673 -1.9994
   21CHL1   C25 2725   3.403   3.084   5.112 -0.5992  0.6642  0.0531
   21CHL1   H25 2726   3.384   2.979   5.145 -1.0768  0.8223  0.2855
   21CHL1   C26 2727   3.272   3.122   5.043 -0.0015 -0.2255 -0.0461
   21CHL1  H26A 2728   3.230   3.045   4.975 -1.3929 -2.3047  2.9817
   21CHL1  H26B 2729   3.196   3.144   5.120  1.4447  2.7818  0.6758
   21CHL1  H26C 2730   3.287   3.221   4.995  0.5524  2.7104  5.3950
   21CHL1   C27 2731   3.518   3.082   5.010 -0.4376 -0.0162  0.7364
   21CHL1  H27A 2732   3.560   3.185   5.008 -0.2451 -0.0468  2.2276
   21CHL1  H27B 2733   3.605   3.017   5.029  1.5103  2.1530 -0.3033
   21CHL1  H27C 2734   3.468   3.059   4.913 -0.1362 -1.2400  0.8474
   22CHL1    C3 2735   5.901   6.374   6.574 -0.0046 -0.6892  0.5676
   22CHL1    H3 2736   5.828   6.457   6.585 -1.0899 -1.6064  0.4699
   22CHL1    O3 2737   5.921   6.323   6.707  0.4124 -0.5424  0.2005
   22CHL1   H3' 2738   6.011   6.291   6.713  1.4324  2.2946  2.0096
   22CHL1    C4 2739   5.849   6.270   6.477  0.0714 -1.1136  0.3282
   22CHL1   H4A 2740   5.908   6.177   6.485 -1.0152 -1.8852 -0.3006
   22CHL1   H4B 2741   5.748   6.238   6.514 -0.9336  2.2750  0.8447
   22CHL1    C5 2742   5.846   6.316   6.333  0.0240  0.2793  0.3898
   22CHL1    C6 2743   5.737   6.301   6.254 -0.2733  0.5267  0.4939
   22CHL1    H6 2744   5.643   6.257   6.290 -0.7966  0.5345 -0.7894
   22CHL1    C7 2745   5.726   6.345   6.107  0.1070  0.5968  0.1790
   22CHL1   H7A 2746   5.688   6.267   6.037 -0.3471  0.7079  0.2950
   22CHL1   H7B 2747   5.677   6.444   6.091 -0.2197  0.8297  2.3597
   22CHL1    C8 2748   5.871   6.377   6.048  0.0737  0.5539  0.5855
   22CHL1    H8 2749   5.922   6.279   6.036 -0.6685  0.4859 -3.4037
   22CHL1   C14 2750   5.861   6.451   5.914  0.8633  0.1323  0.6098
   22CHL1   H14 2751   5.811   6.545   5.945 -0.0152 -0.2456  0.3644
   22CHL1   C15 2752   5.764   6.388   5.800 -0.5627 -0.7934 -0.0008
   22CHL1  H15A 2753   5.767   6.277   5.807  4.5122 -0.8432  0.7434
   22CHL1  H15B 2754   5.665   6.438   5.806 -1.4626 -2.6273  1.4824
   22CHL1   C16 2755   5.835   6.436   5.668 -0.4018  0.6188 -0.3431
   22CHL1  H16A 2756   5.891   6.355   5.617 -2.3814 -0.7990 -0.3769
   22CHL1  H16B 2757   5.758   6.471   5.596 -0.0003  0.5881 -0.7968
   22CHL1   C17 2758   5.932   6.549   5.717 -0.6516 -0.4639  0.4908
   22CHL1   H17 2759   5.870   6.640   5.735 -1.9235 -1.1321 -0.3841
   22CHL1   C13 2760   5.989   6.488   5.846 -0.3969 -0.2605 -1.0700
   22CHL1   C18 2761   6.069   6.362   5.821 -0.5834  0.7688  0.1153
   22CHL1  H18A 2762   6.035   6.298   5.737  0.9364 -0.1546  0.1603
   22CHL1  H18B 2763   6.177   6.382   5.810  0.2674 -2.4169  1.4761
   22CHL1  H18C 2764   6.065   6.286   5.902 -1.7182 -0.6263 -1.1658
   22CHL1   C12 2765   6.067   6.579   5.944  0.1676 -0.4264  0.7338
   22CHL1  H12A 2766   6.168   6.600   5.901  0.4282  0.3789  1.6904
   22CHL1  H12B 2767   6.016   6.676   5.960 -0.1308 -0.6845  1.3742
   22CHL1   C11 2768   6.084   6.518   6.082  0.2039  0.2007  0.1133
   22CHL1  H11A 2769   6.156   6.434   6.071  0.1164  0.1916 -0.3941
   22CHL1  H11B 2770   6.138   6.599   6.136  1.4975 -0.0184 -0.7908
   22CHL1    C9 2771   5.954   6.466   6.147  0.4417  0.4254 -0.8585
   22CHL1    H9 2772   5.906   6.561   6.180 -0.2752 -0.1810 -0.1277
   22CHL1   C10 2773   5.976   6.383   6.281  0.0171  0.0357  0.2467
   22CHL1   C19 2774   6.084   6.274   6.276 -0.0559 -0.8240 -0.1496
   22CHL1  H19A 2775   6.068   6.212   6.185 -1.4199 -2.2241  1.0079
   22CHL1  H19B 2776   6.183   6.324   6.272 -0.6378  0.3597 -0.6327
   22CHL1  H19C 2777   6.095   6.205   6.362  3.3424  0.3441  0.4858
   22CHL1    C1 2778   6.019   6.492   6.386  0.1899  0.1690  0.6418
   22CHL1   H1A 2779   6.115   6.541   6.359 -0.1446  1.0109  0.9584
   22CHL1   H1B 2780   5.942   6.573   6.385  0.8727  0.8370 -1.2861
   22CHL1    C2 2781   6.031   6.439   6.524  0.6741 -0.2738 -0.2694
   22CHL1   H2A 2782   6.054   6.529   6.584  0.1454 -0.1983 -0.1738
   22CHL1   H2B 2783   6.111   6.362   6.536  1.4214  0.6949  1.2631
   22CHL1   C20 2784   6.031   6.580   5.603 -0.7440 -0.3300 -0.0520
   22CHL1   H20 2785   6.107   6.499   5.601  0.4045  0.7403 -0.2828
   22CHL1   C21 2786   6.093   6.715   5.640 -0.6064  0.0947  0.2395
   22CHL1  H21A 2787   6.154   6.709   5.732  0.0809  0.3028 -0.1947
   22CHL1  H21B 2788   6.014   6.794   5.644  0.3016  1.0351 -0.0241
   22CHL1  H21C 2789   6.157   6.746   5.555 -0.7004  0.4626  0.3005
   22CHL1   C22 2790   5.964   6.592   5.466  0.4444 -0.2300 -0.4630
   22CHL1  H22A 2791   5.926   6.494   5.430  0.7034 -0.8473  0.8758
   22CHL1  H22B 2792   5.878   6.663   5.473 -0.6118 -1.5716  0.8573
   22CHL1   C23 2793   6.057   6.637   5.343  0.4818 -0.4389 -0.4167
   22CHL1  H23A 2794   5.993   6.639   5.253 -0.4414 -1.2074  0.2064
   22CHL1  H23B 2795   6.103   6.738   5.351  2.0751 -1.1466 -0.1217
   22CHL1   C24 2796   6.176   6.544   5.329  0.3595 -0.1716  0.6912
   22CHL1  H24A 2797   6.234   6.580   5.241 -0.3043 -2.3791 -0.7183
   22CHL1  H24B 2798   6.235   6.558   5.423 -1.2791 -0.0587  1.7404
   22CHL1   C25 2799   6.136   6.394   5.311  0.7505 -0.2013  0.0770
   22CHL1   H25 2800   6.096   6.360   5.408  1.6052 -1.3891  0.0365
   22CHL1   C26 2801   6.048   6.374   5.196 -0.1938 -0.4148  0.6703
   22CHL1  H26A 2802   6.093   6.415   5.103 -0.7019 -2.1147 -0.3729
   22CHL1  H26B 2803   6.022   6.266   5.188 -0.1657 -0.3748 -0.0114
   22CHL1  H26C 2804   5.942   6.409   5.202 -0.1165 -0.0569  0.0566
   22CHL1   C27 2805   6.263   6.307   5.293 -0.5362 -0.3914  0.5030
   22CHL1  H27A 2806   6.245   6.198   5.279 -2.1497 -1.0643  5.6325
   22CHL1  H27B 2807   6.335   6.355   5.224  0.9799  0.6650  2.6925
   22CHL1  H27C 2808   6.322   6.317   5.387 -4.1754  1.9671  2.8323
   23CHL1    C3 2809   1.604   2.752   6.722 -0.9022 -0.2568  0.3885
   23CHL1    H3 2810   1.709   2.774   6.696 -0.1068 -2.1017  1.8159
   23CHL1    O3 2811   1.591   2.782   6.862 -0.8676  0.0376  0.1688
   23CHL1   H3' 2812   1.665   2.841   6.873 -0.5766 -0.1803 -0.5928
   23CHL1    C4 2813   1.513   2.849   6.647  0.2311  0.2055 -0.0328
   23CHL1   H4A 2814   1.412   2.824   6.685  0.5548  1.6729  1.9262
   23CHL1   H4B 2815   1.543   2.952   6.676  1.5154 -0.1214 -0.1418
   23CHL1    C5 2816   1.509   2.830   6.500  1.0859 -0.7324 -0.2860
   23CHL1    C6 2817   1.534   2.933   6.413 -0.0005  0.4998  0.3449
   23CHL1    H6 2818   1.579   3.025   6.452  3.4887 -1.0253  0.2710
   23CHL1    C7 2819   1.515   2.924   6.265 -0.3844 -0.0081  0.7944
   23CHL1   H7A 2820   1.450   3.004   6.224  2.7820  1.6459 -1.3883
   23CHL1   H7B 2821   1.618   2.948   6.230  1.1554 -1.3242  4.0121
   23CHL1    C8 2822   1.470   2.782   6.215 -0.8458 -0.4370 -0.7300
   23CHL1    H8 2823   1.360   2.784   6.204 -0.6255  0.7540 -3.3951
   23CHL1   C14 2824   1.526   2.761   6.065 -0.2588  0.1977 -0.5517
   23CHL1   H14 2825   1.636   2.758   6.076  0.0798  4.2417 -1.2439
   23CHL1   C15 2826   1.506   2.873   5.960  0.2093 -0.2230  0.3914
   23CHL1  H15A 2827   1.400   2.906   5.956  0.6465  1.3383  0.7888
   23CHL1  H15B 2828   1.565   2.966   5.976 -2.4771  1.9207 -1.1305
   23CHL1   C16 2829   1.555   2.804   5.835 -0.3820  0.6341  0.1567
   23CHL1  H16A 2830   1.500   2.848   5.749 -0.7669  2.2860  1.2048
   23CHL1  H16B 2831   1.660   2.836   5.817 -0.5840  0.1224 -2.4356
   23CHL1   C17 2832   1.538   2.647   5.858  0.2014 -0.0270  0.2593
   23CHL1   H17 2833   1.637   2.599   5.867 -0.4349 -1.3625  0.2934
   23CHL1   C13 2834   1.478   2.629   6.005  0.8564  0.1046  0.1130
   23CHL1   C18 2835   1.321   2.635   5.994  0.5361  0.4204  0.0635
   23CHL1  H18A 2836   1.270   2.636   6.093  4.3112 -0.8591  2.2265
   23CHL1  H18B 2837   1.310   2.725   5.929  1.9164  0.0507 -0.7138
   23CHL1  H18C 2838   1.276   2.549   5.940 -1.7744 -0.8412  3.6758
   23CHL1   C12 2839   1.528   2.513   6.091  0.3414 -0.4616 -0.5872
   23CHL1  H12A 2840   1.479   2.421   6.051 -0.1423  0.2566 -1.7061
   23CHL1  H12B 2841   1.639   2.511   6.084  0.3726 -0.8138 -0.0291
   23CHL1   C11 2842   1.493   2.528   6.236  0.3333 -0.9589 -0.0676
   23CHL1  H11A 2843   1.383   2.513   6.244  0.3289 -0.0898  2.2274
   23CHL1  H11B 2844   1.542   2.445   6.290  1.1067 -0.2553  0.3293
   23CHL1    C9 2845   1.526   2.668   6.299 -0.1693  0.3253  0.4924
   23CHL1    H9 2846   1.637   2.667   6.302 -0.1094  1.2702 -0.6446
   23CHL1   C10 2847   1.482   2.683   6.450 -0.4241 -0.1758 -0.3314
   23CHL1   C19 2848   1.334   2.650   6.463  0.2496  0.5949  0.3397
   23CHL1  H19A 2849   1.307   2.643   6.571 -0.5116 -2.1971  0.0438
   23CHL1  H19B 2850   1.270   2.728   6.419 -0.6810  0.5291  1.5259
   23CHL1  H19C 2851   1.305   2.551   6.421  1.9040  0.6187 -0.9578
   23CHL1    C1 2852   1.563   2.589   6.543  0.7187 -0.1507  0.0612
   23CHL1   H1A 2853   1.532   2.484   6.526  1.3004 -0.6688  1.9402
   23CHL1   H1B 2854   1.667   2.605   6.508  0.2897  2.1713 -0.3569
   23CHL1    C2 2855   1.559   2.614   6.694 -0.2019  0.2172  0.1254
   23CHL1   H2A 2856   1.622   2.546   6.755 -3.4259 -2.8633  0.2823
   23CHL1   H2B 2857   1.455   2.610   6.733 -0.7143  1.0844 -1.0802
   23CHL1   C20 2858   1.476   2.584   5.734  0.1216 -0.0110  0.0383
   23CHL1   H20 2859   1.370   2.612   5.721  0.6262  2.6656  0.9160
   23CHL1   C21 2860   1.478   2.432   5.755 -0.2890  0.0859 -0.5775
   23CHL1  H21A 2861   1.433   2.406   5.853  0.1289  0.7248 -0.2092
   23CHL1  H21B 2862   1.582   2.392   5.756 -1.1157 -2.1609  0.6091
   23CHL1  H21C 2863   1.417   2.382   5.677 -0.1543  0.3902 -0.8850
   23CHL1   C22 2864   1.558   2.611   5.603  0.4707 -0.6195 -0.1656
   23CHL1  H22A 2865   1.556   2.720   5.585  0.9739 -0.7687 -1.1486
   23CHL1  H22B 2866   1.661   2.570   5.601  0.3206 -0.9603 -2.1478
   23CHL1   C23 2867   1.484   2.565   5.472  0.2547 -0.0735  0.0862
   23CHL1  H23A 2868   1.504   2.456   5.461 -0.3680 -0.1885  0.0138
   23CHL1  H23B 2869   1.378   2.584   5.499  0.5667  0.6259  0.8575
   23CHL1   C24 2870   1.521   2.628   5.336  0.3174  0.3702 -1.1834
   23CHL1  H24A 2871   1.503   2.738   5.336 -2.7853  0.0385  1.8775
   23CHL1  H24B 2872   1.631   2.608   5.333  0.1049 -0.7889 -1.9208
   23CHL1   C25 2873   1.441   2.576   5.217  0.2018  0.1909 -0.1931
   23CHL1   H25 2874   1.502   2.619   5.135 -0.9085  0.6280 -0.8129
   23CHL1   C26 2875   1.445   2.427   5.186 -0.1991  0.7290 -0.6098
   23CHL1  H26A 2876   1.385   2.368   5.258  3.1584 -2.3495  0.0110
   23CHL1  H26B 2877   1.412   2.405   5.082  0.9522 -0.0103 -0.8412
   23CHL1  H26C 2878   1.548   2.387   5.199 -1.3017 -2.1538  0.0997
   23CHL1   C27 2879   1.296   2.625   5.222 -0.6788  0.6781  0.5784
   23CHL1  H27A 2880   1.240   2.588   5.311  0.0361  0.1535  0.8212
   23CHL1  H27B 2881   1.294   2.736   5.225  0.0248  0.7349 -0.6355
   23CHL1  H27C 2882   1.236   2.598   5.132  0.5663  1.4472 -0.5122
   24CHL1    C3 2883   5.133   1.342   6.630  0.2325 -0.4513 -0.6112
   24CHL1    H3 2884   5.174   1.239   6.632 -1.0804 -1.0810 -3.1347
   24CHL1    O3 2885   5.064   1.365   6.755  0.8676  0.1721  0.2424
   24CHL1   H3' 2886   5.033   1.455   6.747 -0.4272 -0.4079 -2.6476
   24CHL1    C4 2887   5.239   1.451   6.613 -0.6063  0.6119  0.2506
   24CHL1   H4A 2888   5.196   1.554   6.617 -0.3037  0.7103  1.3278
   24CHL1   H4B 2889   5.315   1.441   6.694 -0.5133 -2.6526 -0.1148
   24CHL1    C5 2890   5.300   1.437   6.473  0.4858  0.1667 -0.7672
   24CHL1    C6 2891   5.431   1.412   6.466 -0.9736  0.1724  0.0400
   24CHL1    H6 2892   5.490   1.402   6.558 -1.1632 -1.2664  0.0222
   24CHL1    C7 2893   5.507   1.388   6.333  0.0600  0.1282 -0.3794
   24CHL1   H7A 2894   5.608   1.436   6.339 -0.5542  1.2751  1.8705
   24CHL1   H7B 2895   5.533   1.280   6.329 -2.4499 -0.5660  0.3447
   24CHL1    C8 2896   5.427   1.430   6.212  0.0845  0.2137  0.4119
   24CHL1    H8 2897   5.420   1.540   6.202 -2.1546  0.1765  0.9501
   24CHL1   C14 2898   5.486   1.370   6.087 -0.1285 -0.3345  0.2823
   24CHL1   H14 2899   5.485   1.261   6.110 -0.2809 -0.3282  0.3098
   24CHL1   C15 2900   5.630   1.417   6.046 -0.2616 -0.2129  0.3333
   24CHL1  H15A 2901   5.643   1.527   6.037  0.8813 -0.4688 -1.7570
   24CHL1  H15B 2902   5.697   1.370   6.121  2.1743  0.3364 -1.3869
   24CHL1   C16 2903   5.656   1.351   5.912  0.0370  0.6959 -0.0626
   24CHL1  H16A 2904   5.705   1.424   5.845  0.7722 -1.7276 -2.3716
   24CHL1  H16B 2905   5.727   1.266   5.919 -1.1323 -0.2236  1.0427
   24CHL1   C17 2906   5.512   1.310   5.859 -0.6786  0.3293  0.0574
   24CHL1   H17 2907   5.500   1.201   5.877  1.7110 -0.2809 -1.5538
   24CHL1   C13 2908   5.411   1.382   5.960 -0.4097 -0.7923  0.7906
   24CHL1   C18 2909   5.402   1.536   5.919 -0.2021 -0.3022 -0.3289
   24CHL1  H18A 2910   5.496   1.572   5.871 -0.1864  0.4011  0.2149
   24CHL1  H18B 2911   5.313   1.538   5.853 -0.7613 -1.2994  0.3685
   24CHL1  H18C 2912   5.388   1.597   6.010  0.3010 -1.8366  0.8194
   24CHL1   C12 2913   5.265   1.319   5.978 -0.0319 -0.2018  0.1320
   24CHL1  H12A 2914   5.204   1.336   5.886 -0.5624  0.3053  0.5696
   24CHL1  H12B 2915   5.273   1.210   5.996 -0.0200 -0.1932  0.1775
   24CHL1   C11 2916   5.194   1.389   6.095 -0.1922  0.4607  0.7023
   24CHL1  H11A 2917   5.189   1.496   6.065  0.3826 -0.0049 -1.2121
   24CHL1  H11B 2918   5.092   1.346   6.098 -1.2140  1.7533 -4.4522
   24CHL1    C9 2919   5.280   1.376   6.222  0.6372 -0.2401 -0.2619
   24CHL1    H9 2920   5.293   1.267   6.235  2.2202 -0.0231  0.2303
   24CHL1   C10 2921   5.209   1.426   6.345  0.0880 -0.2240  0.4157
   24CHL1   C19 2922   5.161   1.566   6.313  0.2002 -0.8888  0.7612
   24CHL1  H19A 2923   5.240   1.618   6.255 -0.2137 -0.9976  0.0932
   24CHL1  H19B 2924   5.071   1.574   6.248  1.8948  0.1266 -1.6204
   24CHL1  H19C 2925   5.138   1.626   6.404  2.6630 -2.4379  2.5128
   24CHL1    C1 2926   5.103   1.324   6.381  0.1730  0.2037  0.5419
   24CHL1   H1A 2927   5.023   1.312   6.305  0.6838 -0.2998  0.0755
   24CHL1   H1B 2928   5.151   1.225   6.394 -1.1340 -0.2876  1.8057
   24CHL1    C2 2929   5.033   1.345   6.519  0.0459  0.4179 -0.2852
   24CHL1   H2A 2930   4.957   1.265   6.525 -0.3651  0.8414  0.2371
   24CHL1   H2B 2931   4.985   1.445   6.507 -0.0178  0.3055 -1.0668
   24CHL1   C20 2932   5.504   1.334   5.709  0.1483  0.1057  0.3260
   24CHL1   H20 2933   5.517   1.444   5.699 -0.7622  0.2039  0.0913
   24CHL1   C21 2934   5.368   1.299   5.655 -0.0954 -0.4866  0.1369
   24CHL1  H21A 2935   5.339   1.198   5.691 -2.1496  0.3429  0.9662
   24CHL1  H21B 2936   5.349   1.304   5.546  1.6623  1.4489 -0.1299
   24CHL1  H21C 2937   5.292   1.373   5.688 -1.0496 -1.8479  1.1214
   24CHL1   C22 2938   5.616   1.253   5.628 -0.0692  0.1098 -0.1298
   24CHL1  H22A 2939   5.706   1.256   5.693 -0.9181 -0.4335  1.1083
   24CHL1  H22B 2940   5.588   1.146   5.616  2.7139 -0.6338 -0.7462
   24CHL1   C23 2941   5.642   1.307   5.494  0.5333 -0.9577 -0.3930
   24CHL1  H23A 2942   5.557   1.305   5.423  1.7248  0.3045 -1.9332
   24CHL1  H23B 2943   5.661   1.416   5.502  1.7017 -1.0912 -1.1298
   24CHL1   C24 2944   5.770   1.242   5.437  0.1258 -0.0039 -0.1120
   24CHL1  H24A 2945   5.847   1.280   5.508 -1.1647 -0.3514  1.5348
   24CHL1  H24B 2946   5.762   1.132   5.438 -0.2376  0.0108  1.1012
   24CHL1   C25 2947   5.824   1.281   5.301 -0.3239  0.3382 -0.0232
   24CHL1   H25 2948   5.923   1.231   5.292 -1.3812 -1.5810 -1.9107
   24CHL1   C26 2949   5.759   1.225   5.177  0.1966 -0.0592 -0.3303
   24CHL1  H26A 2950   5.658   1.269   5.161  0.0625  0.0740  0.8239
   24CHL1  H26B 2951   5.821   1.249   5.088  1.4365 -3.6400 -0.5742
   24CHL1  H26C 2952   5.755   1.115   5.192 -0.4655 -0.1690 -1.1887
   24CHL1   C27 2953   5.844   1.439   5.294  0.0903 -0.6329 -0.4066
   24CHL1  H27A 2954   5.878   1.452   5.190  0.0079 -0.6835 -0.4393
   24CHL1  H27B 2955   5.748   1.494   5.311 -0.5337 -1.8243  0.0214
   24CHL1  H27C 2956   5.922   1.466   5.368 -0.6714 -0.9176  0.5295
   25CHL1    C3 2957   0.776   6.476   6.848 -0.3664 -0.2897  0.1726
   25CHL1    H3 2958   0.826   6.569   6.815 -1.2893  0.9750  2.1834
   25CHL1    O3 2959   0.789   6.467   6.990  0.0517  0.0318  0.1181
   25CHL1   H3' 2960   0.758   6.379   7.014 -1.1504  0.5683  0.5775
   25CHL1    C4 2961   0.628   6.481   6.788 -0.4968 -0.2169 -0.4244
   25CHL1   H4A 2962   0.572   6.395   6.830  1.6253 -1.4595  0.0174
   25CHL1   H4B 2963   0.577   6.567   6.835 -3.0265 -1.5778 -0.5031
   25CHL1    C5 2964   0.618   6.485   6.637  0.3406 -0.3692 -0.2523
   25CHL1    C6 2965   0.548   6.578   6.572  0.2282  0.1667 -0.0469
   25CHL1    H6 2966   0.503   6.659   6.631  1.9977 -0.9416  3.1093
   25CHL1    C7 2967   0.540   6.570   6.426  0.8578 -0.5620  0.4995
   25CHL1   H7A 2968   0.434   6.577   6.396  1.2427  1.3109 -0.5754
   25CHL1   H7B 2969   0.589   6.658   6.378 -0.7059 -0.9935 -2.0104
   25CHL1    C8 2970   0.595   6.454   6.352  0.0899 -0.2030  0.2875
   25CHL1    H8 2971   0.513   6.378   6.356 -0.4112  0.1961 -1.6311
   25CHL1   C14 2972   0.623   6.492   6.207 -0.4342  0.8967  0.3480
   25CHL1   H14 2973   0.695   6.576   6.213 -0.4931  0.8619  2.1015
   25CHL1   C15 2974   0.508   6.553   6.125 -0.3483  0.5783 -0.5126
   25CHL1  H15A 2975   0.417   6.489   6.136  0.6161 -0.9766 -1.2736
   25CHL1  H15B 2976   0.487   6.659   6.152 -2.7333 -0.0685  0.5270
   25CHL1   C16 2977   0.552   6.537   5.976  0.6119  0.9332 -0.0437
   25CHL1  H16A 2978   0.468   6.487   5.924  0.9455  1.1300 -0.7928
   25CHL1  H16B 2979   0.571   6.630   5.917  0.3486  1.3130  0.4612
   25CHL1   C17 2980   0.688   6.450   5.990  0.2045  0.3885 -0.6918
   25CHL1   H17 2981   0.779   6.513   5.984  0.7877 -0.0047  2.2959
   25CHL1   C13 2982   0.690   6.377   6.130 -0.2042  0.2835  0.1289
   25CHL1   C18 2983   0.598   6.252   6.120 -0.3237 -0.0006 -0.5439
   25CHL1  H18A 2984   0.496   6.273   6.082  0.3251  2.3679 -1.1282
   25CHL1  H18B 2985   0.632   6.162   6.064 -0.5629 -0.8729  0.6609
   25CHL1  H18C 2986   0.579   6.213   6.222 -2.6992  0.0161 -0.9284
   25CHL1   C12 2987   0.824   6.349   6.187 -0.5797 -0.0405  0.3466
   25CHL1  H12A 2988   0.886   6.274   6.133  0.6110  1.1399  0.0133
   25CHL1  H12B 2989   0.887   6.440   6.176  0.6519 -0.8986  0.0210
   25CHL1   C11 2990   0.804   6.304   6.333  0.1155  0.2817  0.0206
   25CHL1  H11A 2991   0.757   6.204   6.338  2.6338 -1.0573 -1.1068
   25CHL1  H11B 2992   0.898   6.296   6.393  0.0522 -0.2083  0.0550
   25CHL1    C9 2993   0.724   6.409   6.418 -0.8834 -0.5267 -0.0029
   25CHL1    H9 2994   0.778   6.505   6.429 -3.3261  0.9586 -0.2613
   25CHL1   C10 2995   0.703   6.380   6.568 -0.1914  0.1288  0.8450
   25CHL1   C19 2996   0.624   6.242   6.581  0.3413  0.2206 -0.2144
   25CHL1  H19A 2997   0.523   6.243   6.536 -0.6902 -2.7867  1.7603
   25CHL1  H19B 2998   0.684   6.158   6.540  2.6518  1.2124  0.9466
   25CHL1  H19C 2999   0.601   6.217   6.687 -1.3001 -0.3281 -0.6759
   25CHL1    C1 3000   0.843   6.367   6.640  0.6346  0.4285  0.2608
   25CHL1   H1A 3001   0.893   6.273   6.609  0.4721  0.4069  0.0599
   25CHL1   H1B 3002   0.906   6.456   6.621  3.1254 -1.1467  0.7537
   25CHL1    C2 3003   0.840   6.360   6.787  0.4122  0.5777 -0.0887
   25CHL1   H2A 3004   0.943   6.340   6.823  0.1061 -2.3008 -0.5907
   25CHL1   H2B 3005   0.796   6.260   6.809  0.9099  0.8833  2.7492
   25CHL1   C20 3006   0.701   6.361   5.865 -0.3267  0.1999  0.9710
   25CHL1   H20 3007   0.616   6.292   5.847 -0.2697  0.6505 -1.2642
   25CHL1   C21 3008   0.837   6.280   5.872  0.3081 -0.4446  0.2857
   25CHL1  H21A 3009   0.865   6.243   5.772  0.4371  0.3363  0.0225
   25CHL1  H21B 3010   0.822   6.186   5.930  0.0435 -1.5495 -1.5152
   25CHL1  H21C 3011   0.929   6.335   5.902  0.6055 -0.0475 -1.3040
   25CHL1   C22 3012   0.707   6.439   5.729  1.1399  0.6462  0.5649
   25CHL1  H22A 3013   0.624   6.512   5.737  0.3223 -0.1679 -0.1582
   25CHL1  H22B 3014   0.801   6.495   5.710  0.0299  1.9465 -1.4097
   25CHL1   C23 3015   0.667   6.350   5.611 -0.1401 -0.0648 -0.6011
   25CHL1  H23A 3016   0.732   6.260   5.609 -0.3563 -0.2840  0.8117
   25CHL1  H23B 3017   0.565   6.312   5.629 -0.1082  0.8263  1.8902
   25CHL1   C24 3018   0.668   6.433   5.483  0.6374 -0.8843 -0.4395
   25CHL1  H24A 3019   0.594   6.516   5.482  0.7033 -0.8221 -1.7149
   25CHL1  H24B 3020   0.769   6.477   5.472 -0.3099  1.4602 -0.2469
   25CHL1   C25 3021   0.649   6.347   5.352 -0.2612  0.2031  0.4294
   25CHL1   H25 3022   0.561   6.280   5.366 -0.3035 -0.1426 -1.2431
   25CHL1   C26 3023   0.609   6.429   5.230  0.2911  0.6749 -0.3177
   25CHL1  H26A 3024   0.500   6.444   5.247  0.3800 -0.3027  1.3383
   25CHL1  H26B 3025   0.664   6.523   5.209 -1.7110  1.7311 -1.0617
   25CHL1  H26C 3026   0.620   6.358   5.144 -0.8433  0.4495 -0.2896
   25CHL1   C27 3027   0.778   6.271   5.324 -0.2078  0.7856 -0.2007
   25CHL1  H27A 3028   0.869   6.332   5.307  1.6914 -0.9794  2.6403
   25CHL1  H27B 3029   0.793   6.209   5.416 -1.0279 -0.3152 -0.7840
   25CHL1  H27C 3030   0.771   6.196   5.242 -4.5846  0.0830  0.5843
   26CHL1    C3 3031   5.798   0.307   6.210  0.5837  1.0679  0.2977
   26CHL1    H3 3032   5.904   0.277   6.194  0.6235  1.6319 -0.5927
   26CHL1    O3 3033   5.774   0.351   6.342  0.1137  0.5772 -0.1697
   26CHL1   H3' 3034   5.799   0.279   6.400  1.0377  1.4532  0.5503
   26CHL1    C4 3035   5.753   0.417   6.103  0.3848  0.2203  0.1083
   26CHL1   H4A 3036   5.654   0.460   6.132 -0.0286  0.5459 -1.6695
   26CHL1   H4B 3037   5.825   0.499   6.119  0.2134  0.2937  0.5201
   26CHL1    C5 3038   5.735   0.367   5.957  0.6021  0.0848  0.0796
   26CHL1    C6 3039   5.812   0.411   5.856 -0.3452  0.4817 -0.1198
   26CHL1    H6 3040   5.875   0.500   5.871 -0.1367  0.0888  1.5543
   26CHL1    C7 3041   5.789   0.379   5.712 -0.3702 -0.0513  0.9150
   26CHL1   H7A 3042   5.791   0.470   5.649 -2.3389 -0.8688 -0.4206
   26CHL1   H7B 3043   5.876   0.321   5.673 -0.4226 -1.2927  2.5252
   26CHL1    C8 3044   5.654   0.308   5.701 -0.8620  0.8466  0.8469
   26CHL1    H8 3045   5.569   0.379   5.709 -0.7371  0.9438  1.3473
   26CHL1   C14 3046   5.663   0.241   5.565 -0.6837  0.0936  0.2484
   26CHL1   H14 3047   5.754   0.178   5.557 -0.8228  0.0790 -1.5651
   26CHL1   C15 3048   5.677   0.331   5.439 -0.3700  0.4434  0.2192
   26CHL1  H15A 3049   5.639   0.434   5.456 -1.0818 -0.1159  2.2511
   26CHL1  H15B 3050   5.787   0.333   5.420 -0.6043 -0.7386 -1.4782
   26CHL1   C16 3051   5.612   0.257   5.324  0.6382 -0.3207  0.1337
   26CHL1  H16A 3052   5.518   0.309   5.296  0.8377  1.0751  1.8756
   26CHL1  H16B 3053   5.673   0.253   5.232 -0.6180 -0.7983 -0.7004
   26CHL1   C17 3054   5.579   0.116   5.380 -0.8625 -0.1810  0.5404
   26CHL1   H17 3055   5.669   0.052   5.368 -2.5722 -2.4178 -1.3282
   26CHL1   C13 3056   5.555   0.146   5.537  0.1000  0.7728 -0.4393
   26CHL1   C18 3057   5.417   0.209   5.546 -0.8253 -0.1531 -0.2980
   26CHL1  H18A 3058   5.397   0.248   5.648 -1.6818 -3.1437  0.7759
   26CHL1  H18B 3059   5.412   0.291   5.471 -2.3338 -0.3669 -0.4616
   26CHL1  H18C 3060   5.333   0.145   5.511  0.3204 -1.8514 -0.0368
   26CHL1   C12 3061   5.567   0.026   5.636 -0.1288 -0.5536  0.5949
   26CHL1  H12A 3062   5.483  -0.047   5.624  0.4794 -1.0522 -0.8875
   26CHL1  H12B 3063   5.660  -0.029   5.609  0.0483 -0.3820  0.8636
   26CHL1   C11 3064   5.552   0.077   5.776  0.6023  0.3384 -0.5347
   26CHL1  H11A 3065   5.446   0.101   5.797  1.1344  1.4500  1.0028
   26CHL1  H11B 3066   5.578  -0.008   5.842  1.1590  0.1523 -0.9884
   26CHL1    C9 3067   5.647   0.195   5.807 -0.7895  0.0184 -0.0497
   26CHL1    H9 3068   5.749   0.152   5.797  0.0843  1.6183  1.4133
   26CHL1   C10 3069   5.637   0.247   5.947 -0.0268 -0.3445  0.0788
   26CHL1   C19 3070   5.485   0.284   5.972  0.7372  0.0936  0.1452
   26CHL1  H19A 3071   5.416   0.197   5.971  0.5208  0.2522 -1.8622
   26CHL1  H19B 3072   5.452   0.315   6.073  0.3576 -3.2497  1.1840
   26CHL1  H19C 3073   5.456   0.355   5.892 -1.1901 -0.5420  0.2360
   26CHL1    C1 3074   5.694   0.136   6.050  0.4137 -0.8943  0.0225
   26CHL1   H1A 3075   5.622   0.051   6.045 -2.0056  1.0492 -0.3276
   26CHL1   H1B 3076   5.792   0.096   6.016 -0.6372 -1.6176 -2.3346
   26CHL1    C2 3077   5.709   0.181   6.191 -0.0438 -0.7445  0.1364
   26CHL1   H2A 3078   5.732   0.095   6.257  0.7851 -0.9440 -0.3998
   26CHL1   H2B 3079   5.605   0.214   6.211 -0.2081 -1.2918  0.1863
   26CHL1   C20 3080   5.475   0.029   5.301  0.0684  0.6062 -0.0292
   26CHL1   H20 3081   5.371   0.068   5.311 -1.1107 -2.6703  2.1661
   26CHL1   C21 3082   5.479  -0.112   5.358 -0.4671  0.6692 -0.0334
   26CHL1  H21A 3083   5.412  -0.122   5.447 -0.7995 -1.9674 -0.5015
   26CHL1  H21B 3084   5.577  -0.143   5.401 -0.8951 -1.7102 -0.5987
   26CHL1  H21C 3085   5.448  -0.181   5.277 -1.3312  0.8335  0.1448
   26CHL1   C22 3086   5.495   0.024   5.146 -0.6482 -0.7390 -0.5081
   26CHL1  H22A 3087   5.410  -0.030   5.098 -1.5667 -0.2824  0.5641
   26CHL1  H22B 3088   5.483   0.126   5.104  2.6419  0.1670  0.4135
   26CHL1   C23 3089   5.625  -0.038   5.102 -0.1233  0.0352  0.2126
   26CHL1  H23A 3090   5.698   0.012   5.170 -1.8800  1.7338  0.9167
   26CHL1  H23B 3091   5.629  -0.148   5.119 -1.0109  0.0163  0.3137
   26CHL1   C24 3092   5.666  -0.005   4.960  0.1586  0.2784 -0.6235
   26CHL1  H24A 3093   5.580  -0.048   4.903  0.0915  0.7768 -0.9029
   26CHL1  H24B 3094   5.661   0.105   4.947 -3.2309  0.5417  1.6736
   26CHL1   C25 3095   5.800  -0.062   4.913 -0.3728 -0.4505 -0.7212
   26CHL1   H25 3096   5.823  -0.159   4.963  2.6503 -0.7352 -2.4347
   26CHL1   C26 3097   5.802  -0.097   4.769  0.0620 -0.1886 -0.4713
   26CHL1  H26A 3098   5.901  -0.115   4.723  1.4975  1.4699  1.7963
   26CHL1  H26B 3099   5.735  -0.183   4.750 -0.2366 -0.0492 -0.0654
   26CHL1  H26C 3100   5.755  -0.012   4.714  0.8793 -0.9113 -2.3675
   26CHL1   C27 3101   5.910   0.034   4.943  0.4193 -0.0325 -0.3507
   26CHL1  H27A 3102   5.924   0.093   4.850 -1.6899  0.9531 -0.0906
   26CHL1  H27B 3103   5.895   0.103   5.029  1.6417 -1.7782  1.3548
   26CHL1  H27C 3104   6.008  -0.019   4.950  0.2527 -1.0524 -3.8386
   27CHL1    C3 3105   3.048   2.503   6.332 -0.0609 -0.3811 -0.4416
   27CHL1    H3 3106   2.970   2.574   6.297 -1.4256 -0.7442  1.6832
   27CHL1    O3 3107   3.027   2.489   6.471  0.2681  0.0752 -0.1500
   27CHL1   H3' 3108   3.083   2.554   6.514  1.4024 -0.6493 -0.4798
   27CHL1    C4 3109   3.021   2.371   6.258 -0.2072  0.8541 -0.3185
   27CHL1   H4A 3110   3.097   2.300   6.296 -1.1898  0.1632  0.4055
   27CHL1   H4B 3111   2.927   2.321   6.288  1.5966 -2.5946  0.0881
   27CHL1    C5 3112   3.026   2.380   6.115 -0.4521  0.0831  0.6120
   27CHL1    C6 3113   2.931   2.330   6.032 -0.0123  0.3523 -0.0783
   27CHL1    H6 3114   2.848   2.267   6.067 -2.0400  2.3043 -1.1287
   27CHL1    C7 3115   2.931   2.344   5.884  0.4780  0.2238  0.4367
   27CHL1   H7A 3116   2.896   2.251   5.834 -1.9722  1.7550 -0.9120
   27CHL1   H7B 3117   2.850   2.415   5.856 -2.1122 -2.1725  1.4169
   27CHL1    C8 3118   3.060   2.388   5.820  0.2601 -0.0408  0.2215
   27CHL1    H8 3119   3.132   2.303   5.824  0.2418 -0.0393  0.5773
   27CHL1   C14 3120   3.036   2.450   5.681 -0.4976 -0.3382  0.2333
   27CHL1   H14 3121   2.973   2.539   5.702 -1.1943 -0.2015 -2.1173
   27CHL1   C15 3122   2.952   2.374   5.575  0.1692 -0.2488 -0.3157
   27CHL1  H15A 3123   2.981   2.267   5.561  0.0716 -0.1133 -1.6880
   27CHL1  H15B 3124   2.842   2.368   5.587  0.1690 -0.7711 -0.5247
   27CHL1   C16 3125   2.991   2.448   5.441 -0.0754 -0.7317 -0.4227
   27CHL1  H16A 3126   3.038   2.372   5.375  2.5866  0.4367  0.0180
   27CHL1  H16B 3127   2.898   2.497   5.405 -0.0289  0.3122  0.7899
   27CHL1   C17 3128   3.096   2.558   5.474 -0.6898  0.7265  0.1518
   27CHL1   H17 3129   3.037   2.640   5.520 -0.9290  0.5429  0.1742
   27CHL1   C13 3130   3.160   2.496   5.604 -0.2015  0.0741 -0.3373
   27CHL1   C18 3131   3.240   2.368   5.582 -0.3730  0.5082  0.3895
   27CHL1  H18A 3132   3.267   2.323   5.680 -3.1643 -2.8375 -0.1612
   27CHL1  H18B 3133   3.184   2.287   5.530 -2.8721  1.6499  1.2044
   27CHL1  H18C 3134   3.332   2.386   5.521 -0.6985  0.2876 -0.1737
   27CHL1   C12 3135   3.229   2.596   5.687 -0.3612 -0.2009 -0.2801
   27CHL1  H12A 3136   3.329   2.615   5.642 -0.9375  1.8040 -0.8147
   27CHL1  H12B 3137   3.172   2.691   5.685 -0.1777 -0.0557 -3.3112
   27CHL1   C11 3138   3.255   2.549   5.833 -0.1761 -0.0322  0.0375
   27CHL1  H11A 3139   3.334   2.471   5.838 -0.0864  0.0001 -0.7877
   27CHL1  H11B 3140   3.286   2.639   5.890  0.2742  0.3817 -0.8430
   27CHL1    C9 3141   3.128   2.498   5.910  0.0470 -0.3069 -0.3851
   27CHL1    H9 3142   3.054   2.580   5.911 -1.0270 -1.2525 -0.5194
   27CHL1   C10 3143   3.148   2.452   6.059  0.2323 -1.1411  0.3920
   27CHL1   C19 3144   3.271   2.356   6.069  0.0423  0.3376 -0.0404
   27CHL1  H19A 3145   3.282   2.306   6.168  2.1846  0.4602 -0.1845
   27CHL1  H19B 3146   3.257   2.268   6.003  0.7030  0.4881 -0.3816
   27CHL1  H19C 3147   3.372   2.395   6.047  0.2509 -1.3700 -2.6609
   27CHL1    C1 3148   3.186   2.578   6.144 -0.1487  0.0513  0.1880
   27CHL1   H1A 3149   3.292   2.607   6.124  0.1404  2.5025  4.2507
   27CHL1   H1B 3150   3.114   2.659   6.120 -0.1890 -0.2859 -0.9119
   27CHL1    C2 3151   3.184   2.557   6.293  0.2837  0.6948  0.3615
   27CHL1   H2A 3152   3.212   2.644   6.356  2.9014  0.6013 -0.5637
   27CHL1   H2B 3153   3.261   2.478   6.307  0.7957  1.5014  2.4173
   27CHL1   C20 3154   3.178   2.608   5.355 -0.7350  0.4433 -0.8146
   27CHL1   H20 3155   3.232   2.512   5.339 -2.9217 -1.2407  1.1613
   27CHL1   C21 3156   3.264   2.726   5.404 -0.3117  0.1981  1.0335
   27CHL1  H21A 3157   3.304   2.778   5.313  1.0041 -1.4121  0.6398
   27CHL1  H21B 3158   3.355   2.684   5.452  0.6429 -1.1797 -1.7693
   27CHL1  H21C 3159   3.200   2.799   5.458 -2.0960  1.1744 -2.1498
   27CHL1   C22 3160   3.097   2.643   5.231  0.9973 -0.3089  0.3741
   27CHL1  H22A 3161   3.019   2.564   5.221 -0.4301  1.2466 -1.8252
   27CHL1  H22B 3162   3.060   2.748   5.230  2.3210  0.2269 -2.4275
   27CHL1   C23 3163   3.180   2.637   5.100 -0.1977 -0.9066 -0.4107
   27CHL1  H23A 3164   3.257   2.716   5.115 -1.5666  0.9618 -2.5365
   27CHL1  H23B 3165   3.226   2.536   5.108  2.3856  0.1752 -0.6785
   27CHL1   C24 3166   3.094   2.644   4.976 -0.3863 -0.2538 -0.3296
   27CHL1  H24A 3167   3.041   2.547   4.978  2.0803 -1.7285  2.8077
   27CHL1  H24B 3168   3.017   2.722   4.994  0.1374  0.4802 -1.1275
   27CHL1   C25 3169   3.181   2.669   4.845  0.0865  0.6134  0.8496
   27CHL1   H25 3170   3.239   2.762   4.862 -0.2512  0.8463  0.7179
   27CHL1   C26 3171   3.282   2.550   4.814  0.2436 -0.0094 -1.0221
   27CHL1  H26A 3172   3.379   2.587   4.773 -0.5520  1.4421 -1.6433
   27CHL1  H26B 3173   3.314   2.497   4.907  0.7620  0.2827 -1.0269
   27CHL1  H26C 3174   3.227   2.479   4.748 -1.9703 -0.0158  0.7213
   27CHL1   C27 3175   3.101   2.700   4.720 -0.8345  0.3634 -0.1693
   27CHL1  H27A 3176   3.048   2.794   4.748 -0.6820 -0.0629  1.7084
   27CHL1  H27B 3177   3.028   2.623   4.685  1.6078 -2.0587 -0.3045
   27CHL1  H27C 3178   3.177   2.721   4.642 -0.3696  1.4224  0.5545
   28CHL1    C3 3179   6.358   0.487   6.779 -0.5485 -0.2903 -0.3782
   28CHL1    H3 3180   6.265   0.546   6.768 -0.3859 -0.2104 -1.4082
   28CHL1    O3 3181   6.384   0.484   6.916  0.1617  0.0402 -0.0001
   28CHL1   H3' 3182   6.442   0.558   6.936  1.2790 -0.6442 -0.5624
   28CHL1    C4 3183   6.333   0.343   6.726 -1.1358 -0.4844  0.4165
   28CHL1   H4A 3184   6.430   0.291   6.738 -0.8177 -0.1038 -0.4668
   28CHL1   H4B 3185   6.260   0.293   6.794  0.8293 -1.6698  1.7512
   28CHL1    C5 3186   6.308   0.332   6.577  0.6016 -0.5422 -0.1491
   28CHL1    C6 3187   6.193   0.279   6.536 -0.0691  0.3672 -0.1554
   28CHL1    H6 3188   6.124   0.237   6.611  0.4922 -1.0533 -0.4022
   28CHL1    C7 3189   6.157   0.267   6.388 -0.1132 -0.2864 -0.1683
   28CHL1   H7A 3190   6.124   0.166   6.355  0.1299 -0.7031  0.8329
   28CHL1   H7B 3191   6.082   0.347   6.370  0.9616  1.8617  3.6633
   28CHL1    C8 3192   6.274   0.298   6.289 -0.2879 -0.7383  0.5832
   28CHL1    H8 3193   6.350   0.217   6.293 -1.3786 -2.0055 -2.1003
   28CHL1   C14 3194   6.229   0.317   6.146 -0.1742  0.1202 -0.3211
   28CHL1   H14 3195   6.146   0.391   6.143  0.2212  0.5944  0.1705
   28CHL1   C15 3196   6.164   0.185   6.084  0.1168 -0.5287  0.8253
   28CHL1  H15A 3197   6.238   0.101   6.092 -0.5311 -1.0348  1.7139
   28CHL1  H15B 3198   6.067   0.160   6.132 -1.6507  1.6468 -1.3641
   28CHL1   C16 3199   6.148   0.222   5.937 -0.1901  0.8480  0.1733
   28CHL1  H16A 3200   6.188   0.141   5.872 -0.3030  0.5944  0.4248
   28CHL1  H16B 3201   6.041   0.228   5.908  0.5978  0.8529 -3.2636
   28CHL1   C17 3202   6.233   0.351   5.925  0.6442 -0.2451  0.4404
   28CHL1   H17 3203   6.154   0.429   5.929  0.2829 -0.5513 -0.4588
   28CHL1   C13 3204   6.333   0.364   6.043  0.3378  0.3531 -0.3163
   28CHL1   C18 3205   6.448   0.262   6.026 -0.4046 -0.0197 -0.1655
   28CHL1  H18A 3206   6.488   0.228   6.124 -0.4571  0.1600 -0.0808
   28CHL1  H18B 3207   6.433   0.170   5.966  0.1348 -0.0058 -0.3295
   28CHL1  H18C 3208   6.524   0.319   5.968  0.3184  0.1527  0.9197
   28CHL1   C12 3209   6.377   0.496   6.090  0.5297  0.2949 -0.0206
   28CHL1  H12A 3210   6.448   0.546   6.021 -0.9024  1.3542 -0.7637
   28CHL1  H12B 3211   6.302   0.578   6.088  0.1122 -0.0330  1.2490
   28CHL1   C11 3212   6.435   0.491   6.235 -0.1878 -0.0060  0.5365
   28CHL1  H11A 3213   6.516   0.417   6.223 -0.2351  0.3089 -2.6036
   28CHL1  H11B 3214   6.472   0.592   6.263 -0.6743  0.6777 -1.1272
   28CHL1    C9 3215   6.342   0.425   6.341  0.1088 -0.0610 -0.2386
   28CHL1    H9 3216   6.264   0.501   6.363 -0.0669 -0.0558 -0.8557
   28CHL1   C10 3217   6.408   0.402   6.479 -0.9343  0.6496  0.5150
   28CHL1   C19 3218   6.541   0.318   6.465  0.2515  0.5517 -0.3527
   28CHL1  H19A 3219   6.514   0.218   6.424  0.3223  0.0022  0.8979
   28CHL1  H19B 3220   6.619   0.370   6.406  2.7663 -2.4505  0.0750
   28CHL1  H19C 3221   6.585   0.309   6.567 -2.6645  0.1254  0.9601
   28CHL1    C1 3222   6.445   0.542   6.548  0.4662 -0.4542 -0.4362
   28CHL1   H1A 3223   6.529   0.599   6.503 -0.4500  0.0414 -1.5836
   28CHL1   H1B 3224   6.354   0.606   6.546  1.1984  0.6738  1.2748
   28CHL1    C2 3225   6.470   0.543   6.700  0.4401  0.3621  0.5305
   28CHL1   H2A 3226   6.496   0.648   6.724  1.5144  0.5730 -1.3675
   28CHL1   H2B 3227   6.561   0.484   6.720 -0.6729 -3.1918 -3.4032
   28CHL1   C20 3228   6.282   0.378   5.786 -0.2236  0.0297  0.2915
   28CHL1   H20 3229   6.343   0.289   5.757 -1.5643 -1.2788  1.3340
   28CHL1   C21 3230   6.364   0.507   5.779 -0.0731  0.6102  0.0927
   28CHL1  H21A 3231   6.312   0.593   5.826 -2.6275 -0.4919 -0.5563
   28CHL1  H21B 3232   6.370   0.539   5.672  0.3638  0.1591 -0.0247
   28CHL1  H21C 3233   6.466   0.489   5.820  0.0895 -1.5237 -1.1050
   28CHL1   C22 3234   6.163   0.381   5.685  0.6390  0.5620 -0.4757
   28CHL1  H22A 3235   6.106   0.287   5.695  2.6128 -0.5710  0.9007
   28CHL1  H22B 3236   6.085   0.457   5.704  0.0067 -0.3936  0.9127
   28CHL1   C23 3237   6.197   0.380   5.531  0.0689  0.2253 -0.3856
   28CHL1  H23A 3238   6.256   0.470   5.502 -0.0503  0.6022  0.4934
   28CHL1  H23B 3239   6.266   0.297   5.507  0.1728 -0.6187  2.4423
   28CHL1   C24 3240   6.082   0.372   5.443  0.2699 -0.2759 -0.4406
   28CHL1  H24A 3241   6.044   0.267   5.446  3.1205 -1.4106 -1.2426
   28CHL1  H24B 3242   6.014   0.447   5.490  1.8744  1.1915 -0.3596
   28CHL1   C25 3243   6.110   0.405   5.293 -0.0354  0.0884  0.1070
   28CHL1   H25 3244   6.144   0.511   5.289 -0.5614  0.2353 -0.9221
   28CHL1   C26 3245   6.211   0.306   5.234 -0.4923 -0.0013 -0.1871
   28CHL1  H26A 3246   6.236   0.324   5.127 -3.3503 -0.2759 -0.9979
   28CHL1  H26B 3247   6.308   0.300   5.287 -0.4499 -0.2999 -0.2958
   28CHL1  H26C 3248   6.168   0.204   5.244 -1.9485  0.4765 -1.2765
   28CHL1   C27 3249   5.985   0.404   5.203  0.0258  0.2766  0.2047
   28CHL1  H27A 3250   5.913   0.469   5.257  0.6162  0.9319  0.2206
   28CHL1  H27B 3251   6.009   0.429   5.097  4.1312  0.1711  0.9503
   28CHL1  H27C 3252   5.949   0.300   5.192  1.0137 -0.1038  0.4700
   29CHL1    C3 3253   4.849   2.497   6.458 -0.5535 -0.1138 -0.1571
   29CHL1    H3 3254   4.900   2.593   6.436 -0.0922 -0.0022  1.3121
   29CHL1    O3 3255   4.851   2.471   6.595 -0.1463  0.0266  0.8241
   29CHL1   H3' 3256   4.943   2.451   6.611 -0.0512 -0.5665 -0.3839
   29CHL1    C4 3257   4.710   2.508   6.397  0.4757 -0.0010  0.5168
   29CHL1   H4A 3258   4.661   2.414   6.433 -0.1859  0.6447  1.3391
   29CHL1   H4B 3259   4.659   2.595   6.443 -0.0746  1.0180 -1.8913
   29CHL1    C5 3260   4.718   2.530   6.247  0.5239  0.1755 -0.0586
   29CHL1    C6 3261   4.658   2.635   6.187 -0.1571  0.3867  0.6454
   29CHL1    H6 3262   4.587   2.690   6.250 -1.4916  0.2123 -0.6679
   29CHL1    C7 3263   4.671   2.671   6.040  0.2686 -0.5075 -1.0910
   29CHL1   H7A 3264   4.567   2.691   6.007 -0.4640 -2.8659 -0.4195
   29CHL1   H7B 3265   4.731   2.764   6.033 -0.9614  0.4269  0.2238
   29CHL1    C8 3266   4.715   2.552   5.958 -0.1257  0.3397 -0.1608
   29CHL1    H8 3267   4.637   2.474   5.946 -0.9768  1.4289 -2.3079
   29CHL1   C14 3268   4.746   2.603   5.823  0.1983 -0.7191  0.1616
   29CHL1   H14 3269   4.821   2.680   5.849 -2.5046  3.0559 -2.2203
   29CHL1   C15 3270   4.636   2.669   5.736 -0.0785 -0.8841  0.0644
   29CHL1  H15A 3271   4.541   2.612   5.721 -2.1689  1.4311  3.2004
   29CHL1  H15B 3272   4.609   2.772   5.768  0.0961 -0.6354 -0.5828
   29CHL1   C16 3273   4.700   2.683   5.596  0.5775 -0.6619 -0.3091
   29CHL1  H16A 3274   4.619   2.660   5.523  0.1664  0.4568 -0.2304
   29CHL1  H16B 3275   4.723   2.788   5.568 -2.4107 -0.1150 -1.0508
   29CHL1   C17 3276   4.825   2.588   5.601  0.5693 -0.0881  0.1448
   29CHL1   H17 3277   4.907   2.658   5.625  0.2415  0.5847 -0.6583
   29CHL1   C13 3278   4.808   2.505   5.732 -0.2642 -0.2550 -0.1789
   29CHL1   C18 3279   4.725   2.381   5.695  0.1033  0.0739  0.5094
   29CHL1  H18A 3280   4.638   2.420   5.638  0.6982 -0.2790 -0.6517
   29CHL1  H18B 3281   4.789   2.306   5.644  1.5562 -0.1589  2.5568
   29CHL1  H18C 3282   4.680   2.327   5.782 -0.9476 -0.0283 -0.0755
   29CHL1   C12 3283   4.947   2.466   5.792  0.3089 -0.3133 -0.5919
   29CHL1  H12A 3284   5.000   2.388   5.733 -0.3558 -1.0003 -0.2971
   29CHL1  H12B 3285   5.010   2.557   5.794 -0.2268  0.0458  0.7441
   29CHL1   C11 3286   4.927   2.403   5.932 -0.7260 -0.7406  0.2174
   29CHL1  H11A 3287   4.889   2.298   5.931 -0.8152 -0.7448  1.4735
   29CHL1  H11B 3288   5.028   2.397   5.978  0.0237  2.4640 -0.7854
   29CHL1    C9 3289   4.841   2.491   6.022 -0.3923 -0.1459 -0.3587
   29CHL1    H9 3290   4.906   2.580   6.034 -1.6429  1.0725 -2.0310
   29CHL1   C10 3291   4.812   2.437   6.167 -0.4513 -0.2948 -0.5683
   29CHL1   C19 3292   4.744   2.300   6.156  0.3225  0.1062  0.9314
   29CHL1  H19A 3293   4.813   2.226   6.111 -0.4746 -1.6727  2.4848
   29CHL1  H19B 3294   4.719   2.256   6.255  1.1207 -0.8732  0.7132
   29CHL1  H19C 3295   4.646   2.307   6.104  0.6010  1.0506  0.5039
   29CHL1    C1 3296   4.945   2.411   6.250  0.6565  0.2339  0.1695
   29CHL1   H1A 3297   4.996   2.322   6.206 -1.0742 -1.1783  0.9158
   29CHL1   H1B 3298   5.008   2.503   6.246  0.4607  0.3552 -2.7164
   29CHL1    C2 3299   4.919   2.377   6.395 -0.2404  0.6619 -0.1200
   29CHL1   H2A 3300   5.003   2.344   6.460 -1.3024  0.8657  1.4167
   29CHL1   H2B 3301   4.853   2.288   6.405  2.1425 -0.9505  3.2979
   29CHL1   C20 3302   4.848   2.525   5.467 -0.7436 -0.4293 -0.4041
   29CHL1   H20 3303   4.776   2.445   5.440 -2.3122  1.0009 -0.6282
   29CHL1   C21 3304   4.984   2.454   5.460  0.2681  0.6401 -0.3383
   29CHL1  H21A 3305   5.067   2.524   5.485 -1.3115  2.7780 -0.7491
   29CHL1  H21B 3306   4.991   2.411   5.358 -0.7148  0.5158 -0.3640
   29CHL1  H21C 3307   4.987   2.365   5.526 -0.0663  1.2632  0.5427
   29CHL1   C22 3308   4.855   2.643   5.361 -1.0664  0.2183 -0.2021
   29CHL1  H22A 3309   4.755   2.689   5.345 -0.7387  1.4096  1.0304
   29CHL1  H22B 3310   4.912   2.730   5.399 -0.5355  0.6618 -1.9196
   29CHL1   C23 3311   4.919   2.617   5.222  0.0602 -0.1081 -0.0173
   29CHL1  H23A 3312   5.027   2.596   5.237 -0.2699 -2.4625 -0.5838
   29CHL1  H23B 3313   4.868   2.527   5.180  0.3292  0.4909 -1.6879
   29CHL1   C24 3314   4.891   2.724   5.116  0.1091 -0.4680 -0.8404
   29CHL1  H24A 3315   4.782   2.730   5.098 -0.2059 -1.4633  0.5783
   29CHL1  H24B 3316   4.919   2.822   5.161 -1.5710 -0.7126  0.8744
   29CHL1   C25 3317   4.981   2.718   4.986  0.4462 -0.1484  0.2219
   29CHL1   H25 3318   5.086   2.707   5.022 -0.2314  0.8951  2.7840
   29CHL1   C26 3319   4.933   2.606   4.899  0.1075  0.0379 -0.4911
   29CHL1  H26A 3320   5.001   2.565   4.822 -2.2312 -4.0552 -0.6335
   29CHL1  H26B 3321   4.900   2.512   4.949 -1.6448  0.0077 -1.6093
   29CHL1  H26C 3322   4.841   2.628   4.840 -1.3423 -1.5210  1.0770
   29CHL1   C27 3323   4.986   2.856   4.917 -0.1270 -0.4114 -0.1657
   29CHL1  H27A 3324   5.006   2.842   4.809  0.5616 -0.6235 -0.0166
   29CHL1  H27B 3325   4.887   2.907   4.927 -0.3260 -0.9712  0.9195
   29CHL1  H27C 3326   5.047   2.936   4.963 -2.8735  1.7839 -0.0337
   30CHL1    C3 3327   5.569   2.442   6.470  0.1744  0.3376 -0.1689
   30CHL1    H3 3328   5.547   2.340   6.432  0.4486  0.2319 -0.0438
   30CHL1    O3 3329   5.609   2.437   6.604  0.1465  1.0382  0.2730
   30CHL1   H3' 3330   5.527   2.435   6.653 -0.6318  0.2570 -1.0347
   30CHL1    C4 3331   5.695   2.489   6.393  0.1459 -1.2942  0.7995
   30CHL1   H4A 3332   5.721   2.589   6.435  2.7947 -1.7808  0.5163
   30CHL1   H4B 3333   5.787   2.429   6.409  1.2736  0.4157  1.0130
   30CHL1    C5 3334   5.660   2.506   6.245 -0.6315 -0.8478 -1.0886
   30CHL1    C6 3335   5.733   2.438   6.158  0.0086  0.2315  0.3020
   30CHL1    H6 3336   5.821   2.384   6.196 -0.8477  0.7866  3.3288
   30CHL1    C7 3337   5.718   2.440   6.006  0.3904 -0.4381 -0.2981
   30CHL1   H7A 3338   5.813   2.447   5.949 -0.5828  0.0836 -1.9464
   30CHL1   H7B 3339   5.672   2.344   5.974  0.0433  0.0408 -1.2700
   30CHL1    C8 3340   5.631   2.565   5.971 -0.1847  0.0483  0.6561
   30CHL1    H8 3341   5.691   2.659   5.972 -0.5119  0.2606  0.2762
   30CHL1   C14 3342   5.585   2.553   5.820 -0.2161 -1.1999  0.2989
   30CHL1   H14 3343   5.531   2.456   5.814 -1.2731 -0.5378 -2.1405
   30CHL1   C15 3344   5.696   2.540   5.709  0.6336  0.0997 -0.4877
   30CHL1  H15A 3345   5.765   2.626   5.723  2.0365 -0.8487 -1.2623
   30CHL1  H15B 3346   5.762   2.450   5.717  1.8200  0.8769 -1.1760
   30CHL1   C16 3347   5.614   2.545   5.580  0.2239 -0.4352  0.1305
   30CHL1  H16A 3348   5.685   2.601   5.515  0.4196 -1.8343 -0.9101
   30CHL1  H16B 3349   5.606   2.438   5.553  1.6882 -0.9392  1.5628
   30CHL1   C17 3350   5.485   2.612   5.619  0.8923  0.0365  0.6310
   30CHL1   H17 3351   5.409   2.531   5.629  0.1890  0.5061 -0.6786
   30CHL1   C13 3352   5.485   2.660   5.766  1.1731  0.1007 -0.2620
   30CHL1   C18 3353   5.549   2.800   5.766 -0.8382  1.2876 -0.9944
   30CHL1  H18A 3354   5.641   2.796   5.704  0.0021  0.8694  0.2374
   30CHL1  H18B 3355   5.491   2.886   5.725  1.0630  3.0202 -0.2249
   30CHL1  H18C 3356   5.584   2.825   5.869  2.5978 -2.9977 -0.8546
   30CHL1   C12 3357   5.357   2.656   5.857  0.2925  0.1513  0.2542
   30CHL1  H12A 3358   5.280   2.730   5.830 -1.3257 -0.7884  2.0698
   30CHL1  H12B 3359   5.309   2.556   5.851  0.4424  0.1470 -1.3324
   30CHL1   C11 3360   5.402   2.684   6.009 -0.7716  0.0667  0.5036
   30CHL1  H11A 3361   5.459   2.779   6.016  0.8561 -0.8894  0.8542
   30CHL1  H11B 3362   5.310   2.686   6.071 -2.3906 -2.0240 -1.6477
   30CHL1    C9 3363   5.510   2.583   6.064 -0.3207 -0.0746 -0.0189
   30CHL1    H9 3364   5.462   2.483   6.066 -0.6990  0.1116  0.1773
   30CHL1   C10 3365   5.549   2.593   6.218 -0.5948 -0.0629  0.6747
   30CHL1   C19 3366   5.597   2.739   6.227  0.2835 -0.5120  0.2292
   30CHL1  H19A 3367   5.619   2.763   6.334  1.0097  2.5768 -0.4946
   30CHL1  H19B 3368   5.693   2.750   6.171 -0.9983  1.2056 -1.7919
   30CHL1  H19C 3369   5.528   2.816   6.187  0.7865  0.3109  0.9099
   30CHL1    C1 3370   5.426   2.568   6.309 -0.1765  0.1670  1.1489
   30CHL1   H1A 3371   5.359   2.657   6.306  1.7181  1.6399 -0.6085
   30CHL1   H1B 3372   5.367   2.480   6.276 -1.1614  0.4831  2.0141
   30CHL1    C2 3373   5.455   2.542   6.459 -0.0081  0.4741  0.1458
   30CHL1   H2A 3374   5.369   2.499   6.513  0.1656  0.5852  0.5150
   30CHL1   H2B 3375   5.500   2.632   6.507 -1.3760  1.8910 -1.0941
   30CHL1   C20 3376   5.436   2.710   5.508  0.6079  0.0564  0.4299
   30CHL1   H20 3377   5.504   2.799   5.506  0.7058 -0.0240 -2.0734
   30CHL1   C21 3378   5.295   2.779   5.532 -0.2094 -0.6274 -0.0722
   30CHL1  H21A 3379   5.209   2.718   5.498 -0.2884 -0.9667  0.7101
   30CHL1  H21B 3380   5.301   2.875   5.477 -1.1333 -0.4332  0.1411
   30CHL1  H21C 3381   5.277   2.810   5.637 -1.4782  0.3544 -0.5487
   30CHL1   C22 3382   5.463   2.658   5.363  0.3222  0.2426 -0.7578
   30CHL1  H22A 3383   5.573   2.658   5.349  0.5520  0.6943  0.8626
   30CHL1  H22B 3384   5.420   2.557   5.348  1.9516 -0.1996 -2.9013
   30CHL1   C23 3385   5.405   2.742   5.257 -0.4596  0.4349  0.0702
   30CHL1  H23A 3386   5.296   2.750   5.279 -0.5278 -1.5783  0.7053
   30CHL1  H23B 3387   5.440   2.847   5.259 -3.1606  1.4150  0.1314
   30CHL1   C24 3388   5.406   2.685   5.110  0.4536 -0.4307  0.1218
   30CHL1  H24A 3389   5.383   2.578   5.128  1.9582 -0.8380 -0.2271
   30CHL1  H24B 3390   5.321   2.736   5.060 -0.1671  0.7983  2.2734
   30CHL1   C25 3391   5.538   2.708   5.036 -0.1221  0.5028  0.3070
   30CHL1   H25 3392   5.615   2.671   5.107  0.4931 -2.2107 -1.6314
   30CHL1   C26 3393   5.550   2.616   4.909  0.7175 -1.3429  0.1487
   30CHL1  H26A 3394   5.509   2.514   4.926 -1.2376 -1.0137 -2.1084
   30CHL1  H26B 3395   5.493   2.654   4.821 -0.9358 -1.4230  1.1473
   30CHL1  H26C 3396   5.654   2.613   4.869  1.4658 -0.7575  1.9599
   30CHL1   C27 3397   5.566   2.856   5.003  0.3119 -0.0788 -0.1965
   30CHL1  H27A 3398   5.652   2.875   4.934 -0.7863 -1.7056 -2.1074
   30CHL1  H27B 3399   5.479   2.897   4.949  1.4232  0.0746 -1.9381
   30CHL1  H27C 3400   5.591   2.917   5.093 -0.6326  0.0254 -0.0012
   31CHL1    C3 3401   6.633   2.329   6.686  0.3898  0.1311  0.0953
   31CHL1    H3 3402   6.522   2.333   6.698  0.2335  1.4049 -1.3732
   31CHL1    O3 3403   6.693   2.310   6.814  0.1429 -0.3192  0.6034
   31CHL1   H3' 3404   6.691   2.398   6.853 -0.5744  0.1046 -0.3574
   31CHL1    C4 3405   6.683   2.210   6.598  0.6847 -0.1610  0.2820
   31CHL1   H4A 3406   6.793   2.199   6.610  0.6529  0.9017  1.9802
   31CHL1   H4B 3407   6.642   2.114   6.637  0.9619 -1.0472 -1.4878
   31CHL1    C5 3408   6.649   2.226   6.454 -0.0217 -0.1470 -0.2713
   31CHL1    C6 3409   6.576   2.139   6.389  0.2723 -0.5130 -0.5841
   31CHL1    H6 3410   6.535   2.055   6.448 -0.6241  0.9633  1.0076
   31CHL1    C7 3411   6.547   2.127   6.241  0.2659  0.2717  0.1221
   31CHL1   H7A 3412   6.553   2.020   6.211  0.0886  0.6713 -1.4558
   31CHL1   H7B 3413   6.443   2.164   6.231 -0.1404 -0.5888  0.9620
   31CHL1    C8 3414   6.630   2.225   6.162 -0.5271  0.3553 -0.1791
   31CHL1    H8 3415   6.733   2.182   6.160 -0.6116  0.0098  1.4119
   31CHL1   C14 3416   6.585   2.254   6.017 -0.1493 -0.6577  0.4298
   31CHL1   H14 3417   6.483   2.297   6.024 -0.1360 -0.2579 -1.3087
   31CHL1   C15 3418   6.584   2.137   5.927 -0.0938 -0.7510 -0.0103
   31CHL1  H15A 3419   6.669   2.066   5.932  0.8482  0.0365 -2.7512
   31CHL1  H15B 3420   6.496   2.072   5.947 -0.8704 -0.7166 -2.8521
   31CHL1   C16 3421   6.572   2.196   5.787 -0.3412  0.6477  0.3036
   31CHL1  H16A 3422   6.646   2.142   5.725 -0.5118  0.4497  0.2701
   31CHL1  H16B 3423   6.478   2.161   5.740  0.5714 -1.3609 -0.1233
   31CHL1   C17 3424   6.596   2.344   5.801 -0.2092 -0.4095  0.1823
   31CHL1   H17 3425   6.498   2.393   5.820  0.1965  0.2751  0.5471
   31CHL1   C13 3426   6.670   2.363   5.940 -0.4614 -0.2053  0.2421
   31CHL1   C18 3427   6.824   2.326   5.923  0.3127 -0.1382  0.5171
   31CHL1  H18A 3428   6.878   2.307   6.017 -0.2793  0.0960  0.9103
   31CHL1  H18B 3429   6.832   2.229   5.869  3.0758 -0.0268  0.5650
   31CHL1  H18C 3430   6.867   2.410   5.865  2.6981 -1.0860  0.7920
   31CHL1   C12 3431   6.657   2.496   6.017  0.1720  0.6259 -0.6215
   31CHL1  H12A 3432   6.726   2.571   5.972 -0.7550  1.8096 -0.1170
   31CHL1  H12B 3433   6.553   2.535   6.023 -0.3409 -0.8572  1.0173
   31CHL1   C11 3434   6.707   2.473   6.163  1.1699 -0.6901 -0.6212
   31CHL1  H11A 3435   6.816   2.457   6.152  1.7204  3.1818 -2.8568
   31CHL1  H11B 3436   6.708   2.572   6.215  3.4994 -1.2362  0.4993
   31CHL1    C9 3437   6.641   2.357   6.241 -0.1480  0.8645  0.2887
   31CHL1    H9 3438   6.541   2.402   6.253 -1.3555 -1.2154 -1.1807
   31CHL1   C10 3439   6.702   2.346   6.382 -0.1868  0.0975  0.2915
   31CHL1   C19 3440   6.854   2.326   6.374 -0.0483  0.4149 -0.3330
   31CHL1  H19A 3441   6.877   2.245   6.302  0.2329 -0.6728  0.9358
   31CHL1  H19B 3442   6.911   2.414   6.336 -0.1581 -0.3792 -2.4843
   31CHL1  H19C 3443   6.909   2.298   6.466  0.2241  0.3944 -0.4997
   31CHL1    C1 3444   6.668   2.467   6.472  0.4191 -0.6019 -0.2390
   31CHL1   H1A 3445   6.733   2.551   6.438  0.1634 -0.1803  0.2979
   31CHL1   H1B 3446   6.560   2.492   6.464  0.6352  0.2797 -0.5009
   31CHL1    C2 3447   6.688   2.458   6.629 -0.0394  0.6415 -0.0778
   31CHL1   H2A 3448   6.654   2.552   6.677  0.5303  1.4720 -1.2664
   31CHL1   H2B 3449   6.799   2.460   6.642 -0.0511  2.0812 -0.0256
   31CHL1   C20 3450   6.653   2.412   5.674 -0.2342  0.0454 -0.1664
   31CHL1   H20 3451   6.738   2.353   5.635 -1.5636 -2.3472  0.3750
   31CHL1   C21 3452   6.696   2.558   5.702  0.7806  0.1114  0.2755
   31CHL1  H21A 3453   6.702   2.611   5.604 -2.5327 -1.1607 -0.7412
   31CHL1  H21B 3454   6.777   2.571   5.777  2.1468  1.8621 -1.3963
   31CHL1  H21C 3455   6.606   2.602   5.751  0.7172 -1.0294  1.2316
   31CHL1   C22 3456   6.548   2.411   5.556  0.3662  0.2835  0.1032
   31CHL1  H22A 3457   6.445   2.444   5.582  0.1479 -0.3638  0.0730
   31CHL1  H22B 3458   6.589   2.476   5.476 -0.3982 -1.0605 -1.4622
   31CHL1   C23 3459   6.527   2.278   5.477 -0.0506 -0.2071  0.3261
   31CHL1  H23A 3460   6.623   2.235   5.442  0.6060 -0.5249  2.3682
   31CHL1  H23B 3461   6.481   2.194   5.534 -1.6634  0.5499  0.2120
   31CHL1   C24 3462   6.428   2.307   5.360  0.1280  0.2424  0.2567
   31CHL1  H24A 3463   6.328   2.334   5.403 -0.9521 -2.5630 -0.2509
   31CHL1  H24B 3464   6.465   2.398   5.309 -2.8383  1.5380  0.1681
   31CHL1   C25 3465   6.401   2.184   5.263  0.0941  0.4535 -0.6717
   31CHL1   H25 3466   6.356   2.106   5.328  3.8949 -0.2448  1.4402
   31CHL1   C26 3467   6.291   2.212   5.158 -0.1093 -0.0838  0.2848
   31CHL1  H26A 3468   6.192   2.229   5.206 -0.3084  1.6010 -0.6374
   31CHL1  H26B 3469   6.323   2.302   5.102  0.9584  0.9217  2.3993
   31CHL1  H26C 3470   6.285   2.123   5.091  0.1979  0.4935 -0.5136
   31CHL1   C27 3471   6.528   2.125   5.199  0.3689 -0.2626  0.0116
   31CHL1  H27A 3472   6.579   2.074   5.283 -1.6843 -3.1004 -0.3122
   31CHL1  H27B 3473   6.507   2.039   5.131 -0.7417  1.8102 -2.4260
   31CHL1  H27C 3474   6.590   2.205   5.154 -2.9068  3.5411  1.6135
   32CHL1    C3 3475   5.367   0.051   6.459 -0.0624 -0.2080 -0.3510
   32CHL1    H3 3476   5.426   0.132   6.411 -0.1515  0.0649 -0.0063
   32CHL1    O3 3477   5.367   0.058   6.601 -0.3539 -0.1750  0.0433
   32CHL1   H3' 3478   5.297   0.118   6.626  0.9488  0.9365  1.1895
   32CHL1    C4 3479   5.220   0.039   6.403 -0.0865  0.8618  0.6644
   32CHL1   H4A 3480   5.182  -0.048   6.461 -0.0013 -1.7036 -2.8245
   32CHL1   H4B 3481   5.161   0.131   6.425  0.1217  1.4827 -1.2312
   32CHL1    C5 3482   5.213   0.000   6.254 -0.4459 -1.1828  0.6535
   32CHL1    C6 3483   5.127   0.063   6.171  0.1952  0.0372  0.6249
   32CHL1    H6 3484   5.064   0.144   6.211 -1.4104 -0.2030 -1.2375
   32CHL1    C7 3485   5.118   0.024   6.023 -0.7300  0.5037 -0.1820
   32CHL1   H7A 3486   5.012   0.038   5.992 -0.2206  2.4965 -1.2253
   32CHL1   H7B 3487   5.172   0.099   5.960 -1.5293 -0.2604 -1.8536
   32CHL1    C8 3488   5.172  -0.122   5.997  0.2856 -0.5297 -0.2266
   32CHL1    H8 3489   5.097  -0.195   6.035  0.7247 -1.1105 -0.4640
   32CHL1   C14 3490   5.191  -0.144   5.850 -0.7625 -0.3534  0.5030
   32CHL1   H14 3491   5.270  -0.072   5.821  0.5476 -1.4024  1.3009
   32CHL1   C15 3492   5.066  -0.126   5.765 -0.0211 -0.4995  0.2037
   32CHL1  H15A 3493   4.971  -0.171   5.803 -0.9989  1.6668  0.4424
   32CHL1  H15B 3494   5.045  -0.019   5.749 -0.5806 -0.7585 -0.8897
   32CHL1   C16 3495   5.108  -0.200   5.630 -0.0638 -0.2286 -0.1895
   32CHL1  H16A 3496   5.031  -0.274   5.598 -0.0240  0.3973 -1.8103
   32CHL1  H16B 3497   5.111  -0.120   5.554 -1.6401 -1.4947 -1.6615
   32CHL1   C17 3498   5.246  -0.271   5.656  0.7309  0.0607 -0.9316
   32CHL1   H17 3499   5.324  -0.196   5.631  2.2563 -0.4244  1.9967
   32CHL1   C13 3500   5.243  -0.285   5.809  0.4075  0.8739  0.8312
   32CHL1   C18 3501   5.139  -0.396   5.855  0.2669 -0.3070  0.1684
   32CHL1  H18A 3502   5.156  -0.499   5.816 -1.1238 -1.0415  1.3884
   32CHL1  H18B 3503   5.148  -0.392   5.966  3.0205  2.2860 -0.0407
   32CHL1  H18C 3504   5.035  -0.371   5.826  0.5409 -0.6263 -1.1290
   32CHL1   C12 3505   5.382  -0.306   5.872 -0.0501  0.8051 -0.5889
   32CHL1  H12A 3506   5.417  -0.409   5.848  1.5106  1.2346 -0.2297
   32CHL1  H12B 3507   5.453  -0.233   5.829  0.4707  1.0586  0.6850
   32CHL1   C11 3508   5.380  -0.281   6.017  0.7880 -0.2294 -0.3458
   32CHL1  H11A 3509   5.324  -0.370   6.054 -1.6049  1.6829  0.8636
   32CHL1  H11B 3510   5.482  -0.296   6.057  0.8836 -0.6591 -0.7378
   32CHL1    C9 3511   5.310  -0.143   6.061  0.3336  0.1087 -0.2571
   32CHL1    H9 3512   5.374  -0.064   6.016 -0.1244 -0.8062 -2.6877
   32CHL1   C10 3513   5.311  -0.116   6.219  0.8660 -0.0020 -0.1243
   32CHL1   C19 3514   5.251  -0.254   6.272 -0.0238 -0.4195 -0.0594
   32CHL1  H19A 3515   5.318  -0.342   6.280 -0.6105 -0.7518  1.8827
   32CHL1  H19B 3516   5.208  -0.244   6.375  1.6270  1.4228  0.5204
   32CHL1  H19C 3517   5.158  -0.272   6.214 -0.7500  0.4214  0.7888
   32CHL1    C1 3518   5.454  -0.101   6.268 -0.0244 -0.4726 -0.0037
   32CHL1   H1A 3519   5.529  -0.183   6.265  1.2485  0.6330  0.2913
   32CHL1   H1B 3520   5.500  -0.011   6.222 -1.4699  0.2113 -0.1415
   32CHL1    C2 3521   5.455  -0.079   6.420  0.0885 -0.2805 -0.2380
   32CHL1   H2A 3522   5.559  -0.063   6.453  0.4009 -0.2244 -1.2147
   32CHL1   H2B 3523   5.404  -0.163   6.472 -2.7205  1.1342 -0.5004
   32CHL1   C20 3524   5.282  -0.404   5.580 -0.5543 -0.2616 -0.4016
   32CHL1   H20 3525   5.234  -0.479   5.645 -0.4809  2.5676  3.2766
   32CHL1   C21 3526   5.446  -0.416   5.593  0.3527 -0.2729  0.1371
   32CHL1  H21A 3527   5.490  -0.314   5.602 -2.9003  1.2121  0.6432
   32CHL1  H21B 3528   5.488  -0.440   5.493 -2.4837 -0.2843 -1.1441
   32CHL1  H21C 3529   5.467  -0.490   5.674 -0.1912  1.2565  1.7337
   32CHL1   C22 3530   5.243  -0.424   5.437  0.0183  0.1358  0.4704
   32CHL1  H22A 3531   5.283  -0.342   5.374 -0.3299 -1.5113 -2.0529
   32CHL1  H22B 3532   5.290  -0.518   5.402 -0.7671  0.7890 -2.6969
   32CHL1   C23 3533   5.093  -0.438   5.416  0.1120 -0.3335  0.5846
   32CHL1  H23A 3534   5.054  -0.507   5.494 -0.3298 -1.1787 -0.3579
   32CHL1  H23B 3535   5.030  -0.347   5.416  1.4763  0.7066  3.3072
   32CHL1   C24 3536   5.059  -0.521   5.289  0.2589  0.7637  0.1895
   32CHL1  H24A 3537   5.065  -0.453   5.202 -1.9611  1.3034  0.3921
   32CHL1  H24B 3538   5.117  -0.616   5.281 -2.3216 -1.2597  2.9992
   32CHL1   C25 3539   4.909  -0.566   5.298 -0.0821  0.4723  0.6263
   32CHL1   H25 3540   4.889  -0.605   5.399  0.2543 -0.4565  0.3427
   32CHL1   C26 3541   4.817  -0.447   5.260 -0.2663  0.4740 -1.6017
   32CHL1  H26A 3542   4.834  -0.402   5.160  0.3092 -0.7239 -2.0723
   32CHL1  H26B 3543   4.712  -0.473   5.285  0.1831  1.0499  1.1726
   32CHL1  H26C 3544   4.836  -0.360   5.326 -1.4693  1.1279 -2.0772
   32CHL1   C27 3545   4.881  -0.688   5.205 -0.0511  0.2789  0.0490
   32CHL1  H27A 3546   4.775  -0.718   5.213  0.5300 -1.7385  0.6836
   32CHL1  H27B 3547   4.886  -0.653   5.099  1.7972  0.5134  0.1693
   32CHL1  H27C 3548   4.940  -0.780   5.225 -0.6994  0.2268  1.8067
   33CHL1    C3 3549   3.909   2.503   6.612 -0.6420  0.4214  0.2467
   33CHL1    H3 3550   4.007   2.472   6.570 -0.7064  0.2178  0.2498
   33CHL1    O3 3551   3.931   2.511   6.748  0.6568  0.3162  0.1291
   33CHL1   H3' 3552   3.856   2.560   6.782  0.4535 -0.2764  0.5655
   33CHL1    C4 3553   3.867   2.640   6.560  0.4120 -0.0746 -0.5787
   33CHL1   H4A 3554   3.787   2.690   6.619  2.0320 -0.2911  1.8961
   33CHL1   H4B 3555   3.951   2.710   6.578  0.7931 -0.0765 -2.1602
   33CHL1    C5 3556   3.858   2.638   6.409 -0.1835  0.1220 -0.4843
   33CHL1    C6 3557   3.936   2.715   6.332 -0.3087  0.1240  0.1308
   33CHL1    H6 3558   4.012   2.777   6.382  0.3346 -0.6094  0.0851
   33CHL1    C7 3559   3.933   2.723   6.178  0.5821  0.6053  0.1172
   33CHL1   H7A 3560   3.929   2.832   6.160  1.5660  0.3888 -1.5594
   33CHL1   H7B 3561   4.029   2.686   6.136  0.6443 -0.7721  1.3671
   33CHL1    C8 3562   3.811   2.644   6.130 -0.0887  0.5328  0.4679
   33CHL1    H8 3563   3.717   2.701   6.144 -0.1539  0.6104 -0.2778
   33CHL1   C14 3564   3.838   2.609   5.981  0.0335 -0.2127 -0.9336
   33CHL1   H14 3565   3.920   2.534   5.978  2.1874  1.9294  0.7260
   33CHL1   C15 3566   3.882   2.733   5.897  0.8240  0.0443 -0.7834
   33CHL1  H15A 3567   3.820   2.821   5.922  0.8555  0.1701 -1.1447
   33CHL1  H15B 3568   3.989   2.763   5.901  0.8455 -0.1679  0.3134
   33CHL1   C16 3569   3.839   2.686   5.752 -0.7127  0.2389 -0.1187
   33CHL1  H16A 3570   3.772   2.763   5.706 -0.3461 -0.0390 -1.1466
   33CHL1  H16B 3571   3.931   2.676   5.690 -0.8290 -0.0952 -0.2368
   33CHL1   C17 3572   3.766   2.551   5.761 -0.1520 -0.5179 -0.2900
   33CHL1   H17 3573   3.849   2.477   5.763 -1.7933 -2.4639 -1.0274
   33CHL1   C13 3574   3.716   2.555   5.904  0.2949 -0.4202 -0.1597
   33CHL1   C18 3575   3.594   2.643   5.913  0.4427 -0.5998 -0.3677
   33CHL1  H18A 3576   3.607   2.731   5.846  0.7698  0.9195  1.5791
   33CHL1  H18B 3577   3.504   2.590   5.875  0.8785 -2.1202  0.6383
   33CHL1  H18C 3578   3.561   2.679   6.013 -0.9879  0.0534 -1.0482
   33CHL1   C12 3579   3.686   2.413   5.976 -0.0246  0.0023  0.5758
   33CHL1  H12A 3580   3.588   2.372   5.944  1.1277 -1.7426 -0.9011
   33CHL1  H12B 3581   3.771   2.345   5.956 -0.1593  0.1778 -0.6549
   33CHL1   C11 3582   3.673   2.425   6.133  0.3659  0.7251  0.3003
   33CHL1  H11A 3583   3.574   2.472   6.144  0.1354  0.4086 -0.3229
   33CHL1  H11B 3584   3.668   2.317   6.160  0.9625  0.2298 -1.3690
   33CHL1    C9 3585   3.791   2.511   6.198  0.5697 -0.2725 -1.1264
   33CHL1    H9 3586   3.883   2.449   6.186  1.9952  2.0279 -2.8820
   33CHL1   C10 3587   3.758   2.532   6.351 -0.6018  0.1286  0.2678
   33CHL1   C19 3588   3.611   2.568   6.383 -0.4031 -0.3408  0.5777
   33CHL1  H19A 3589   3.589   2.591   6.489  0.2283  0.1958  0.6037
   33CHL1  H19B 3590   3.594   2.667   6.335 -1.2627 -0.2961  0.9443
   33CHL1  H19C 3591   3.529   2.498   6.355 -1.5936 -0.1572  3.3045
   33CHL1    C1 3592   3.779   2.398   6.420 -0.3705  1.0079  0.0517
   33CHL1   H1A 3593   3.694   2.333   6.392 -0.1899  0.9067 -0.2628
   33CHL1   H1B 3594   3.873   2.355   6.380 -0.5859 -0.3643  0.9475
   33CHL1    C2 3595   3.800   2.400   6.573  0.0856  0.7692  0.4259
   33CHL1   H2A 3596   3.840   2.302   6.607 -1.2843 -0.1967 -0.6509
   33CHL1   H2B 3597   3.704   2.414   6.626 -0.7267 -1.7949 -0.2371
   33CHL1   C20 3598   3.662   2.523   5.659  0.6064 -0.4636  0.5844
   33CHL1   H20 3599   3.576   2.594   5.661 -0.8006 -2.0867  0.5769
   33CHL1   C21 3600   3.618   2.373   5.661 -0.2036  0.4031 -0.2679
   33CHL1  H21A 3601   3.540   2.349   5.586 -1.0210  0.9254  0.3941
   33CHL1  H21B 3602   3.560   2.356   5.755  0.1628 -1.2425 -0.3194
   33CHL1  H21C 3603   3.708   2.309   5.652  0.2671  1.0680 -0.4363
   33CHL1   C22 3604   3.731   2.540   5.515  0.4212  0.5900  1.0993
   33CHL1  H22A 3605   3.779   2.640   5.512 -1.2231  1.4117 -1.8052
   33CHL1  H22B 3606   3.812   2.464   5.513 -0.2840 -0.1624  0.1554
   33CHL1   C23 3607   3.641   2.524   5.392  0.1849  0.1196  0.3076
   33CHL1  H23A 3608   3.595   2.423   5.392 -0.9267  0.6179  0.6137
   33CHL1  H23B 3609   3.559   2.597   5.403 -0.4284 -0.4164 -0.5599
   33CHL1   C24 3610   3.721   2.571   5.269 -0.4128  0.7906 -0.0811
   33CHL1  H24A 3611   3.725   2.680   5.286 -3.4547  1.1969 -1.2626
   33CHL1  H24B 3612   3.826   2.533   5.266 -1.6250 -3.0768  0.7089
   33CHL1   C25 3613   3.662   2.550   5.128  0.5133 -0.7304 -0.6654
   33CHL1   H25 3614   3.651   2.441   5.110 -0.6257 -0.6598 -0.4141
   33CHL1   C26 3615   3.517   2.608   5.119 -0.6462  0.4903  0.0587
   33CHL1  H26A 3616   3.518   2.718   5.133 -0.0685  0.8016 -2.0639
   33CHL1  H26B 3617   3.476   2.584   5.018 -1.1880  2.9957 -0.3750
   33CHL1  H26C 3618   3.451   2.551   5.188 -2.6540  1.1935 -1.1923
   33CHL1   C27 3619   3.759   2.604   5.022 -0.5851 -0.6921  0.0280
   33CHL1  H27A 3620   3.714   2.597   4.920  0.8224 -1.8064 -0.5466
   33CHL1  H27B 3621   3.788   2.711   5.019 -0.4555 -0.7407 -1.4307
   33CHL1  H27C 3622   3.854   2.548   5.024  1.0334  1.8876  2.3508
   34CHL1    C3 3623   5.557   1.038   6.492  0.0115 -0.2311 -0.2349
   34CHL1    H3 3624   5.510   1.135   6.464  0.8381  1.2602  3.0336
   34CHL1    O3 3625   5.579   1.054   6.626 -0.6438  0.3856  0.2120
   34CHL1   H3' 3626   5.552   0.973   6.670  1.3979  0.0709  0.9620
   34CHL1    C4 3627   5.467   0.919   6.457 -0.0277  0.1647 -0.0353
   34CHL1   H4A 3628   5.532   0.835   6.489 -0.2039  0.4188  1.0288
   34CHL1   H4B 3629   5.374   0.925   6.518 -1.4092 -1.3250 -1.9140
   34CHL1    C5 3630   5.445   0.895   6.308 -0.7434  0.1226  0.2020
   34CHL1    C6 3631   5.325   0.899   6.258  0.4350  0.6204 -0.1256
   34CHL1    H6 3632   5.241   0.907   6.330  1.9931  0.2010  1.8206
   34CHL1    C7 3633   5.287   0.877   6.113 -0.0909  0.4711 -0.9414
   34CHL1   H7A 3634   5.205   0.804   6.101  0.6374 -0.4390 -0.5104
   34CHL1   H7B 3635   5.247   0.975   6.080 -1.6707  1.3329  2.9349
   34CHL1    C8 3636   5.409   0.837   6.020  0.2072  0.2182 -0.6654
   34CHL1    H8 3637   5.434   0.730   6.034  0.8254  0.4318 -0.0387
   34CHL1   C14 3638   5.379   0.863   5.872  0.1153  0.5243  0.3080
   34CHL1   H14 3639   5.374   0.974   5.869 -3.8495  0.4842  0.7377
   34CHL1   C15 3640   5.250   0.808   5.817 -0.5664 -0.1454  0.0612
   34CHL1  H15A 3641   5.240   0.698   5.829  0.3713 -0.6633 -3.1674
   34CHL1  H15B 3642   5.161   0.857   5.862  0.6192  1.9438  0.2484
   34CHL1   C16 3643   5.264   0.836   5.667 -0.9409  0.6540 -1.4290
   34CHL1  H16A 3644   5.216   0.752   5.612 -1.0131 -0.2610 -0.0081
   34CHL1  H16B 3645   5.202   0.921   5.631 -1.0993  0.5146 -1.4856
   34CHL1   C17 3646   5.416   0.857   5.640  0.6449 -0.3227 -0.1395
   34CHL1   H17 3647   5.416   0.968   5.634  0.1315 -0.2642  0.6763
   34CHL1   C13 3648   5.485   0.826   5.773  0.1621  0.0504 -0.3575
   34CHL1   C18 3649   5.518   0.673   5.782  0.7440 -0.0683 -0.3405
   34CHL1  H18A 3650   5.561   0.655   5.883 -0.6487  0.7903  0.4362
   34CHL1  H18B 3651   5.431   0.610   5.753 -0.4737  1.2693  0.2897
   34CHL1  H18C 3652   5.592   0.665   5.700 -2.2250  0.3236 -3.2676
   34CHL1   C12 3653   5.615   0.901   5.814 -0.6635  0.3610  0.4625
   34CHL1  H12A 3654   5.699   0.849   5.762 -2.9338 -1.9257 -1.1683
   34CHL1  H12B 3655   5.609   1.003   5.772 -0.9085  0.5410  0.9412
   34CHL1   C11 3656   5.658   0.886   5.965  0.4973 -0.4050 -0.6224
   34CHL1  H11A 3657   5.698   0.783   5.974  0.9872 -0.1274  0.7078
   34CHL1  H11B 3658   5.736   0.961   5.992  0.3941 -0.9755  1.4436
   34CHL1    C9 3659   5.538   0.909   6.063  0.1172 -0.2919 -0.3796
   34CHL1    H9 3660   5.513   1.017   6.055  3.0775  0.3880 -1.8428
   34CHL1   C10 3661   5.571   0.893   6.221 -0.9528 -0.4167  0.3473
   34CHL1   C19 3662   5.640   0.752   6.239  0.1531 -0.0394 -0.3062
   34CHL1  H19A 3663   5.683   0.746   6.341  4.6374  1.1758 -1.8885
   34CHL1  H19B 3664   5.562   0.676   6.217  0.2885 -0.1495 -0.4068
   34CHL1  H19C 3665   5.719   0.737   6.162  0.3263  0.0937 -0.1535
   34CHL1    C1 3666   5.669   1.011   6.270  0.0860  0.3477  0.1283
   34CHL1   H1A 3667   5.764   1.002   6.212 -0.8994 -0.2102 -1.4760
   34CHL1   H1B 3668   5.615   1.100   6.233  0.1966 -0.2480 -1.5817
   34CHL1    C2 3669   5.690   1.022   6.419  0.5031 -0.3580 -0.9010
   34CHL1   H2A 3670   5.761   1.106   6.429  1.2804 -1.2129  1.5261
   34CHL1   H2B 3671   5.741   0.929   6.452  0.2137 -0.0100  0.6107
   34CHL1   C20 3672   5.461   0.797   5.508 -0.4264  0.3810 -0.4599
   34CHL1   H20 3673   5.450   0.687   5.511  2.4371  0.0186  1.9239
   34CHL1   C21 3674   5.607   0.836   5.481  0.0846  0.3756 -0.0509
   34CHL1  H21A 3675   5.629   0.944   5.498 -0.0505  0.4107 -0.1009
   34CHL1  H21B 3676   5.625   0.811   5.375 -2.2234 -0.1568 -0.3632
   34CHL1  H21C 3677   5.674   0.775   5.545 -1.9772 -0.9156  0.9890
   34CHL1   C22 3678   5.374   0.830   5.380 -0.1697 -0.6109 -0.1407
   34CHL1  H22A 3679   5.421   0.778   5.293  0.5885 -0.9691  0.4714
   34CHL1  H22B 3680   5.269   0.801   5.399 -0.0513 -0.7511  0.3089
   34CHL1   C23 3681   5.376   0.983   5.345 -0.2266 -0.2011 -0.1704
   34CHL1  H23A 3682   5.311   1.029   5.423 -0.2817 -3.2745  1.7784
   34CHL1  H23B 3683   5.477   1.029   5.345  0.1298 -0.7920 -3.0480
   34CHL1   C24 3684   5.308   1.019   5.208 -0.5598 -0.1688  0.0997
   34CHL1  H24A 3685   5.367   0.960   5.134 -0.9528 -0.6130  0.1366
   34CHL1  H24B 3686   5.202   0.986   5.214 -0.2074 -1.3087  0.2699
   34CHL1   C25 3687   5.312   1.155   5.137  0.3779 -0.5424 -0.6698
   34CHL1   H25 3688   5.420   1.168   5.115 -0.0933  2.6396 -1.5904
   34CHL1   C26 3689   5.240   1.141   5.001 -0.1250  0.3619 -0.2833
   34CHL1  H26A 3690   5.289   1.058   4.946  1.0353  0.7411  0.1320
   34CHL1  H26B 3691   5.130   1.132   5.004 -0.1552  0.9296  1.1302
   34CHL1  H26C 3692   5.260   1.233   4.941  0.9621  1.1596  1.2114
   34CHL1   C27 3693   5.261   1.274   5.228 -0.0965 -0.0254  0.2878
   34CHL1  H27A 3694   5.157   1.260   5.265 -0.0569  1.4616  1.0399
   34CHL1  H27B 3695   5.330   1.268   5.314  0.1807 -2.1191 -0.0331
   34CHL1  H27C 3696   5.274   1.368   5.171 -1.1737 -0.0316  0.0091
   35CHL1    C3 3697   5.068   4.071   6.933 -1.0840 -0.6523  0.0260
   35CHL1    H3 3698   4.966   4.105   6.960 -1.8510 -1.7654 -1.3104
   35CHL1    O3 3699   5.136   4.045   7.065 -0.6449 -0.1401  0.7720
   35CHL1   H3' 3700   5.201   3.976   7.047  1.0702  0.7721  2.9339
   35CHL1    C4 3701   5.065   3.935   6.864  0.5641 -0.1281 -0.2264
   35CHL1   H4A 3702   5.167   3.893   6.871  0.4852  0.0097  4.2398
   35CHL1   H4B 3703   4.996   3.866   6.918  0.1833 -0.8220 -1.5426
   35CHL1    C5 3704   5.027   3.947   6.715  0.2368 -0.1605 -0.2941
   35CHL1    C6 3705   4.927   3.873   6.668  0.2085 -0.0207 -0.0441
   35CHL1    H6 3706   4.876   3.808   6.741 -1.4384 -0.2232 -1.3168
   35CHL1    C7 3707   4.891   3.868   6.520  0.5524 -0.2078 -0.5108
   35CHL1   H7A 3708   4.853   3.769   6.485 -1.7615  0.8260 -1.1067
   35CHL1   H7B 3709   4.805   3.937   6.512 -0.5787 -1.2535  1.7941
   35CHL1    C8 3710   4.999   3.931   6.430 -0.0724 -0.8477 -0.0692
   35CHL1    H8 3711   5.082   3.857   6.423 -0.1028 -0.7111 -3.9166
   35CHL1   C14 3712   4.955   3.967   6.284 -0.3838  0.1390 -0.5258
   35CHL1   H14 3713   4.881   4.049   6.295  0.5948  1.1096 -1.0057
   35CHL1   C15 3714   4.889   3.851   6.206 -0.4340 -0.8574  0.1280
   35CHL1  H15A 3715   4.954   3.765   6.232  1.1550  0.9536  2.6959
   35CHL1  H15B 3716   4.786   3.844   6.246 -1.6179  0.3898 -2.4831
   35CHL1   C16 3717   4.913   3.891   6.059  0.1353 -0.0885  0.1218
   35CHL1  H16A 3718   4.976   3.808   6.021  0.1974 -1.1608  2.3676
   35CHL1  H16B 3719   4.816   3.900   6.006  0.4737 -2.0775 -0.9296
   35CHL1   C17 3720   4.980   4.030   6.062 -0.3065 -0.3911 -0.3714
   35CHL1   H17 3721   4.899   4.102   6.085  0.5864  0.3525  0.5352
   35CHL1   C13 3722   5.064   4.023   6.190 -0.9796  0.3418 -0.1759
   35CHL1   C18 3723   5.184   3.920   6.177 -0.5535  0.2018 -0.2648
   35CHL1  H18A 3724   5.275   3.980   6.153  0.5054 -2.1227 -2.5867
   35CHL1  H18B 3725   5.190   3.854   6.267 -0.9815  0.0375 -0.3550
   35CHL1  H18C 3726   5.176   3.859   6.085 -2.0742 -0.8646  0.5350
   35CHL1   C12 3727   5.100   4.161   6.252  0.3036  0.2879 -0.5419
   35CHL1  H12A 3728   5.170   4.218   6.189 -0.1025  0.8687 -0.4706
   35CHL1  H12B 3729   5.004   4.215   6.246  0.7054  0.8626 -2.4247
   35CHL1   C11 3730   5.156   4.130   6.395 -0.9418  0.7235 -0.4309
   35CHL1  H11A 3731   5.244   4.066   6.379  0.0774  1.9345  0.1259
   35CHL1  H11B 3732   5.191   4.226   6.439  0.6098 -0.6365  1.4999
   35CHL1    C9 3733   5.054   4.060   6.489 -0.0583 -0.3917 -1.1020
   35CHL1    H9 3734   4.964   4.124   6.498 -0.6452 -1.0030 -2.3505
   35CHL1   C10 3735   5.116   4.047   6.629 -0.4452  0.7258  0.3395
   35CHL1   C19 3736   5.266   4.008   6.628 -0.3524  0.1906 -0.2235
   35CHL1  H19A 3737   5.314   3.996   6.727 -1.7065  1.3251  0.6153
   35CHL1  H19B 3738   5.282   3.909   6.581 -0.1638  0.2607 -0.3047
   35CHL1  H19C 3739   5.322   4.094   6.587 -2.5393  2.9707  2.1973
   35CHL1    C1 3740   5.104   4.185   6.704 -0.2373 -0.0363 -0.7028
   35CHL1   H1A 3741   5.173   4.256   6.652  0.4162 -1.2673 -1.5538
   35CHL1   H1B 3742   4.999   4.220   6.694 -0.9378 -1.9562 -0.3845
   35CHL1    C2 3743   5.146   4.179   6.855 -0.5749  0.0504  0.2609
   35CHL1   H2A 3744   5.143   4.278   6.905  0.6179 -0.5232  1.5270
   35CHL1   H2B 3745   5.252   4.151   6.868 -1.0508 -0.9475  2.2949
   35CHL1   C20 3746   5.052   4.055   5.928 -0.2577 -0.7419  0.1137
   35CHL1   H20 3747   5.122   3.970   5.912  2.3112  0.9982  1.5103
   35CHL1   C21 3748   5.149   4.173   5.939  0.0179  0.1371  0.1445
   35CHL1  H21A 3749   5.105   4.273   5.960  1.3913  0.8277 -0.0899
   35CHL1  H21B 3750   5.197   4.189   5.839 -0.7691  1.3232 -0.0623
   35CHL1  H21C 3751   5.222   4.139   6.015  2.0696  0.0011 -1.7723
   35CHL1   C22 3752   4.953   4.060   5.815  0.3104  0.1492  0.0541
   35CHL1  H22A 3753   4.887   3.972   5.829  2.1912 -1.1842  0.9343
   35CHL1  H22B 3754   4.886   4.149   5.811 -0.4567 -0.4631 -1.0064
   35CHL1   C23 3755   5.032   4.041   5.680 -0.8201 -0.0584 -0.5050
   35CHL1  H23A 3756   5.081   4.137   5.651 -0.1682  0.2772  1.5125
   35CHL1  H23B 3757   5.107   3.961   5.699 -1.9996 -1.0573  0.1289
   35CHL1   C24 3758   4.933   4.009   5.571  0.4143  0.2141  0.8042
   35CHL1  H24A 3759   4.871   3.927   5.615  2.2775 -0.4749  2.2504
   35CHL1  H24B 3760   4.871   4.101   5.562  0.0644 -0.0516  0.4759
   35CHL1   C25 3761   5.006   3.966   5.440 -0.3083  0.1014  0.1008
   35CHL1   H25 3762   5.096   4.028   5.423 -0.4205  0.3904  0.5371
   35CHL1   C26 3763   5.046   3.817   5.435  0.4359 -0.6182  0.7676
   35CHL1  H26A 3764   5.089   3.799   5.334  1.6088  0.3686  1.0750
   35CHL1  H26B 3765   5.130   3.786   5.502 -1.6913 -1.3128  3.3193
   35CHL1  H26C 3766   4.956   3.752   5.443 -0.3186  0.5813  2.8947
   35CHL1   C27 3767   4.922   3.985   5.312  0.0827 -0.0366  0.8382
   35CHL1  H27A 3768   4.837   3.914   5.309  0.3826 -0.4422  1.6167
   35CHL1  H27B 3769   4.887   4.089   5.299  0.4730 -0.0975 -0.9931
   35CHL1  H27C 3770   4.997   3.950   5.237  0.9128 -2.5916  2.6959
   36CHL1    C3 3771   2.424   2.773   6.657 -0.3786 -0.1400  0.4443
   36CHL1    H3 3772   2.374   2.674   6.661 -0.7333 -0.0331 -0.9331
   36CHL1    O3 3773   2.444   2.829   6.789 -0.0273  0.0275  0.1919
   36CHL1   H3' 3774   2.468   2.921   6.776 -1.3880  0.6581  1.7438
   36CHL1    C4 3775   2.562   2.741   6.593  0.1048 -0.1799 -0.4599
   36CHL1   H4A 3776   2.628   2.827   6.612  1.1433 -0.6020 -1.9749
   36CHL1   H4B 3777   2.592   2.648   6.647 -2.4403 -0.1505  1.2050
   36CHL1    C5 3778   2.566   2.725   6.446  0.3739  0.0109 -0.0279
   36CHL1    C6 3779   2.616   2.612   6.400 -0.4775 -0.4037 -0.3517
   36CHL1    H6 3780   2.666   2.539   6.466 -1.8592 -0.2210  0.9346
   36CHL1    C7 3781   2.637   2.593   6.256 -0.9917 -0.3259  0.0905
   36CHL1   H7A 3782   2.747   2.582   6.247 -1.0329 -2.8998  1.7047
   36CHL1   H7B 3783   2.589   2.498   6.223 -3.4562  0.5260  1.0274
   36CHL1    C8 3784   2.595   2.710   6.159 -0.2274 -0.0983 -0.0403
   36CHL1    H8 3785   2.674   2.787   6.175 -1.4970  0.9059  1.7620
   36CHL1   C14 3786   2.579   2.673   6.017  1.0511 -0.4755  0.1951
   36CHL1   H14 3787   2.486   2.612   6.013 -0.6288  1.9586  0.3684
   36CHL1   C15 3788   2.692   2.591   5.953 -0.2410  0.0739 -0.6329
   36CHL1  H15A 3789   2.795   2.625   5.977 -0.4261  0.1481  0.0771
   36CHL1  H15B 3790   2.683   2.486   5.988  1.3011  0.8632  2.5317
   36CHL1   C16 3791   2.676   2.615   5.800  0.3889 -0.2050 -0.1534
   36CHL1  H16A 3792   2.762   2.661   5.746  0.2230 -0.2703 -0.4747
   36CHL1  H16B 3793   2.657   2.520   5.747 -0.8205  0.7806 -1.5495
   36CHL1   C17 3794   2.544   2.701   5.792  0.0781  0.1349 -0.2608
   36CHL1   H17 3795   2.461   2.628   5.795  0.0379  0.1990  0.3201
   36CHL1   C13 3796   2.542   2.783   5.926 -0.0176  0.4947 -0.0669
   36CHL1   C18 3797   2.647   2.894   5.922 -0.1114 -0.5339 -0.1606
   36CHL1  H18A 3798   2.743   2.856   5.881  1.0227 -1.5935  3.1179
   36CHL1  H18B 3799   2.614   2.985   5.869  0.6869  0.4898  1.0203
   36CHL1  H18C 3800   2.664   2.931   6.026  0.4402 -0.4948 -0.2599
   36CHL1   C12 3801   2.408   2.838   5.971  0.4086 -0.5335 -0.3680
   36CHL1  H12A 3802   2.382   2.927   5.910  1.3103 -1.5775 -2.3859
   36CHL1  H12B 3803   2.325   2.766   5.952 -0.5876  0.3931  0.3520
   36CHL1   C11 3804   2.405   2.879   6.116 -0.8167 -0.1441  0.3168
   36CHL1  H11A 3805   2.458   2.977   6.114  0.4346 -0.8138 -0.4799
   36CHL1  H11B 3806   2.298   2.906   6.134 -0.4644  0.6431  1.3498
   36CHL1    C9 3807   2.469   2.773   6.215 -0.0294  0.3886  0.1981
   36CHL1    H9 3808   2.390   2.695   6.217 -1.1520  1.4812  2.7160
   36CHL1   C10 3809   2.491   2.826   6.357 -0.8533 -0.2540 -0.8917
   36CHL1   C19 3810   2.571   2.969   6.356 -0.5610  0.3148 -0.5313
   36CHL1  H19A 3811   2.582   3.016   6.456 -3.4800  0.2841 -0.1166
   36CHL1  H19B 3812   2.667   2.952   6.302 -0.0319 -0.5947  0.6474
   36CHL1  H19C 3813   2.519   3.046   6.294 -0.8000  0.2044 -0.4698
   36CHL1    C1 3814   2.353   2.850   6.425  0.3109  0.5210  0.0007
   36CHL1   H1A 3815   2.299   2.933   6.375 -2.8389 -2.3899 -1.8413
   36CHL1   H1B 3816   2.290   2.759   6.412  0.0510  0.6496  0.3382
   36CHL1    C2 3817   2.352   2.878   6.572  0.8409 -0.8988 -0.5472
   36CHL1   H2A 3818   2.249   2.894   6.610  1.9583 -0.6502  2.7109
   36CHL1   H2B 3819   2.411   2.972   6.587  1.6398 -1.1135 -2.1527
   36CHL1   C20 3820   2.512   2.777   5.662 -0.3370 -0.1458  0.5839
   36CHL1   H20 3821   2.571   2.871   5.666  2.0617 -1.4949 -0.7291
   36CHL1   C21 3822   2.364   2.791   5.647  0.0961  0.0900  0.2767
   36CHL1  H21A 3823   2.322   2.689   5.631  0.4611  0.1615 -1.2940
   36CHL1  H21B 3824   2.341   2.851   5.556  0.9287  2.3840  1.5016
   36CHL1  H21C 3825   2.314   2.844   5.730  0.3254 -1.3230  1.3588
   36CHL1   C22 3826   2.564   2.701   5.534  0.0803 -0.1236 -0.1241
   36CHL1  H22A 3827   2.672   2.681   5.547  0.4278  2.1172  0.9728
   36CHL1  H22B 3828   2.515   2.602   5.523 -1.2334  0.7248 -2.8972
   36CHL1   C23 3829   2.561   2.779   5.414  0.0055 -0.2749 -0.0007
   36CHL1  H23A 3830   2.455   2.806   5.396 -1.6958 -3.6671  3.4634
   36CHL1  H23B 3831   2.624   2.869   5.426  0.7385 -0.4164 -2.3423
   36CHL1   C24 3832   2.614   2.681   5.309 -0.4475 -0.2861  0.5329
   36CHL1  H24A 3833   2.713   2.641   5.338 -0.7753 -0.6422  1.1983
   36CHL1  H24B 3834   2.543   2.596   5.295  1.0295 -1.4568 -0.0777
   36CHL1   C25 3835   2.630   2.742   5.174  0.0800 -0.2234  0.1175
   36CHL1   H25 3836   2.689   2.836   5.187 -2.7213  1.7619 -0.5785
   36CHL1   C26 3837   2.715   2.652   5.086  0.3779 -0.1342 -0.3293
   36CHL1  H26A 3838   2.740   2.702   4.990  0.3138 -0.6506 -0.6181
   36CHL1  H26B 3839   2.809   2.621   5.137 -0.8516 -0.0001  2.1376
   36CHL1  H26C 3840   2.663   2.558   5.059 -3.3526  1.3461  1.1395
   36CHL1   C27 3841   2.491   2.787   5.115 -0.4028  0.4346 -0.0688
   36CHL1  H27A 3842   2.472   2.888   5.157  2.1137  0.0902  2.1613
   36CHL1  H27B 3843   2.503   2.802   5.006  3.3077 -3.6738 -0.4906
   36CHL1  H27C 3844   2.411   2.712   5.137 -0.6675  0.8297  0.3458
   37CHL1    C3 3845   4.094   6.444   6.906  0.5931 -1.0955  0.1229
   37CHL1    H3 3846   4.175   6.520   6.896  1.3059 -2.1469 -3.0443
   37CHL1    O3 3847   4.104   6.372   7.030 -0.2780  0.2002  0.1762
   37CHL1   H3' 3848   4.037   6.304   7.028  0.3478 -0.4337  0.3054
   37CHL1    C4 3849   3.960   6.519   6.903 -0.1997 -1.0235 -0.6520
   37CHL1   H4A 3850   3.880   6.446   6.929 -0.5877  0.1050  1.4798
   37CHL1   H4B 3851   3.961   6.579   6.996  0.3378  1.3736 -2.1280
   37CHL1    C5 3852   3.930   6.586   6.771 -0.4569 -0.0415  0.1365
   37CHL1    C6 3853   3.904   6.714   6.759  0.2149 -0.1686 -0.4387
   37CHL1    H6 3854   3.906   6.770   6.854  0.6809  2.5394 -1.9292
   37CHL1    C7 3855   3.872   6.789   6.634 -0.2683  0.3990 -0.2747
   37CHL1   H7A 3856   3.785   6.857   6.646 -1.8912 -1.4984 -0.6876
   37CHL1   H7B 3857   3.962   6.852   6.617 -0.0443 -0.5701 -3.2516
   37CHL1    C8 3858   3.841   6.701   6.513  0.8015  0.2163  0.1824
   37CHL1    H8 3859   3.740   6.655   6.507  0.5056  0.9909 -1.4495
   37CHL1   C14 3860   3.853   6.781   6.379 -0.0965 -0.5807  0.2209
   37CHL1   H14 3861   3.957   6.819   6.385 -0.3514  0.4113 -1.2023
   37CHL1   C15 3862   3.771   6.914   6.352 -0.5139  0.1608 -0.0917
   37CHL1  H15A 3863   3.670   6.897   6.395 -0.4523  1.1361  0.4747
   37CHL1  H15B 3864   3.828   6.994   6.404 -1.4652  0.3233  0.7329
   37CHL1   C16 3865   3.768   6.932   6.199 -0.1506 -0.4244 -0.4700
   37CHL1  H16A 3866   3.665   6.933   6.159  0.2973  1.5290 -1.6945
   37CHL1  H16B 3867   3.815   7.031   6.178 -1.2986  0.3588  0.4957
   37CHL1   C17 3868   3.844   6.816   6.141 -0.1419 -0.5624 -0.1320
   37CHL1   H17 3869   3.949   6.851   6.146  0.3540 -2.0897  0.9947
   37CHL1   C13 3870   3.837   6.699   6.250 -0.7527  0.3809  0.2761
   37CHL1   C18 3871   3.694   6.643   6.239  0.4514  0.7399  0.4181
   37CHL1  H18A 3872   3.666   6.583   6.327 -2.9224  1.5314  0.0008
   37CHL1  H18B 3873   3.615   6.720   6.234 -1.1175 -0.8506 -0.0143
   37CHL1  H18C 3874   3.688   6.577   6.150 -2.0805  3.7912 -1.9305
   37CHL1   C12 3875   3.942   6.582   6.249  0.4691 -0.1537 -0.4506
   37CHL1  H12A 3876   3.917   6.511   6.167 -0.0395 -1.1726  0.5725
   37CHL1  H12B 3877   4.045   6.622   6.233  0.4613 -1.2146 -4.0776
   37CHL1   C11 3878   3.952   6.497   6.381  0.8509  0.1956  0.1851
   37CHL1  H11A 3879   3.866   6.428   6.377  0.2839  0.9375 -1.4283
   37CHL1  H11B 3880   4.049   6.444   6.370  0.0531 -0.8461 -2.5679
   37CHL1    C9 3881   3.948   6.584   6.515 -0.0834  0.0033  0.1845
   37CHL1    H9 3882   4.049   6.630   6.516  0.3593 -0.9333 -0.5346
   37CHL1   C10 3883   3.945   6.500   6.651 -0.2226  0.0649 -0.0884
   37CHL1   C19 3884   3.831   6.396   6.645 -0.3271 -0.4637 -0.5108
   37CHL1  H19A 3885   3.732   6.436   6.617  0.0086  0.5576 -0.2700
   37CHL1  H19B 3886   3.847   6.324   6.562  1.4956 -0.3904 -0.2759
   37CHL1  H19C 3887   3.825   6.321   6.727 -2.0872  0.0427 -0.1389
   37CHL1    C1 3888   4.082   6.433   6.657 -0.9913 -0.1230 -0.4975
   37CHL1   H1A 3889   4.082   6.358   6.576 -0.3510  0.9727 -1.5475
   37CHL1   H1B 3890   4.164   6.503   6.630 -0.8522  0.6113  1.6081
   37CHL1    C2 3891   4.112   6.351   6.787  0.3485  0.1423 -0.3587
   37CHL1   H2A 3892   4.215   6.313   6.773  0.2302  0.4500 -2.3543
   37CHL1   H2B 3893   4.043   6.265   6.796  0.4901  0.1063  0.4660
   37CHL1   C20 3894   3.811   6.786   5.989  0.7761  0.1064 -1.2271
   37CHL1   H20 3895   3.709   6.742   5.991 -0.3660  2.5516  1.0642
   37CHL1   C21 3896   3.910   6.683   5.937 -0.2121  0.1458 -0.3087
   37CHL1  H21A 3897   3.880   6.587   5.984  1.1057 -0.2882 -0.3139
   37CHL1  H21B 3898   4.015   6.694   5.969  0.7192 -3.5982 -1.5870
   37CHL1  H21C 3899   3.916   6.676   5.827 -0.6189 -2.4252 -0.2405
   37CHL1   C22 3900   3.814   6.911   5.897  0.1738  0.0371 -0.0465
   37CHL1  H22A 3901   3.780   7.003   5.950 -0.7783 -0.8501  0.9190
   37CHL1  H22B 3902   3.921   6.924   5.868  0.2675  0.0601  0.3055
   37CHL1   C23 3903   3.736   6.887   5.773  0.9657 -0.3764  0.8702
   37CHL1  H23A 3904   3.777   6.801   5.717  2.3184  0.4342  0.5904
   37CHL1  H23B 3905   3.632   6.859   5.801  1.6074 -3.0005  0.8698
   37CHL1   C24 3906   3.724   7.012   5.686 -0.0473  0.5805 -0.5522
   37CHL1  H24A 3907   3.701   7.104   5.745 -0.1543  0.0618  0.2298
   37CHL1  H24B 3908   3.822   7.037   5.642 -0.7148  2.8848 -0.8661
   37CHL1   C25 3909   3.625   7.003   5.557 -0.4730  0.3793  0.1624
   37CHL1   H25 3910   3.641   6.897   5.526 -0.2058  1.0977 -2.2850
   37CHL1   C26 3911   3.482   7.041   5.600 -0.7021  0.3351  0.5826
   37CHL1  H26A 3912   3.436   6.963   5.664 -0.3624  0.1703  0.6260
   37CHL1  H26B 3913   3.495   7.136   5.655  2.0058  0.6528 -0.4584
   37CHL1  H26C 3914   3.419   7.058   5.510 -0.9216  1.1752  0.8887
   37CHL1   C27 3915   3.672   7.088   5.427  0.5110 -0.0113  0.6316
   37CHL1  H27A 3916   3.779   7.075   5.400  0.9653  1.4218  1.6470
   37CHL1  H27B 3917   3.623   7.042   5.339  0.9770 -1.0989  0.9230
   37CHL1  H27C 3918   3.650   7.196   5.438 -0.2988  0.2488 -2.5290
   38CHL1    C3 3919   5.645   4.702   6.831 -0.1471 -0.7771  0.4980
   38CHL1    H3 3920   5.660   4.599   6.793 -2.3676 -0.5875 -1.0948
   38CHL1    O3 3921   5.643   4.698   6.971  0.2837 -0.2184 -0.3887
   38CHL1   H3' 3922   5.618   4.782   7.010 -0.8994 -0.9706  0.5290
   38CHL1    C4 3923   5.766   4.791   6.792  0.9192 -0.0208 -0.5575
   38CHL1   H4A 3924   5.762   4.881   6.858  0.3008  0.3781 -1.1254
   38CHL1   H4B 3925   5.857   4.744   6.835  2.3813  2.4988 -0.7600
   38CHL1    C5 3926   5.774   4.806   6.643 -0.4490  0.1494  0.2195
   38CHL1    C6 3927   5.890   4.781   6.576 -0.5793  0.3645 -0.3146
   38CHL1    H6 3928   5.970   4.742   6.641 -1.0340 -0.4445 -0.2297
   38CHL1    C7 3929   5.913   4.808   6.431  0.2711  1.2783 -0.0377
   38CHL1   H7A 3930   6.005   4.869   6.429  0.1774  1.5722  2.0825
   38CHL1   H7B 3931   5.942   4.714   6.380  0.2388  0.4403  1.4159
   38CHL1    C8 3932   5.788   4.863   6.361 -0.2757  0.2328 -0.1774
   38CHL1    H8 3933   5.806   4.972   6.374  0.8174 -0.0158  0.5930
   38CHL1   C14 3934   5.781   4.836   6.213 -0.4961 -0.6569  0.4947
   38CHL1   H14 3935   5.764   4.727   6.208 -0.3732 -0.6415 -0.6268
   38CHL1   C15 3936   5.912   4.863   6.136  0.4500  0.0713 -0.7666
   38CHL1  H15A 3937   5.953   4.963   6.161 -0.6650  0.2571  0.3845
   38CHL1  H15B 3938   5.994   4.792   6.161  1.3883  1.4871  0.3025
   38CHL1   C16 3939   5.865   4.851   5.985 -0.4861 -0.0540 -0.0258
   38CHL1  H16A 3940   5.910   4.940   5.936 -1.5327 -0.9808 -2.9423
   38CHL1  H16B 3941   5.891   4.754   5.938 -1.4104  0.1143 -0.9444
   38CHL1   C17 3942   5.711   4.848   5.983 -0.5243  0.1257 -0.0005
   38CHL1   H17 3943   5.682   4.742   5.967  2.3903 -0.3497 -3.2979
   38CHL1   C13 3944   5.672   4.903   6.122 -0.7630 -0.1982 -0.6432
   38CHL1   C18 3945   5.674   5.059   6.124 -0.6392  0.7150 -0.3047
   38CHL1  H18A 3946   5.684   5.094   6.229 -1.5349  1.2704 -0.3937
   38CHL1  H18B 3947   5.757   5.088   6.055 -0.1127 -0.1022 -0.0218
   38CHL1  H18C 3948   5.581   5.102   6.081 -2.0304  0.5978  2.3962
   38CHL1   C12 3949   5.542   4.855   6.184  0.1610  0.2196  0.4047
   38CHL1  H12A 3950   5.448   4.876   6.128 -1.1526 -0.8329  2.1297
   38CHL1  H12B 3951   5.540   4.744   6.181  0.8026  0.0058  3.9758
   38CHL1   C11 3952   5.528   4.883   6.341 -0.0945 -0.0650  0.1798
   38CHL1  H11A 3953   5.528   4.994   6.349  1.0806  0.0739 -1.2421
   38CHL1  H11B 3954   5.438   4.840   6.390  0.4705 -1.8875 -0.2870
   38CHL1    C9 3955   5.652   4.825   6.414  0.1419  0.7107 -0.2246
   38CHL1    H9 3956   5.646   4.714   6.417  2.3647  0.4888  4.2001
   38CHL1   C10 3957   5.642   4.845   6.568  0.8416 -0.1413  0.5625
   38CHL1   C19 3958   5.629   4.998   6.599  0.0720  0.4069 -0.3956
   38CHL1  H19A 3959   5.613   4.999   6.709  2.9085  0.2531  0.0918
   38CHL1  H19B 3960   5.719   5.055   6.567  0.7251  0.4343  1.3875
   38CHL1  H19C 3961   5.537   5.041   6.552 -0.3360 -0.3739 -0.3281
   38CHL1    C1 3962   5.520   4.764   6.626  0.0314  0.7956 -0.1164
   38CHL1   H1A 3963   5.423   4.806   6.593  0.3375  0.0894 -2.0060
   38CHL1   H1B 3964   5.523   4.658   6.591  3.3612 -0.0693  2.2969
   38CHL1    C2 3965   5.514   4.752   6.781  0.0836  0.0804  0.3281
   38CHL1   H2A 3966   5.429   4.686   6.808 -0.3553  0.6236  0.3111
   38CHL1   H2B 3967   5.492   4.856   6.814 -1.9100  0.1041 -0.8860
   38CHL1   C20 3968   5.657   4.910   5.850 -0.1010 -0.2816  0.4349
   38CHL1   H20 3969   5.676   5.020   5.850 -0.1806 -0.2613 -0.7398
   38CHL1   C21 3970   5.504   4.886   5.841 -0.4710 -0.4776  0.2442
   38CHL1  H21A 3971   5.481   4.778   5.829 -1.1311 -0.3594  0.4486
   38CHL1  H21B 3972   5.457   4.937   5.754  0.2824 -0.3045 -0.0788
   38CHL1  H21C 3973   5.455   4.920   5.934  2.0741  1.0323  1.1513
   38CHL1   C22 3974   5.712   4.857   5.714  0.2052  0.8407  0.3018
   38CHL1  H22A 3975   5.822   4.843   5.722 -0.1691 -2.9828  0.6681
   38CHL1  H22B 3976   5.670   4.754   5.705  0.7721  0.5219  1.1827
   38CHL1   C23 3977   5.673   4.952   5.594 -0.1681  0.4075 -0.0792
   38CHL1  H23A 3978   5.568   4.926   5.569  0.2276 -2.0726  0.5637
   38CHL1  H23B 3979   5.677   5.056   5.633 -0.2889  1.2069 -2.0435
   38CHL1   C24 3980   5.771   4.939   5.478 -0.1230  0.6891  0.1059
   38CHL1  H24A 3981   5.876   4.963   5.505  0.3286 -2.8049  2.1513
   38CHL1  H24B 3982   5.775   4.832   5.448 -1.7156  0.8204 -0.6668
   38CHL1   C25 3983   5.722   5.021   5.365  0.3189  0.2609  0.1469
   38CHL1   H25 3984   5.612   5.009   5.356  0.1689  1.6871 -0.1679
   38CHL1   C26 3985   5.740   5.173   5.389  0.4479  1.0837  0.2461
   38CHL1  H26A 3986   5.697   5.207   5.486  1.2410  0.6821  0.7398
   38CHL1  H26B 3987   5.847   5.202   5.395  1.5799 -2.7167  0.8150
   38CHL1  H26C 3988   5.682   5.228   5.312  2.9864  3.2002 -0.2928
   38CHL1   C27 3989   5.790   4.985   5.235  0.2876 -0.6074  0.3134
   38CHL1  H27A 3990   5.899   4.997   5.251  0.7253 -0.6064 -2.2744
   38CHL1  H27B 3991   5.771   4.879   5.210  2.0279 -1.3615  1.8966
   38CHL1  H27C 3992   5.766   5.049   5.147  0.9691 -1.3140 -0.4012
   39CHL1    C3 3993   3.638   5.025   6.916 -0.3838 -0.2745 -0.4237
   39CHL1    H3 3994   3.561   5.106   6.914 -1.4838 -1.1059  2.7197
   39CHL1    O3 3995   3.656   4.964   7.046  0.1165  0.1214  0.0813
   39CHL1   H3' 3996   3.732   4.905   7.047 -0.0993 -0.1599  0.1080
   39CHL1    C4 3997   3.620   4.914   6.815  0.3362 -0.1746  0.2084
   39CHL1   H4A 3998   3.703   4.844   6.837  0.7710  0.5874  1.0962
   39CHL1   H4B 3999   3.525   4.868   6.848 -1.6931  3.1458 -0.5676
   39CHL1    C5 4000   3.617   4.950   6.667  0.7217 -0.5832  0.3057
   39CHL1    C6 4001   3.512   4.922   6.582 -0.0384  0.3509 -0.6474
   39CHL1    H6 4002   3.428   4.869   6.629  0.0791  1.2038  0.5906
   39CHL1    C7 4003   3.506   4.944   6.436  0.1670 -0.0362 -0.5787
   39CHL1   H7A 4004   3.483   4.858   6.371  1.6603  1.3301 -3.0561
   39CHL1   H7B 4005   3.429   5.021   6.413 -0.7647 -0.5956  0.5591
   39CHL1    C8 4006   3.647   4.994   6.383 -0.1347  0.1933 -0.6842
   39CHL1    H8 4007   3.708   4.903   6.363  1.8725  1.1568  0.7692
   39CHL1   C14 4008   3.627   5.067   6.249 -0.6047  0.1529 -0.8874
   39CHL1   H14 4009   3.571   5.153   6.290  0.8916 -0.2666  2.4138
   39CHL1   C15 4010   3.530   5.007   6.136 -0.2011 -0.6498 -0.6369
   39CHL1  H15A 4011   3.548   4.898   6.145  0.7858 -0.6652 -2.4218
   39CHL1  H15B 4012   3.423   5.030   6.156  0.3160  1.3415  0.0599
   39CHL1   C16 4013   3.579   5.074   6.014 -0.4234  0.2369  0.3842
   39CHL1  H16A 4014   3.617   4.998   5.943  0.1988  1.4615 -0.6213
   39CHL1  H16B 4015   3.497   5.135   5.970 -1.6278 -0.8121  1.0951
   39CHL1   C17 4016   3.699   5.168   6.047  0.0430 -0.1136  0.0542
   39CHL1   H17 4017   3.664   5.268   6.080 -0.3156 -0.5842  1.1246
   39CHL1   C13 4018   3.758   5.120   6.182 -0.0890  0.6259 -0.0380
   39CHL1   C18 4019   3.850   5.000   6.152  0.7006  0.2571 -0.1393
   39CHL1  H18A 4020   3.807   4.936   6.072 -1.1196  1.1369  0.0923
   39CHL1  H18B 4021   3.951   5.036   6.121  0.8091 -0.1887 -0.3167
   39CHL1  H18C 4022   3.880   4.953   6.248 -1.2477  1.5068  1.1459
   39CHL1   C12 4023   3.821   5.216   6.276 -0.3421  0.4668  0.0492
   39CHL1  H12A 4024   3.917   5.262   6.245  0.7133  0.2667  2.7933
   39CHL1  H12B 4025   3.746   5.295   6.299  0.4436  1.6052 -1.1390
   39CHL1   C11 4026   3.858   5.151   6.410 -0.8340  0.0804 -0.4177
   39CHL1  H11A 4027   3.927   5.065   6.397 -1.3523 -0.2987 -0.7143
   39CHL1  H11B 4028   3.909   5.216   6.485  0.2576  0.7063 -1.6714
   39CHL1    C9 4029   3.729   5.087   6.479  0.3045 -0.7092 -0.1573
   39CHL1    H9 4030   3.666   5.177   6.496  3.7840  1.8473  0.5215
   39CHL1   C10 4031   3.741   5.022   6.621 -0.4593  0.3724  0.1079
   39CHL1   C19 4032   3.862   4.925   6.616  0.3029 -0.6235 -0.4874
   39CHL1  H19A 4033   3.957   4.982   6.614 -0.0718  0.0059 -0.5261
   39CHL1  H19B 4034   3.879   4.869   6.710 -0.0768  2.2806  1.4385
   39CHL1  H19C 4035   3.854   4.847   6.537 -1.8071 -1.1068  0.1500
   39CHL1    C1 4036   3.784   5.134   6.724 -0.0804  0.7000  0.3717
   39CHL1   H1A 4037   3.889   5.162   6.704  1.0891 -1.0569  3.4820
   39CHL1   H1B 4038   3.712   5.214   6.694 -0.6271  0.4481  1.0030
   39CHL1    C2 4039   3.774   5.102   6.868  0.2095 -0.3449  0.5449
   39CHL1   H2A 4040   3.792   5.185   6.940  1.8925  0.8041 -1.0966
   39CHL1   H2B 4041   3.849   5.024   6.893  0.1899 -0.1755  1.1533
   39CHL1   C20 4042   3.798   5.175   5.923  0.3416  0.4257 -0.0397
   39CHL1   H20 4043   3.837   5.073   5.900 -0.5996  0.2533 -0.9528
   39CHL1   C21 4044   3.912   5.277   5.949  0.2362 -0.7569  0.0264
   39CHL1  H21A 4045   3.983   5.300   5.866  2.6366 -0.9376  1.9164
   39CHL1  H21B 4046   3.977   5.238   6.030  0.9063 -1.5901 -0.8832
   39CHL1  H21C 4047   3.867   5.378   5.962  0.5325 -0.4712 -1.0669
   39CHL1   C22 4048   3.713   5.209   5.797 -0.3360  0.1440  0.8893
   39CHL1  H22A 4049   3.778   5.196   5.707 -2.5940 -0.8611 -0.6918
   39CHL1  H22B 4050   3.630   5.137   5.787  1.0093 -1.4215  0.5014
   39CHL1   C23 4051   3.655   5.354   5.796 -0.3653 -0.0503  0.6922
   39CHL1  H23A 4052   3.593   5.361   5.888 -0.8018 -0.5480  0.4474
   39CHL1  H23B 4053   3.738   5.423   5.821  0.8677 -1.8227  1.7102
   39CHL1   C24 4054   3.586   5.395   5.665 -0.3206 -0.1536 -0.2251
   39CHL1  H24A 4055   3.508   5.321   5.639  1.4383 -1.8090 -0.9614
   39CHL1  H24B 4056   3.540   5.496   5.679  0.9121  0.4771 -0.5384
   39CHL1   C25 4057   3.678   5.403   5.544  0.4778  0.4495  0.1395
   39CHL1   H25 4058   3.707   5.297   5.528  1.0818  0.3014  1.9683
   39CHL1   C26 4059   3.600   5.431   5.417 -0.6980 -1.0176 -0.3073
   39CHL1  H26A 4060   3.557   5.532   5.435 -1.4789 -1.5626  1.0145
   39CHL1  H26B 4061   3.657   5.444   5.322 -2.5657  3.0292 -1.1010
   39CHL1  H26C 4062   3.522   5.356   5.390  0.3358 -2.1671 -0.1761
   39CHL1   C27 4063   3.797   5.492   5.554 -0.3013 -0.6452 -0.5165
   39CHL1  H27A 4064   3.867   5.465   5.635 -1.0241 -1.0045 -0.0046
   39CHL1  H27B 4065   3.862   5.489   5.464  1.5350 -1.0209  0.7926
   39CHL1  H27C 4066   3.752   5.593   5.563  0.2920 -0.4913  0.8211
   40CHL1    C3 4067   6.067   4.283   6.657  0.6803 -0.1257  0.7757
   40CHL1    H3 4068   6.029   4.179   6.642 -1.3162  0.5954  0.5475
   40CHL1    O3 4069   6.031   4.306   6.791 -0.2031 -0.3366  0.1395
   40CHL1   H3' 4070   5.948   4.258   6.803 -1.3865  1.3637 -0.7374
   40CHL1    C4 4071   6.214   4.303   6.630 -0.1297  0.1546 -0.0927
   40CHL1   H4A 4072   6.248   4.402   6.669 -0.2087  1.1102 -2.3015
   40CHL1   H4B 4073   6.270   4.227   6.689  0.9528  2.8031  2.5607
   40CHL1    C5 4074   6.239   4.297   6.477  1.0374 -0.3902  1.2077
   40CHL1    C6 4075   6.331   4.221   6.417 -0.4883  0.1742 -0.5255
   40CHL1    H6 4076   6.375   4.150   6.488  1.9428  1.0559 -1.0567
   40CHL1    C7 4077   6.380   4.215   6.273 -0.1592  0.0351  0.1138
   40CHL1   H7A 4078   6.491   4.227   6.271 -0.2604  1.0726 -0.8122
   40CHL1   H7B 4079   6.346   4.125   6.218 -0.5852 -0.9458  1.8999
   40CHL1    C8 4080   6.330   4.343   6.197  0.0249  0.8351 -0.0859
   40CHL1    H8 4081   6.396   4.426   6.228  1.0581  0.1036 -0.2706
   40CHL1   C14 4082   6.347   4.331   6.049 -0.5816  0.0307  0.0431
   40CHL1   H14 4083   6.296   4.237   6.020  1.1354 -1.0253  0.2446
   40CHL1   C15 4084   6.495   4.307   6.001  0.1608 -0.2763 -0.6043
   40CHL1  H15A 4085   6.554   4.376   6.065 -1.0969  0.8382 -0.6183
   40CHL1  H15B 4086   6.526   4.201   6.020 -1.2940 -0.7858 -0.9389
   40CHL1   C16 4087   6.485   4.336   5.847  0.9281 -0.5253 -0.0582
   40CHL1  H16A 4088   6.569   4.401   5.815  0.3197  1.4542  2.1020
   40CHL1  H16B 4089   6.486   4.242   5.788  1.0548 -0.6607  0.1548
   40CHL1   C17 4090   6.345   4.400   5.821  0.0303  0.8974 -0.4645
   40CHL1   H17 4091   6.273   4.315   5.816  3.1136 -2.2338  2.5404
   40CHL1   C13 4092   6.305   4.452   5.965  0.6429 -0.8858  0.2726
   40CHL1   C18 4093   6.378   4.582   5.989  0.4593 -0.2567 -0.7242
   40CHL1  H18A 4094   6.355   4.657   5.909  1.5691  1.1102  0.1802
   40CHL1  H18B 4095   6.351   4.626   6.088  2.5167 -0.0354 -0.2083
   40CHL1  H18C 4096   6.488   4.567   5.990  0.3326 -1.2014 -0.5265
   40CHL1   C12 4097   6.154   4.479   5.991  0.1847  0.3798 -0.5618
   40CHL1  H12A 4098   6.114   4.560   5.926  0.6542 -0.8405 -2.4728
   40CHL1  H12B 4099   6.092   4.391   5.961 -0.0260 -0.0259  0.9828
   40CHL1   C11 4100   6.118   4.493   6.140  0.0841  0.1264 -1.0649
   40CHL1  H11A 4101   6.157   4.595   6.159  1.1933 -0.2071 -1.4425
   40CHL1  H11B 4102   6.011   4.490   6.168  0.4849 -1.2812  0.5169
   40CHL1    C9 4103   6.189   4.382   6.230 -0.2810  0.2756  0.4856
   40CHL1    H9 4104   6.136   4.287   6.210  0.9827 -0.6338  1.3187
   40CHL1   C10 4105   6.161   4.392   6.381 -0.4757  0.8046 -0.4389
   40CHL1   C19 4106   6.217   4.535   6.411  0.6493 -0.0321  0.2266
   40CHL1  H19A 4107   6.152   4.614   6.367 -1.3193 -1.4698  0.4271
   40CHL1  H19B 4108   6.223   4.551   6.521 -0.3772  2.6136 -0.0275
   40CHL1  H19C 4109   6.319   4.545   6.369 -0.0949  1.8402 -1.2947
   40CHL1    C1 4110   6.013   4.386   6.423  0.3589  0.2736  0.8888
   40CHL1   H1A 4111   5.956   4.467   6.372 -0.3716 -0.6371  0.2333
   40CHL1   H1B 4112   5.969   4.296   6.375  0.7033  1.3099 -1.5192
   40CHL1    C2 4113   5.988   4.379   6.572  0.4326 -0.0817 -0.1393
   40CHL1   H2A 4114   5.879   4.372   6.596  0.8704  0.6962  2.4221
   40CHL1   H2B 4115   6.018   4.480   6.609  0.7779  0.2371 -1.2475
   40CHL1   C20 4116   6.323   4.475   5.688 -0.6797 -0.1817 -0.3328
   40CHL1   H20 4117   6.363   4.578   5.690 -0.6524 -0.1950  0.1735
   40CHL1   C21 4118   6.176   4.499   5.655 -0.9204  0.0704 -0.4059
   40CHL1  H21A 4119   6.117   4.408   5.680  1.4983 -2.3059 -2.5904
   40CHL1  H21B 4120   6.160   4.514   5.546 -0.3624 -0.2458 -0.5351
   40CHL1  H21C 4121   6.130   4.583   5.711  0.0649  1.3418 -1.4430
   40CHL1   C22 4122   6.399   4.391   5.571  0.0918  0.0746  0.0546
   40CHL1  H22A 4123   6.507   4.394   5.595  0.6423 -0.1537 -2.1426
   40CHL1  H22B 4124   6.345   4.294   5.566 -3.2032  1.7439  0.2796
   40CHL1   C23 4125   6.399   4.449   5.427 -0.0695 -0.1278  0.1873
   40CHL1  H23A 4126   6.299   4.438   5.380 -0.4801  0.3866  0.8986
   40CHL1  H23B 4127   6.433   4.555   5.428  0.5841 -0.3340  0.0903
   40CHL1   C24 4128   6.484   4.380   5.322 -0.1795 -0.3643 -0.5103
   40CHL1  H24A 4129   6.587   4.409   5.352 -0.4402  0.0958 -0.0434
   40CHL1  H24B 4130   6.467   4.270   5.323  0.2424 -0.4325  0.8818
   40CHL1   C25 4131   6.465   4.423   5.171  0.1678  0.5213  0.0950
   40CHL1   H25 4132   6.358   4.434   5.143  0.8329  2.2239 -2.0235
   40CHL1   C26 4133   6.525   4.562   5.139  0.2867 -0.0899  0.0229
   40CHL1  H26A 4134   6.634   4.558   5.162  0.4007  0.5019 -0.3760
   40CHL1  H26B 4135   6.518   4.590   5.032  4.3603  3.1457  0.3561
   40CHL1  H26C 4136   6.479   4.644   5.199  2.2819 -0.3160  2.0178
   40CHL1   C27 4137   6.539   4.320   5.084 -0.5296 -0.1651  0.6097
   40CHL1  H27A 4138   6.644   4.328   5.120 -0.9103 -1.3504  2.1160
   40CHL1  H27B 4139   6.502   4.220   5.116  0.6697 -0.7930  0.0992
   40CHL1  H27C 4140   6.541   4.341   4.975 -0.5840 -1.3093  0.3730
   41CHL1    C3 4141   2.151   3.955   6.740 -0.6468 -0.2384  0.1033
   41CHL1    H3 4142   2.261   3.953   6.726 -0.4607 -0.2059  1.4798
   41CHL1    O3 4143   2.118   3.932   6.877  0.0343 -0.9210  0.2304
   41CHL1   H3' 4144   2.156   3.845   6.881  2.5661  0.0340 -0.8283
   41CHL1    C4 4145   2.109   4.092   6.689  1.2042  0.1635 -0.3599
   41CHL1   H4A 4146   2.003   4.107   6.721  0.7202 -0.5593 -1.5619
   41CHL1   H4B 4147   2.164   4.166   6.752  1.3907  0.9997 -1.4799
   41CHL1    C5 4148   2.122   4.111   6.539  1.2460  0.7605 -0.5601
   41CHL1    C6 4149   2.205   4.203   6.491  0.7947 -0.7295  0.4382
   41CHL1    H6 4150   2.259   4.269   6.559  1.3788 -0.1491 -0.5666
   41CHL1    C7 4151   2.233   4.227   6.345 -0.4707  0.3126 -0.4479
   41CHL1   H7A 4152   2.229   4.336   6.321 -0.1719  0.2835 -0.6345
   41CHL1   H7B 4153   2.332   4.184   6.320 -0.6196 -0.3707  0.0973
   41CHL1    C8 4154   2.130   4.151   6.251  0.1790 -0.5178 -0.7919
   41CHL1    H8 4155   2.034   4.203   6.268  0.3214 -0.0792 -1.2977
   41CHL1   C14 4156   2.164   4.151   6.109  0.3958  0.8662 -0.0378
   41CHL1   H14 4157   2.248   4.081   6.093 -0.3883 -0.3752  1.0985
   41CHL1   C15 4158   2.207   4.288   6.047  0.5422  0.5116  0.9093
   41CHL1  H15A 4159   2.135   4.358   6.093 -1.2468 -1.2671  0.9180
   41CHL1  H15B 4160   2.312   4.304   6.081  1.9312 -2.1226 -1.7404
   41CHL1   C16 4161   2.182   4.267   5.895  0.1667  0.7673  0.0490
   41CHL1  H16A 4162   2.107   4.346   5.874 -1.1049 -0.6372 -0.9579
   41CHL1  H16B 4163   2.275   4.298   5.842  0.0021  1.0777 -0.0581
   41CHL1   C17 4164   2.130   4.122   5.874 -0.5095  0.0731 -0.2576
   41CHL1   H17 4165   2.221   4.057   5.870  1.9765  2.7904  4.0695
   41CHL1   C13 4166   2.065   4.091   6.012  1.1127  0.0053  0.2994
   41CHL1   C18 4167   1.925   4.162   6.018  0.2477  0.4398  0.0150
   41CHL1  H18A 4168   1.869   4.128   6.108  0.2481  1.4566  0.3999
   41CHL1  H18B 4169   1.937   4.271   6.030 -1.2362  0.5428  0.8716
   41CHL1  H18C 4170   1.873   4.135   5.923  0.3983  0.5101 -0.0881
   41CHL1   C12 4171   2.051   3.944   6.053  0.3700 -0.2978  0.0076
   41CHL1  H12A 4172   1.964   3.900   6.000 -0.3812 -0.2113  1.1415
   41CHL1  H12B 4173   2.142   3.884   6.031  0.4124 -0.3612  0.3616
   41CHL1   C11 4174   2.015   3.928   6.200  0.0966 -0.3577 -0.1083
   41CHL1  H11A 4175   1.911   3.961   6.218  0.5205  0.0115  1.9781
   41CHL1  H11B 4176   2.020   3.819   6.222  0.0901 -0.3211  0.0816
   41CHL1    C9 4177   2.109   4.005   6.297 -0.2295 -0.1823 -0.5329
   41CHL1    H9 4178   2.209   3.956   6.302 -0.6711 -0.9661  1.8754
   41CHL1   C10 4179   2.064   3.993   6.450  0.9022  0.1329 -0.1239
   41CHL1   C19 4180   1.905   4.004   6.464 -0.1370  0.0377 -0.3245
   41CHL1  H19A 4181   1.848   3.911   6.445 -2.7425  1.7436 -1.3677
   41CHL1  H19B 4182   1.864   4.029   6.564 -1.4627  1.1077 -1.1028
   41CHL1  H19C 4183   1.871   4.079   6.390 -1.8763  0.2540  0.6538
   41CHL1    C1 4184   2.106   3.856   6.502 -0.5992  0.2300 -0.3702
   41CHL1   H1A 4185   2.047   3.773   6.458 -0.5235  0.9829 -1.9583
   41CHL1   H1B 4186   2.215   3.841   6.486 -0.3617  1.4440 -0.0449
   41CHL1    C2 4187   2.092   3.847   6.654 -0.6517  0.6860  0.4736
   41CHL1   H2A 4188   2.127   3.745   6.681 -0.1083 -0.1672 -2.9038
   41CHL1   H2B 4189   1.984   3.858   6.676 -1.2553  0.3752 -1.9477
   41CHL1   C20 4190   2.051   4.100   5.746  0.7027 -0.3448 -0.0548
   41CHL1   H20 4191   1.952   4.150   5.743  0.5577 -0.5676  0.7753
   41CHL1   C21 4192   2.008   3.953   5.724  0.3205 -0.0291  0.1702
   41CHL1  H21A 4193   2.097   3.892   5.697  0.6312 -0.1572  1.4161
   41CHL1  H21B 4194   1.942   3.966   5.636  2.8273  2.7067 -1.5182
   41CHL1  H21C 4195   1.946   3.914   5.807 -0.4826  0.5772 -0.1330
   41CHL1   C22 4196   2.128   4.154   5.625 -0.0344 -0.1184  0.4927
   41CHL1  H22A 4197   2.075   4.134   5.530  0.3705  0.0227  0.2373
   41CHL1  H22B 4198   2.111   4.263   5.633  1.4517  0.2914 -1.2880
   41CHL1   C23 4199   2.270   4.103   5.622 -0.1428  0.1439 -0.0278
   41CHL1  H23A 4200   2.325   4.158   5.701 -1.4132  1.7929 -0.2427
   41CHL1  H23B 4201   2.263   3.995   5.648 -0.7593  0.1482 -0.1659
   41CHL1   C24 4202   2.341   4.126   5.495 -0.1287 -0.3275  0.0675
   41CHL1  H24A 4203   2.433   4.064   5.499  1.6522  2.1093 -0.4110
   41CHL1  H24B 4204   2.286   4.091   5.404 -0.1395  0.1138 -0.0988
   41CHL1   C25 4205   2.397   4.271   5.483  0.1830 -0.4893 -0.4831
   41CHL1   H25 4206   2.415   4.299   5.589  0.8596 -0.1278 -0.6892
   41CHL1   C26 4207   2.523   4.277   5.409  0.0185  0.2333 -0.7894
   41CHL1  H26A 4208   2.591   4.193   5.434 -1.4450 -0.6081  0.4583
   41CHL1  H26B 4209   2.493   4.259   5.303 -0.1227 -1.6409 -0.4539
   41CHL1  H26C 4210   2.582   4.372   5.410  1.6003 -0.6528  2.5612
   41CHL1   C27 4211   2.292   4.367   5.427  0.4261  0.3707  0.0062
   41CHL1  H27A 4212   2.245   4.305   5.348 -0.7576 -2.0999  2.4846
   41CHL1  H27B 4213   2.218   4.389   5.507  0.1044  1.3854 -0.5601
   41CHL1  H27C 4214   2.333   4.464   5.391  2.9440 -1.2721 -1.8971
   42CHL1    C3 4215   1.349   6.374   6.945 -0.3836  0.0685 -0.1615
   42CHL1    H3 4216   1.401   6.276   6.948 -0.2356  0.1454  2.7444
   42CHL1    O3 4217   1.331   6.415   7.084 -0.0772  0.3278  0.0213
   42CHL1   H3' 4218   1.254   6.365   7.113 -0.8197  2.2602  1.6426
   42CHL1    C4 4219   1.441   6.475   6.873  0.0411 -0.9589 -0.5726
   42CHL1   H4A 4220   1.387   6.570   6.887  1.2300 -0.2244 -0.8317
   42CHL1   H4B 4221   1.542   6.476   6.918  0.8989  1.1481 -2.3636
   42CHL1    C5 4222   1.451   6.438   6.727  0.1989 -0.1252  0.6525
   42CHL1    C6 4223   1.572   6.425   6.670 -0.3479 -0.2000  0.7087
   42CHL1    H6 4224   1.658   6.438   6.737 -0.4320  1.2768  0.5663
   42CHL1    C7 4225   1.594   6.402   6.522 -1.0649  0.1171 -0.4047
   42CHL1   H7A 4226   1.672   6.463   6.472  0.6122 -2.7152 -1.4626
   42CHL1   H7B 4227   1.621   6.295   6.509 -2.7171 -0.3070 -0.5908
   42CHL1    C8 4228   1.465   6.429   6.437  0.4039  0.4946  0.2502
   42CHL1    H8 4229   1.452   6.540   6.431 -1.9784  0.2468 -0.5187
   42CHL1   C14 4230   1.480   6.365   6.294 -0.7211 -0.5264 -0.4943
   42CHL1   H14 4231   1.499   6.257   6.311  0.0684 -0.4545 -0.8699
   42CHL1   C15 4232   1.604   6.407   6.205  0.8049  0.0634 -0.0992
   42CHL1  H15A 4233   1.626   6.515   6.217 -0.6452  0.4768 -0.9980
   42CHL1  H15B 4234   1.688   6.338   6.231 -0.7276 -1.5245  0.8508
   42CHL1   C16 4235   1.563   6.367   6.063  0.3018  0.4182 -0.5544
   42CHL1  H16A 4236   1.559   6.459   6.001 -1.4783  1.2551  0.7221
   42CHL1  H16B 4237   1.632   6.298   6.010 -0.6597  0.1538 -1.5027
   42CHL1   C17 4238   1.414   6.306   6.075 -0.0623  0.6556  0.1084
   42CHL1   H17 4239   1.439   6.201   6.101  0.2375  0.3871 -1.1965
   42CHL1   C13 4240   1.359   6.376   6.202 -0.5835  0.3336  0.2699
   42CHL1   C18 4241   1.326   6.521   6.154 -0.5171  0.1493 -0.1684
   42CHL1  H18A 4242   1.412   6.570   6.103 -0.6330 -0.4608 -0.9594
   42CHL1  H18B 4243   1.233   6.531   6.095 -0.2044 -1.8120 -1.0637
   42CHL1  H18C 4244   1.318   6.575   6.252 -0.0287 -0.3996  0.1814
   42CHL1   C12 4245   1.245   6.306   6.282 -0.3346 -0.7329  0.0414
   42CHL1  H12A 4246   1.150   6.332   6.229  0.3016 -1.3240 -1.4454
   42CHL1  H12B 4247   1.262   6.196   6.277 -0.4872 -0.8326  1.3419
   42CHL1   C11 4248   1.226   6.362   6.424  0.2779 -0.2305 -0.2496
   42CHL1  H11A 4249   1.189   6.466   6.411 -0.4136  0.0027  2.7400
   42CHL1  H11B 4250   1.145   6.303   6.474 -0.2228  0.4646 -0.2260
   42CHL1    C9 4251   1.346   6.364   6.508  0.4854 -0.1482  0.2766
   42CHL1    H9 4252   1.380   6.260   6.524 -0.9539 -0.7384 -0.3665
   42CHL1   C10 4253   1.318   6.421   6.650  0.6275  0.3324 -1.4206
   42CHL1   C19 4254   1.265   6.569   6.639  0.5197  0.5674 -0.3113
   42CHL1  H19A 4255   1.163   6.563   6.596  0.0159  1.0553  0.7671
   42CHL1  H19B 4256   1.240   6.613   6.738 -0.5437 -1.5045  0.4112
   42CHL1  H19C 4257   1.328   6.629   6.570  0.2233  0.0288 -1.0639
   42CHL1    C1 4258   1.223   6.334   6.732 -0.2443 -0.6565  0.2106
   42CHL1   H1A 4259   1.125   6.351   6.683  0.1695  1.3646 -0.0065
   42CHL1   H1B 4260   1.253   6.228   6.717  1.8138 -0.2012  0.8088
   42CHL1    C2 4261   1.204   6.364   6.886 -0.3361  0.3142  0.3414
   42CHL1   H2A 4262   1.152   6.282   6.938  1.6319 -0.4378  1.2286
   42CHL1   H2B 4263   1.141   6.454   6.906 -3.6597 -1.6635 -0.5290
   42CHL1   C20 4264   1.343   6.312   5.941  0.5219  0.0004 -0.1569
   42CHL1   H20 4265   1.315   6.416   5.914  1.9467  0.0617 -1.5589
   42CHL1   C21 4266   1.203   6.234   5.954  0.0423 -0.1490  0.6617
   42CHL1  H21A 4267   1.126   6.292   6.009 -0.5916  0.8984 -1.2316
   42CHL1  H21B 4268   1.222   6.144   6.015 -0.1445 -1.5144 -1.2091
   42CHL1  H21C 4269   1.164   6.198   5.856 -0.1814 -0.7905  0.9795
   42CHL1   C22 4270   1.434   6.268   5.819  0.8492  0.1576 -0.3204
   42CHL1  H22A 4271   1.518   6.340   5.810  0.4064  0.7753  0.4414
   42CHL1  H22B 4272   1.475   6.165   5.834 -0.3911 -1.0095 -3.8276
   42CHL1   C23 4273   1.366   6.254   5.683  0.7890 -0.4483 -1.0351
   42CHL1  H23A 4274   1.282   6.182   5.689  1.1132 -0.7135  1.3564
   42CHL1  H23B 4275   1.313   6.345   5.647 -1.2535 -1.9528 -2.0680
   42CHL1   C24 4276   1.475   6.216   5.583 -0.3396 -0.2922 -0.1663
   42CHL1  H24A 4277   1.567   6.277   5.593  0.3462 -1.2398 -0.6416
   42CHL1  H24B 4278   1.500   6.109   5.599  2.7853  0.5027  0.8610
   42CHL1   C25 4279   1.438   6.227   5.431  0.0336 -0.9758  0.0205
   42CHL1   H25 4280   1.377   6.140   5.399 -0.4595 -0.3287 -0.8512
   42CHL1   C26 4281   1.364   6.361   5.401 -0.0508 -0.0325 -0.5224
   42CHL1  H26A 4282   1.268   6.374   5.456 -0.3883 -2.1866 -0.5314
   42CHL1  H26B 4283   1.425   6.448   5.435 -0.3773 -0.4433  1.2414
   42CHL1  H26C 4284   1.350   6.366   5.291 -0.4692 -2.2010 -0.6080
   42CHL1   C27 4285   1.564   6.231   5.343 -0.3202  0.7169 -0.6335
   42CHL1  H27A 4286   1.618   6.324   5.371  0.6805  0.2063 -0.8070
   42CHL1  H27B 4287   1.632   6.149   5.376 -0.1870  1.2877  0.5566
   42CHL1  H27C 4288   1.537   6.228   5.235 -2.6704  1.9876 -0.1396
   43CHL1    C3 4289   2.533   1.525   6.677 -0.0280  0.0669 -0.1121
   43CHL1    H3 4290   2.500   1.419   6.666  0.6974 -0.1000 -0.7826
   43CHL1    O3 4291   2.526   1.545   6.814  0.4205  0.1811 -0.5337
   43CHL1   H3' 4292   2.561   1.630   6.842 -0.7385  0.3725  0.4235
   43CHL1    C4 4293   2.681   1.549   6.635 -0.5461 -0.0503 -0.9607
   43CHL1   H4A 4294   2.707   1.650   6.674 -0.3272 -0.3015 -0.4623
   43CHL1   H4B 4295   2.741   1.476   6.692  0.5868  1.4175 -0.2028
   43CHL1    C5 4296   2.699   1.553   6.484 -0.2875  1.0970  0.9342
   43CHL1    C6 4297   2.785   1.472   6.421 -0.0879  0.1288 -0.7819
   43CHL1    H6 4298   2.843   1.401   6.480  0.3201 -1.2394 -2.7331
   43CHL1    C7 4299   2.819   1.481   6.274 -0.3822 -0.5683  0.3248
   43CHL1   H7A 4300   2.929   1.498   6.266 -0.6648  1.6330  0.3264
   43CHL1   H7B 4301   2.801   1.377   6.242 -1.3599 -0.3928  0.2690
   43CHL1    C8 4302   2.744   1.584   6.187 -0.2020 -0.0871  0.5335
   43CHL1    H8 4303   2.815   1.668   6.176  1.8516 -1.8664 -0.5496
   43CHL1   C14 4304   2.722   1.519   6.050  0.6112  0.0688 -0.1555
   43CHL1   H14 4305   2.647   1.438   6.060 -0.4005  0.8013 -1.3881
   43CHL1   C15 4306   2.830   1.462   5.962  0.1966 -0.3452  0.5707
   43CHL1  H15A 4307   2.917   1.529   5.974  0.2716 -0.2790 -0.2955
   43CHL1  H15B 4308   2.874   1.361   5.978  2.5884 -0.0843 -3.1709
   43CHL1   C16 4309   2.779   1.464   5.817 -0.0649  0.5558 -0.8077
   43CHL1  H16A 4310   2.844   1.528   5.753  2.0908  0.3818  1.0366
   43CHL1  H16B 4311   2.770   1.361   5.778 -1.1514  1.2567 -2.5236
   43CHL1   C17 4312   2.644   1.537   5.831 -0.6643  0.2131 -0.3572
   43CHL1   H17 4313   2.584   1.451   5.867  0.9446  0.0396  2.1458
   43CHL1   C13 4314   2.652   1.622   5.964  0.3479 -0.7507  0.7933
   43CHL1   C18 4315   2.743   1.740   5.930 -0.2349  0.2888  0.8144
   43CHL1  H18A 4316   2.850   1.712   5.914 -0.3424  0.9277 -1.4220
   43CHL1  H18B 4317   2.713   1.795   5.838 -0.3623 -1.0478  0.0358
   43CHL1  H18C 4318   2.735   1.822   6.005 -0.0157  0.3027  0.8241
   43CHL1   C12 4319   2.509   1.667   6.020  0.4449 -0.5115 -0.3043
   43CHL1  H12A 4320   2.470   1.753   5.962 -3.5395  0.6638  3.5253
   43CHL1  H12B 4321   2.436   1.583   6.009 -0.9657  0.7387 -0.8732
   43CHL1   C11 4322   2.527   1.721   6.158  0.1880 -0.1122  0.2484
   43CHL1  H11A 4323   2.581   1.818   6.144 -0.5945  0.0728 -1.9058
   43CHL1  H11B 4324   2.428   1.736   6.206  0.8944  1.1279  1.3743
   43CHL1    C9 4325   2.610   1.623   6.249  0.0072 -0.1800  0.5500
   43CHL1    H9 4326   2.546   1.534   6.235  0.2115 -0.2580  0.0992
   43CHL1   C10 4327   2.609   1.651   6.403 -0.5270  0.6110 -0.2504
   43CHL1   C19 4328   2.652   1.794   6.425  0.0422  0.0901  0.3321
   43CHL1  H19A 4329   2.739   1.816   6.360  1.4579 -3.3922  0.8115
   43CHL1  H19B 4330   2.574   1.863   6.385  0.2021 -0.0639 -0.2437
   43CHL1  H19C 4331   2.660   1.820   6.533 -0.9832 -0.2347  0.4985
   43CHL1    C1 4332   2.460   1.628   6.451  0.4963  0.4227 -0.2677
   43CHL1   H1A 4333   2.391   1.705   6.412 -0.2059 -0.0393  0.0471
   43CHL1   H1B 4334   2.426   1.528   6.416  1.3713  0.7128 -2.0705
   43CHL1    C2 4335   2.443   1.625   6.600 -0.5236 -0.2047 -0.3391
   43CHL1   H2A 4336   2.339   1.617   6.639  0.3367  2.0959  2.9054
   43CHL1   H2B 4337   2.475   1.727   6.631 -2.3977  0.6384 -1.0402
   43CHL1   C20 4338   2.565   1.591   5.709 -0.1929 -0.3971  0.9543
   43CHL1   H20 4339   2.525   1.689   5.742 -1.5631 -1.5711  3.0471
   43CHL1   C21 4340   2.455   1.487   5.669  0.6557 -0.9843 -0.7812
   43CHL1  H21A 4341   2.403   1.529   5.580 -1.6556 -1.3974  0.3017
   43CHL1  H21B 4342   2.376   1.477   5.746 -0.7989  2.1773 -1.6867
   43CHL1  H21C 4343   2.507   1.391   5.644  0.6217 -1.0015 -0.7860
   43CHL1   C22 4344   2.665   1.638   5.588 -0.2106 -0.3717  0.0151
   43CHL1  H22A 4345   2.733   1.715   5.630 -0.6303  0.5596 -0.9817
   43CHL1  H22B 4346   2.725   1.548   5.560  0.1598 -0.5493  1.2814
   43CHL1   C23 4347   2.591   1.706   5.463  0.6991  0.6427  0.3866
   43CHL1  H23A 4348   2.514   1.635   5.429  1.9764  0.5533 -2.5906
   43CHL1  H23B 4349   2.550   1.802   5.502 -0.9846  0.7790 -1.5634
   43CHL1   C24 4350   2.685   1.740   5.346 -0.0686  0.2592 -0.1530
   43CHL1  H24A 4351   2.775   1.798   5.378  0.2995  0.9986 -2.3564
   43CHL1  H24B 4352   2.737   1.658   5.291  2.1069  2.9640 -2.4582
   43CHL1   C25 4353   2.624   1.821   5.236  0.2783 -0.0206  1.0686
   43CHL1   H25 4354   2.577   1.913   5.279 -1.8695 -0.7385  0.4038
   43CHL1   C26 4355   2.725   1.854   5.123 -0.4519 -0.4700  0.7552
   43CHL1  H26A 4356   2.797   1.930   5.161 -1.1349  1.0225 -0.7939
   43CHL1  H26B 4357   2.788   1.771   5.084  2.2003  0.4030  2.8627
   43CHL1  H26C 4358   2.667   1.903   5.042  0.4909 -1.0208 -0.2830
   43CHL1   C27 4359   2.502   1.736   5.170  0.6775 -0.2222 -0.4144
   43CHL1  H27A 4360   2.486   1.777   5.068  0.5785 -0.9276 -0.6816
   43CHL1  H27B 4361   2.545   1.634   5.160 -0.2443 -0.7244  0.6127
   43CHL1  H27C 4362   2.414   1.728   5.237  0.9167 -0.2091 -0.0986
   44CHL1    C3 4363   2.154   2.525   6.807  0.5075 -0.0800  0.1418
   44CHL1    H3 4364   2.241   2.592   6.794  0.0133  0.3477 -1.1453
   44CHL1    O3 4365   2.146   2.510   6.945 -0.2993  0.8214 -0.0098
   44CHL1   H3' 4366   2.084   2.439   6.964  3.4478 -2.4504  1.5919
   44CHL1    C4 4367   2.021   2.583   6.754 -0.1885  0.1525 -0.4529
   44CHL1   H4A 4368   1.936   2.525   6.796 -0.4524  0.7157 -0.1912
   44CHL1   H4B 4369   2.011   2.685   6.797 -0.4608 -0.9981  2.4349
   44CHL1    C5 4370   2.013   2.585   6.599  0.0412  0.2419 -0.3082
   44CHL1    C6 4371   1.970   2.693   6.535  0.1150 -1.1818  0.1293
   44CHL1    H6 4372   1.928   2.778   6.591  2.4736  1.1743 -1.4164
   44CHL1    C7 4373   1.955   2.701   6.382 -0.6075 -0.0380  0.4069
   44CHL1   H7A 4374   1.851   2.726   6.352 -0.8401  1.4958  2.2586
   44CHL1   H7B 4375   2.036   2.769   6.348 -2.6029  2.5240  0.5422
   44CHL1    C8 4376   1.983   2.560   6.311 -0.3300 -0.1580  0.3468
   44CHL1    H8 4377   1.885   2.507   6.311  1.1915 -3.1310 -0.9973
   44CHL1   C14 4378   2.021   2.569   6.165 -0.0456 -0.3901 -0.3641
   44CHL1   H14 4379   2.118   2.623   6.166 -0.6947  0.8364  0.6143
   44CHL1   C15 4380   1.935   2.663   6.077 -0.8680 -0.0031  0.0037
   44CHL1  H15A 4381   1.829   2.630   6.091 -1.2113  1.2722  0.5933
   44CHL1  H15B 4382   1.953   2.770   6.102 -0.3434 -0.2168  0.5599
   44CHL1   C16 4383   1.996   2.629   5.939 -0.0101  0.2294 -0.4760
   44CHL1  H16A 4384   1.909   2.617   5.870 -0.2479  0.4080 -0.2138
   44CHL1  H16B 4385   2.066   2.705   5.897  2.2903 -0.8883  1.1592
   44CHL1   C17 4386   2.076   2.496   5.944 -0.6989 -0.3131 -0.1471
   44CHL1   H17 4387   2.184   2.522   5.943 -0.7845  0.2328 -2.7951
   44CHL1   C13 4388   2.042   2.434   6.082 -0.8234 -0.4190  0.3569
   44CHL1   C18 4389   1.913   2.354   6.078  1.3119  0.7985  0.5717
   44CHL1  H18A 4390   1.872   2.319   6.175  1.0115 -1.5578 -0.3388
   44CHL1  H18B 4391   1.834   2.416   6.030  0.5943 -0.3959  0.1575
   44CHL1  H18C 4392   1.925   2.261   6.017 -1.3488  0.8334 -0.1228
   44CHL1   C12 4393   2.158   2.357   6.154  0.1679 -0.4415  0.3304
   44CHL1  H12A 4394   2.196   2.267   6.103 -0.8796 -0.0676 -1.1683
   44CHL1  H12B 4395   2.255   2.411   6.156  0.6686 -1.0371 -2.9530
   44CHL1   C11 4396   2.125   2.340   6.305  0.6395 -0.3793 -0.5292
   44CHL1  H11A 4397   2.036   2.275   6.298  0.6605 -0.2706 -2.4058
   44CHL1  H11B 4398   2.205   2.284   6.357 -0.4398  0.3085  2.0139
   44CHL1    C9 4399   2.095   2.477   6.377  0.1051  0.3930 -0.0351
   44CHL1    H9 4400   2.189   2.537   6.372 -0.4613  1.4159  1.2592
   44CHL1   C10 4401   2.071   2.459   6.528 -0.1855 -0.2771  0.4182
   44CHL1   C19 4402   1.955   2.356   6.550 -0.9447 -0.1155  0.0728
   44CHL1  H19A 4403   1.931   2.344   6.657  0.6251  1.1217  0.5986
   44CHL1  H19B 4404   1.863   2.396   6.501 -2.0537 -2.9871 -0.3694
   44CHL1  H19C 4405   1.977   2.256   6.506  0.0976 -0.2541  0.8914
   44CHL1    C1 4406   2.198   2.406   6.595 -0.0333  0.0705  0.6097
   44CHL1   H1A 4407   2.235   2.313   6.547 -1.1419  0.3254 -0.7953
   44CHL1   H1B 4408   2.276   2.485   6.581  0.2693 -0.6275 -2.2367
   44CHL1    C2 4409   2.191   2.389   6.745  0.3826 -0.7582 -0.4714
   44CHL1   H2A 4410   2.292   2.367   6.786 -0.0382  1.0427  1.7257
   44CHL1   H2B 4411   2.119   2.312   6.782  1.6091 -1.5478  0.3299
   44CHL1   C20 4412   2.058   2.422   5.820  1.5620 -0.0693 -0.3553
   44CHL1   H20 4413   1.953   2.391   5.804  0.1336  3.3135  1.4681
   44CHL1   C21 4414   2.139   2.290   5.834  0.1876 -0.5751  0.0545
   44CHL1  H21A 4415   2.125   2.231   5.740  0.1825 -1.2496  0.4747
   44CHL1  H21B 4416   2.117   2.224   5.920 -0.8543  1.9802  1.8573
   44CHL1  H21C 4417   2.245   2.322   5.831 -0.1125  0.5413  0.6507
   44CHL1   C22 4418   2.098   2.496   5.694  0.4060  0.1248 -0.6174
   44CHL1  H22A 4419   2.040   2.590   5.703 -0.7086 -0.6564  1.0483
   44CHL1  H22B 4420   2.206   2.511   5.675  0.5946 -2.4334 -1.9936
   44CHL1   C23 4421   2.048   2.435   5.560 -0.1881  0.0131  0.3176
   44CHL1  H23A 4422   2.115   2.351   5.532 -2.4088 -2.0902  1.0311
   44CHL1  H23B 4423   1.947   2.391   5.568  0.1480 -1.0826 -1.0404
   44CHL1   C24 4424   2.045   2.546   5.454 -0.3661 -0.1230 -0.3849
   44CHL1  H24A 4425   1.965   2.620   5.473  0.8667  0.9153  1.0495
   44CHL1  H24B 4426   2.146   2.592   5.451 -1.1748  1.6837 -1.0579
   44CHL1   C25 4427   2.034   2.492   5.313 -0.0832  0.4948 -0.6814
   44CHL1   H25 4428   2.086   2.395   5.302 -1.6639 -0.5649  0.7268
   44CHL1   C26 4429   1.892   2.455   5.279 -0.1284 -0.0337  0.2872
   44CHL1  H26A 4430   1.827   2.540   5.308  2.2854  1.6880  0.9545
   44CHL1  H26B 4431   1.884   2.430   5.171 -1.1520  1.3342  0.0149
   44CHL1  H26C 4432   1.866   2.361   5.333 -0.1559  0.6159  1.4263
   44CHL1   C27 4433   2.101   2.579   5.200 -0.1728 -0.1984  0.5893
   44CHL1  H27A 4434   2.208   2.577   5.226 -0.1443  0.8761  0.5754
   44CHL1  H27B 4435   2.087   2.528   5.101 -0.0135 -1.4033  1.1631
   44CHL1  H27C 4436   2.066   2.684   5.195  2.1760  0.6360  0.4780
   45CHL1    C3 4437   1.078   1.840   6.790  0.0789 -0.8041 -0.0403
   45CHL1    H3 4438   0.977   1.881   6.771  0.4739  1.8979  2.8296
   45CHL1    O3 4439   1.099   1.867   6.929  0.3811  0.4877  0.1040
   45CHL1   H3' 4440   1.188   1.840   6.952 -0.0030  0.5943  1.8067
   45CHL1    C4 4441   1.089   1.685   6.760 -0.0268 -0.3098  0.1556
   45CHL1   H4A 4442   1.188   1.655   6.801 -0.9773 -2.4571  1.0335
   45CHL1   H4B 4443   1.008   1.645   6.825  0.6045 -0.1509  1.0636
   45CHL1    C5 4444   1.070   1.663   6.609  0.0749  0.4517 -0.1735
   45CHL1    C6 4445   0.972   1.585   6.567  0.5835  0.3528 -0.0591
   45CHL1    H6 4446   0.909   1.531   6.640  1.4403  0.4941  0.8089
   45CHL1    C7 4447   0.952   1.548   6.422  0.1416 -0.0406 -0.2129
   45CHL1   H7A 4448   0.925   1.441   6.408  0.8783 -0.0679 -1.6248
   45CHL1   H7B 4449   0.862   1.607   6.392 -0.6648 -0.9610  0.3290
   45CHL1    C8 4450   1.074   1.598   6.331  0.9835  0.2589 -0.0699
   45CHL1    H8 4451   1.164   1.532   6.340  1.0760  0.3170 -0.5485
   45CHL1   C14 4452   1.024   1.609   6.187 -0.6144  0.4498  0.4742
   45CHL1   H14 4453   0.955   1.696   6.178  0.3557  1.1566 -0.5372
   45CHL1   C15 4454   0.945   1.495   6.124  0.1148 -0.5213  0.2120
   45CHL1  H15A 4455   0.979   1.398   6.167  0.5190  0.1416  1.4339
   45CHL1  H15B 4456   0.840   1.514   6.154  0.2194  1.1906 -0.4263
   45CHL1   C16 4457   0.969   1.510   5.969  0.0665 -0.4144 -0.7026
   45CHL1  H16A 4458   1.015   1.414   5.938  0.3864 -0.7934  0.8862
   45CHL1  H16B 4459   0.873   1.529   5.916  0.1132  2.4253  0.0727
   45CHL1   C17 4460   1.058   1.633   5.947  0.0599  0.0728 -0.0934
   45CHL1   H17 4461   0.997   1.726   5.939 -2.4222 -1.4950 -0.4535
   45CHL1   C13 4462   1.134   1.643   6.091 -0.0931  0.1170 -0.7081
   45CHL1   C18 4463   1.253   1.544   6.090 -0.1123 -0.0520  0.5585
   45CHL1  H18A 4464   1.329   1.571   6.014  1.5640 -0.2438  2.1101
   45CHL1  H18B 4465   1.306   1.546   6.187  0.1989 -1.6441  0.4492
   45CHL1  H18C 4466   1.225   1.437   6.083  0.1844 -0.2566  2.1947
   45CHL1   C12 4467   1.184   1.781   6.121  0.0533  0.1663 -0.4344
   45CHL1  H12A 4468   1.271   1.817   6.062 -0.6399  0.2363 -1.4449
   45CHL1  H12B 4469   1.113   1.865   6.103 -0.1410  0.3068  0.8896
   45CHL1   C11 4470   1.225   1.797   6.267 -0.5320 -0.1767 -0.9344
   45CHL1  H11A 4471   1.322   1.743   6.266 -0.9962 -1.0858  0.7379
   45CHL1  H11B 4472   1.257   1.902   6.283  0.4642 -0.4745 -0.8732
   45CHL1    C9 4473   1.122   1.741   6.372 -0.2354 -0.3446 -0.0648
   45CHL1    H9 4474   1.026   1.797   6.372 -2.4498 -3.7364 -2.6874
   45CHL1   C10 4475   1.161   1.741   6.523 -0.3738 -0.6322  0.2041
   45CHL1   C19 4476   1.304   1.679   6.537  1.3823  0.3057 -0.1534
   45CHL1  H19A 4477   1.335   1.692   6.643  0.9257 -1.2450  0.2105
   45CHL1  H19B 4478   1.296   1.569   6.518 -2.1727  0.5753 -0.8084
   45CHL1  H19C 4479   1.381   1.735   6.481  1.6961  2.3096  2.1361
   45CHL1    C1 4480   1.170   1.893   6.570 -0.0225  0.0576  0.7440
   45CHL1   H1A 4481   1.252   1.942   6.513  0.4910  0.1887  1.5826
   45CHL1   H1B 4482   1.077   1.949   6.550  0.3269  0.2696 -0.3749
   45CHL1    C2 4483   1.190   1.913   6.720  0.2741 -1.3637  1.0177
   45CHL1   H2A 4484   1.179   2.023   6.729  1.4055 -1.0156 -1.1084
   45CHL1   H2B 4485   1.291   1.882   6.756 -0.1921 -1.6581  2.1376
   45CHL1   C20 4486   1.132   1.621   5.816  0.7428  0.4991  0.0376
   45CHL1   H20 4487   1.198   1.532   5.824 -2.2211 -1.8016  0.8684
   45CHL1   C21 4488   1.211   1.754   5.794 -0.0632 -0.3694 -0.2787
   45CHL1  H21A 4489   1.316   1.732   5.825 -0.1248 -1.0146 -0.5081
   45CHL1  H21B 4490   1.168   1.846   5.838  1.5861  1.3330 -2.0211
   45CHL1  H21C 4491   1.207   1.762   5.684 -2.5264 -2.3138 -0.4229
   45CHL1   C22 4492   1.039   1.589   5.696 -0.2983  0.6490 -0.2087
   45CHL1  H22A 4493   0.972   1.505   5.725  0.2507 -0.1135 -1.1066
   45CHL1  H22B 4494   0.987   1.685   5.676  0.7310  1.4019  0.6380
   45CHL1   C23 4495   1.115   1.544   5.563  0.0950 -0.2053 -0.1187
   45CHL1  H23A 4496   1.205   1.603   5.535  0.1889 -1.2743 -2.2433
   45CHL1  H23B 4497   1.144   1.438   5.581  0.7275  0.0561  0.4542
   45CHL1   C24 4498   1.021   1.529   5.438 -0.5381  0.3052  0.0116
   45CHL1  H24A 4499   0.929   1.471   5.463 -0.6568  1.1265  1.5939
   45CHL1  H24B 4500   0.985   1.629   5.406 -1.4438  0.0251  0.1268
   45CHL1   C25 4501   1.090   1.462   5.317 -0.4722  0.0373  0.2390
   45CHL1   H25 4502   1.141   1.367   5.346  1.5714  0.7672 -0.7659
   45CHL1   C26 4503   0.978   1.407   5.218 -0.4927  0.6436 -0.2534
   45CHL1  H26A 4504   1.026   1.380   5.122  2.3800  1.3794  0.8680
   45CHL1  H26B 4505   0.928   1.322   5.269 -2.2932  2.0836  0.5039
   45CHL1  H26C 4506   0.902   1.487   5.205 -3.7584 -2.2414 -0.4825
   45CHL1   C27 4507   1.179   1.570   5.249  0.0046 -0.0853  0.7813
   45CHL1  H27A 4508   1.118   1.655   5.212  1.8219  0.7279 -0.4568
   45CHL1  H27B 4509   1.254   1.602   5.323 -1.2419 -0.9859  2.5096
   45CHL1  H27C 4510   1.233   1.524   5.164 -1.1576  1.0494 -0.6380
   46CHL1    C3 4511   2.676   3.841   6.791 -0.3914  0.0273 -0.6860
   46CHL1    H3 4512   2.705   3.734   6.791  1.7950  0.5711 -0.2712
   46CHL1    O3 4513   2.665   3.879   6.933 -0.3095  1.0724  0.1934
   46CHL1   H3' 4514   2.748   3.858   6.977 -0.9533 -1.8705  0.2086
   46CHL1    C4 4515   2.783   3.926   6.716  0.5582  0.4727 -0.0138
   46CHL1   H4A 4516   2.762   4.035   6.721  0.3071  0.5943 -2.5772
   46CHL1   H4B 4517   2.886   3.914   6.757  1.1537  3.3266 -0.3937
   46CHL1    C5 4518   2.773   3.891   6.570 -0.9982 -0.8455 -0.1637
   46CHL1    C6 4519   2.881   3.858   6.504  0.0999 -0.7439  0.6094
   46CHL1    H6 4520   2.976   3.856   6.558  0.6674  0.2700 -0.3133
   46CHL1    C7 4521   2.888   3.840   6.352 -1.0625  0.6351 -0.5751
   46CHL1   H7A 4522   2.979   3.890   6.313 -0.1469 -1.9992 -2.0708
   46CHL1   H7B 4523   2.927   3.736   6.340  0.1263  0.4567  3.3409
   46CHL1    C8 4524   2.761   3.876   6.273  0.0395 -0.4697  0.5521
   46CHL1    H8 4525   2.759   3.986   6.257 -2.0276 -0.3804  1.2095
   46CHL1   C14 4526   2.751   3.809   6.139  0.1436 -0.2619  0.4993
   46CHL1   H14 4527   2.732   3.702   6.161 -0.7378 -0.0932  0.5987
   46CHL1   C15 4528   2.880   3.804   6.053 -0.1836 -0.4401  0.0725
   46CHL1  H15A 4529   2.930   3.903   6.061  0.0302 -0.6546  1.6648
   46CHL1  H15B 4530   2.952   3.723   6.075  2.5503  1.1011 -2.4806
   46CHL1   C16 4531   2.823   3.786   5.907  0.0527  0.4123  0.0626
   46CHL1  H16A 4532   2.860   3.868   5.841 -0.7062  0.5210 -0.2319
   46CHL1  H16B 4533   2.850   3.690   5.860  3.2312  2.8845 -3.7728
   46CHL1   C17 4534   2.665   3.781   5.927  0.3100 -0.1450 -0.1720
   46CHL1   H17 4535   2.645   3.674   5.952 -0.4625  0.4197  1.8854
   46CHL1   C13 4536   2.632   3.855   6.052 -0.2680 -0.9021 -0.1720
   46CHL1   C18 4537   2.637   4.007   6.024  0.5891  0.3317  0.1907
   46CHL1  H18A 4538   2.622   4.056   6.122  0.2398 -1.1111  0.8857
   46CHL1  H18B 4539   2.733   4.036   5.975  2.1419 -0.2300  2.7203
   46CHL1  H18C 4540   2.556   4.045   5.957  0.6511  2.5754  1.2916
   46CHL1   C12 4541   2.500   3.814   6.119 -0.7997  0.9996 -0.3905
   46CHL1  H12A 4542   2.407   3.836   6.063  0.5194  0.3322 -2.9919
   46CHL1  H12B 4543   2.509   3.703   6.120  0.2436  1.0680 -0.4226
   46CHL1   C11 4544   2.502   3.871   6.259  0.2246 -1.4016 -0.3999
   46CHL1  H11A 4545   2.491   3.981   6.247 -1.0383 -1.5270 -0.4407
   46CHL1  H11B 4546   2.416   3.827   6.312 -0.7436 -0.5603 -1.2251
   46CHL1    C9 4547   2.630   3.842   6.349 -0.1503  0.9730 -0.8230
   46CHL1    H9 4548   2.646   3.733   6.368 -1.4579  0.5669 -1.9074
   46CHL1   C10 4549   2.634   3.898   6.495  0.1306  0.1026  0.2463
   46CHL1   C19 4550   2.586   4.047   6.493 -0.1119 -0.2408  0.2369
   46CHL1  H19A 4551   2.653   4.099   6.421  0.9636  0.3997  1.6453
   46CHL1  H19B 4552   2.480   4.057   6.461 -0.3212 -0.5502  0.8234
   46CHL1  H19C 4553   2.610   4.096   6.589  0.6136 -1.4275  0.6889
   46CHL1    C1 4554   2.538   3.809   6.582 -0.3114  0.2679 -0.2346
   46CHL1   H1A 4555   2.435   3.833   6.547 -0.8617 -0.7846  0.5885
   46CHL1   H1B 4556   2.554   3.701   6.559 -0.6855  0.0567  0.4623
   46CHL1    C2 4557   2.541   3.852   6.727 -0.3273 -0.0338 -0.1096
   46CHL1   H2A 4558   2.468   3.792   6.784  0.8990 -1.4950 -0.0197
   46CHL1   H2B 4559   2.500   3.955   6.739  1.1677  0.3965  2.0529
   46CHL1   C20 4560   2.596   3.825   5.795  0.4116  0.2223  0.6760
   46CHL1   H20 4561   2.617   3.933   5.776  0.0347 -0.0569 -1.5352
   46CHL1   C21 4562   2.443   3.815   5.807 -0.5437 -0.4309  0.7230
   46CHL1  H21A 4563   2.395   3.825   5.707 -1.0683 -2.6914  0.7113
   46CHL1  H21B 4564   2.401   3.886   5.881  0.1296 -1.4988  2.1804
   46CHL1  H21C 4565   2.406   3.719   5.848  0.4581 -0.7492  0.9189
   46CHL1   C22 4566   2.643   3.732   5.670  0.5251 -0.2659 -0.6258
   46CHL1  H22A 4567   2.747   3.699   5.689  0.5121  0.6227  1.2023
   46CHL1  H22B 4568   2.587   3.637   5.676  2.0668 -1.1777 -0.0841
   46CHL1   C23 4569   2.646   3.790   5.534 -0.4917 -0.7345  0.3765
   46CHL1  H23A 4570   2.553   3.849   5.526 -1.4711 -1.8499  2.6420
   46CHL1  H23B 4571   2.739   3.846   5.509  1.1610 -2.1179  2.8950
   46CHL1   C24 4572   2.621   3.690   5.418  0.5906  0.1185  0.4938
   46CHL1  H24A 4573   2.686   3.602   5.438 -0.5726 -0.9043 -0.0897
   46CHL1  H24B 4574   2.515   3.658   5.420  0.3034  1.0607  1.5677
   46CHL1   C25 4575   2.644   3.749   5.275 -0.5573  0.0552 -0.4733
   46CHL1   H25 4576   2.742   3.801   5.278 -0.9129  0.7003  0.2590
   46CHL1   C26 4577   2.654   3.633   5.171 -0.2631  0.4837 -0.4848
   46CHL1  H26A 4578   2.665   3.678   5.070 -1.5552  0.1342 -0.8079
   46CHL1  H26B 4579   2.738   3.565   5.194  0.5078  1.1528 -1.2909
   46CHL1  H26C 4580   2.559   3.575   5.165  1.2663 -2.1917 -0.4709
   46CHL1   C27 4581   2.545   3.859   5.230 -0.1852 -0.0400 -0.6103
   46CHL1  H27A 4582   2.590   3.902   5.137 -0.4914 -0.6645 -1.0566
   46CHL1  H27B 4583   2.438   3.836   5.209 -0.7517  2.1796 -0.4436
   46CHL1  H27C 4584   2.538   3.935   5.310 -0.4664 -1.7948  1.0974
   47CHL1    C3 4585   6.153   1.418   6.515  0.2227  0.4301 -0.5941
   47CHL1    H3 4586   6.236   1.489   6.501 -0.7634  2.2208  1.9337
   47CHL1    O3 4587   6.122   1.421   6.656  0.0284  0.6496  0.4891
   47CHL1   H3' 4588   6.075   1.339   6.676  1.0564  0.6136  3.1281
   47CHL1    C4 4589   6.026   1.453   6.443  0.2170  0.5646 -0.4653
   47CHL1   H4A 4590   5.961   1.366   6.467  1.3990 -0.5546 -1.2009
   47CHL1   H4B 4591   5.975   1.543   6.483 -1.3011 -0.8846  1.0311
   47CHL1    C5 4592   6.048   1.451   6.297  0.5449  0.1659  0.2203
   47CHL1    C6 4593   6.010   1.552   6.219 -0.3355 -0.1800  0.2769
   47CHL1    H6 4594   5.972   1.646   6.262  1.8837  0.8021  0.2390
   47CHL1    C7 4595   6.036   1.554   6.073  0.0134 -0.0483  0.1188
   47CHL1   H7A 4596   5.955   1.606   6.017  3.0372  3.1369 -1.6280
   47CHL1   H7B 4597   6.130   1.613   6.071 -1.0313  1.7396  1.0217
   47CHL1    C8 4598   6.078   1.411   6.005  1.3115  0.4836 -0.9201
   47CHL1    H8 4599   5.981   1.358   5.997 -0.1945  2.8612  0.2537
   47CHL1   C14 4600   6.133   1.427   5.870 -0.2767 -0.2749 -0.2036
   47CHL1   H14 4601   6.222   1.492   5.884 -0.8002  0.0750  1.8194
   47CHL1   C15 4602   6.050   1.515   5.763  0.1668  0.7691 -0.4916
   47CHL1  H15A 4603   5.945   1.484   5.748  0.2283 -0.2069  0.8227
   47CHL1  H15B 4604   6.055   1.623   5.788  1.5147  0.5906  0.1139
   47CHL1   C16 4605   6.114   1.467   5.634  0.3972  0.0359  0.8768
   47CHL1  H16A 4606   6.043   1.423   5.561  2.3493  0.3039 -1.2995
   47CHL1  H16B 4607   6.174   1.547   5.584 -2.1349  1.1303 -0.6038
   47CHL1   C17 4608   6.219   1.356   5.665 -0.0603  0.6908  0.1078
   47CHL1   H17 4609   6.315   1.408   5.683 -0.3397  1.1285  0.3447
   47CHL1   C13 4610   6.181   1.297   5.801 -0.0799 -0.7032  0.4595
   47CHL1   C18 4611   6.054   1.213   5.786 -0.4268 -0.1355 -0.9059
   47CHL1  H18A 4612   5.970   1.254   5.726 -1.8885 -0.9698  0.5108
   47CHL1  H18B 4613   6.091   1.120   5.737  2.3608  0.5264 -0.2484
   47CHL1  H18C 4614   6.014   1.188   5.886 -2.3014 -0.3583 -1.6651
   47CHL1   C12 4615   6.288   1.233   5.893 -0.1593  0.0619  0.1664
   47CHL1  H12A 4616   6.320   1.138   5.846  2.8184  0.8790  0.3348
   47CHL1  H12B 4617   6.378   1.298   5.903 -0.4009  0.3531  0.4629
   47CHL1   C11 4618   6.227   1.211   6.033 -0.1917  0.1552  1.2259
   47CHL1  H11A 4619   6.151   1.129   6.025 -0.2362  0.3955 -2.3583
   47CHL1  H11B 4620   6.310   1.171   6.095 -0.5946 -1.6885  0.6559
   47CHL1    C9 4621   6.170   1.338   6.098 -0.3856 -0.3590 -0.0910
   47CHL1    H9 4622   6.257   1.407   6.102 -0.3797 -0.2347 -1.5828
   47CHL1   C10 4623   6.110   1.325   6.238 -0.7429 -0.2185  0.6352
   47CHL1   C19 4624   5.991   1.218   6.221 -1.1286 -0.3510  0.1108
   47CHL1  H19A 4625   5.951   1.180   6.318  0.9192  2.2014  2.0878
   47CHL1  H19B 4626   5.905   1.249   6.158 -1.7612 -0.8671  0.6964
   47CHL1  H19C 4627   6.034   1.126   6.177 -0.4081  0.4815 -0.9653
   47CHL1    C1 4628   6.222   1.267   6.328 -0.3713  0.4489  0.4563
   47CHL1   H1A 4629   6.263   1.167   6.303 -0.0081  0.2341  1.8010
   47CHL1   H1B 4630   6.309   1.336   6.319  1.5250 -1.7605  0.5979
   47CHL1    C2 4631   6.192   1.274   6.480  0.7134 -0.3343  0.1045
   47CHL1   H2A 4632   6.283   1.240   6.534  1.5673  1.3223 -0.2080
   47CHL1   H2B 4633   6.102   1.210   6.488  0.8050 -0.4306  0.3933
   47CHL1   C20 4634   6.233   1.260   5.546  0.2663  0.3663 -0.2852
   47CHL1   H20 4635   6.132   1.226   5.513  0.9310  0.5810 -2.6843
   47CHL1   C21 4636   6.313   1.144   5.585 -1.1729  0.0630 -0.0862
   47CHL1  H21A 4637   6.349   1.080   5.501 -0.6778  1.1433 -0.7114
   47CHL1  H21B 4638   6.269   1.076   5.662 -3.5337 -0.3930 -1.7521
   47CHL1  H21C 4639   6.399   1.194   5.634 -2.6467  4.3918 -1.5267
   47CHL1   C22 4640   6.293   1.346   5.431 -0.0548 -0.6621 -0.3382
   47CHL1  H22A 4641   6.241   1.444   5.422  3.4012  1.5611  1.5286
   47CHL1  H22B 4642   6.398   1.374   5.454 -0.4340 -0.3844  1.2049
   47CHL1   C23 4643   6.280   1.286   5.299 -0.3368 -0.3455 -0.3487
   47CHL1  H23A 4644   6.341   1.194   5.306 -0.6161 -0.5412 -0.4350
   47CHL1  H23B 4645   6.176   1.245   5.297 -2.0955  3.4950  1.5412
   47CHL1   C24 4646   6.300   1.377   5.179 -0.1171  0.7982  1.1821
   47CHL1  H24A 4647   6.238   1.469   5.189 -1.2921  0.2172 -0.3900
   47CHL1  H24B 4648   6.407   1.404   5.178  0.2079 -0.4726  0.2742
   47CHL1   C25 4649   6.249   1.320   5.045  0.0088  0.6696 -0.2557
   47CHL1   H25 4650   6.159   1.264   5.078  1.5916 -0.6787  2.1000
   47CHL1   C26 4651   6.213   1.425   4.943 -0.5500  0.1022  0.0059
   47CHL1  H26A 4652   6.152   1.400   4.853  0.6320 -1.7277 -0.3296
   47CHL1  H26B 4653   6.157   1.512   4.984  1.6359  2.1752 -1.1650
   47CHL1  H26C 4654   6.310   1.472   4.919 -1.1097  1.9128  1.0828
   47CHL1   C27 4655   6.354   1.226   4.980  0.4750 -0.0502  0.6219
   47CHL1  H27A 4656   6.352   1.125   5.026  0.1799 -0.0799  0.5500
   47CHL1  H27B 4657   6.340   1.212   4.871  0.9487  0.2617  0.5181
   47CHL1  H27C 4658   6.456   1.265   4.999  0.0216  0.7467  1.5435
   48CHL1    C3 4659   3.056   4.640   6.548 -0.4392 -0.4425  0.1672
   48CHL1    H3 4660   3.037   4.541   6.503  0.0866 -0.0305 -1.0050
   48CHL1    O3 4661   3.045   4.633   6.690  0.7354 -0.6257  0.2319
   48CHL1   H3' 4662   3.115   4.689   6.724  1.5002  0.3067 -2.5758
   48CHL1    C4 4663   3.201   4.676   6.506  0.2156 -0.5211 -0.5398
   48CHL1   H4A 4664   3.238   4.771   6.549 -0.8975  0.9937 -2.7950
   48CHL1   H4B 4665   3.259   4.590   6.547 -0.8155 -0.3039  1.5617
   48CHL1    C5 4666   3.207   4.679   6.353  1.4039  0.3565 -0.7397
   48CHL1    C6 4667   3.295   4.609   6.283  0.3636  0.6934  0.5670
   48CHL1    H6 4668   3.368   4.542   6.331  1.3149  1.1777 -0.1541
   48CHL1    C7 4669   3.297   4.614   6.133 -0.6253 -0.4144  0.1980
   48CHL1   H7A 4670   3.405   4.613   6.107 -0.6173 -0.7779  0.2356
   48CHL1   H7B 4671   3.261   4.516   6.096  2.8667 -1.8057  0.0550
   48CHL1    C8 4672   3.238   4.742   6.074  0.0355  0.0603  0.2441
   48CHL1    H8 4673   3.292   4.834   6.104 -1.0201  0.3216  1.4707
   48CHL1   C14 4674   3.229   4.726   5.924 -0.6430  0.2696 -0.3674
   48CHL1   H14 4675   3.163   4.640   5.899  0.5897 -1.0019  0.5731
   48CHL1   C15 4676   3.356   4.702   5.844  0.2828  0.0943  0.2728
   48CHL1  H15A 4677   3.432   4.777   5.875  0.9945  0.0115 -1.2030
   48CHL1  H15B 4678   3.403   4.602   5.855  0.2660 -0.1003 -1.1664
   48CHL1   C16 4679   3.315   4.716   5.700  0.4276 -0.1660  0.5756
   48CHL1  H16A 4680   3.392   4.781   5.653  1.9857 -2.0532  0.3729
   48CHL1  H16B 4681   3.317   4.619   5.645 -1.8097  0.2620 -0.3604
   48CHL1   C17 4682   3.175   4.781   5.708  0.4360  0.4073  0.4269
   48CHL1   H17 4683   3.105   4.696   5.698  0.7513  0.1657  0.2439
   48CHL1   C13 4684   3.168   4.842   5.846  0.9346 -0.5010  0.3779
   48CHL1   C18 4685   3.254   4.968   5.851  0.1657  0.1935 -0.5298
   48CHL1  H18A 4686   3.345   4.973   5.787  1.7311 -0.3047  1.5416
   48CHL1  H18B 4687   3.189   5.054   5.823 -1.9597 -1.8699 -2.3001
   48CHL1  H18C 4688   3.278   4.992   5.957 -1.1471 -0.8214  0.0192
   48CHL1   C12 4689   3.024   4.863   5.909 -0.9029 -0.3765 -0.3462
   48CHL1  H12A 4690   2.986   4.955   5.860 -1.0392 -0.4248 -0.3348
   48CHL1  H12B 4691   2.965   4.774   5.878 -2.0305  0.0562  0.4653
   48CHL1   C11 4692   3.018   4.885   6.061  0.3636  0.0745  0.3621
   48CHL1  H11A 4693   3.059   4.986   6.085  1.3885 -0.7359  2.2195
   48CHL1  H11B 4694   2.914   4.892   6.099  0.5928  0.3079  0.9607
   48CHL1    C9 4695   3.096   4.767   6.135 -0.3903 -0.2381  0.6879
   48CHL1    H9 4696   3.039   4.677   6.101 -0.3935 -0.8551  2.2665
   48CHL1   C10 4697   3.103   4.779   6.292  0.3836 -0.1389  0.3263
   48CHL1   C19 4698   3.145   4.925   6.324 -1.4393 -0.6128  0.8319
   48CHL1  H19A 4699   3.073   5.003   6.292  2.1320  1.6667 -2.6999
   48CHL1  H19B 4700   3.152   4.931   6.434 -1.4166  1.3325  0.7591
   48CHL1  H19C 4701   3.241   4.944   6.271 -2.1840 -0.7855 -0.6209
   48CHL1    C1 4702   2.960   4.754   6.345 -0.5872 -0.0559 -1.1390
   48CHL1   H1A 4703   2.880   4.825   6.312 -1.2878 -0.5211 -0.4753
   48CHL1   H1B 4704   2.935   4.653   6.306 -0.2036 -0.2606 -0.8544
   48CHL1    C2 4705   2.953   4.749   6.497  0.6157  0.1036  0.1942
   48CHL1   H2A 4706   2.851   4.728   6.535  0.0140 -1.1044 -1.9013
   48CHL1   H2B 4707   2.974   4.847   6.545 -0.6983  1.8673 -2.5783
   48CHL1   C20 4708   3.147   4.862   5.581  0.1623 -0.4545 -0.4807
   48CHL1   H20 4709   3.205   4.957   5.589 -1.2261  0.3783  0.1332
   48CHL1   C21 4710   3.003   4.885   5.573 -0.0871 -0.6246  0.1267
   48CHL1  H21A 4711   2.964   4.909   5.674  0.7550  0.8141  0.1400
   48CHL1  H21B 4712   2.993   4.980   5.515  1.8033 -0.3560  0.1865
   48CHL1  H21C 4713   2.935   4.802   5.544 -0.8845 -1.3063  3.5612
   48CHL1   C22 4714   3.177   4.780   5.450  0.1241  0.0201 -0.1170
   48CHL1  H22A 4715   3.280   4.739   5.443  0.2175  0.3711 -0.9676
   48CHL1  H22B 4716   3.103   4.700   5.435 -0.3841  0.4700 -0.0261
   48CHL1   C23 4717   3.167   4.861   5.321 -0.3959 -0.3206 -0.2058
   48CHL1  H23A 4718   3.169   4.784   5.242  0.2704 -1.0669  0.5178
   48CHL1  H23B 4719   3.068   4.910   5.303 -0.3781  0.9656  2.5521
   48CHL1   C24 4720   3.275   4.967   5.315  0.4060  0.0760  0.0460
   48CHL1  H24A 4721   3.251   5.040   5.396 -0.5747  0.5226 -0.6233
   48CHL1  H24B 4722   3.374   4.931   5.349 -0.2119 -2.3777 -0.5426
   48CHL1   C25 4723   3.305   5.030   5.179 -0.0982 -0.3787  0.1391
   48CHL1   H25 4724   3.206   5.054   5.135  0.2545  0.6718 -0.1104
   48CHL1   C26 4725   3.393   5.154   5.192  0.6153  0.2903 -0.3653
   48CHL1  H26A 4726   3.426   5.195   5.094  0.7230  1.7762  0.2630
   48CHL1  H26B 4727   3.337   5.230   5.250  0.9351  2.0998 -2.2710
   48CHL1  H26C 4728   3.489   5.129   5.241  0.0296 -3.1467 -0.7125
   48CHL1   C27 4729   3.366   4.923   5.089  0.3273 -0.0226  0.9589
   48CHL1  H27A 4730   3.289   4.852   5.051 -1.3056  1.5678  1.1773
   48CHL1  H27B 4731   3.409   4.974   5.000 -0.9266 -1.1970 -0.3592
   48CHL1  H27C 4732   3.455   4.870   5.130  0.4852 -0.0887  0.5333
   49CHL1    C3 4733   1.102   3.913   3.294  0.3226 -0.1231  0.0248
   49CHL1    H3 4734   1.064   4.013   3.323  0.8394  0.0242  0.1981
   49CHL1    O3 4735   1.106   3.929   3.151 -0.1910  0.4462 -0.5684
   49CHL1   H3' 4736   1.156   3.854   3.118 -1.2025 -1.1573  1.2833
   49CHL1    C4 4737   1.240   3.892   3.358  0.1979  0.0134  0.1676
   49CHL1   H4A 4738   1.286   3.794   3.333  0.6295  0.1979  0.2341
   49CHL1   H4B 4739   1.298   3.978   3.318  0.2198 -0.3381 -0.5779
   49CHL1    C5 4740   1.231   3.886   3.505 -0.1436 -0.1000  0.0073
   49CHL1    C6 4741   1.310   3.970   3.583 -0.4056  0.3350  0.6583
   49CHL1    H6 4742   1.374   4.042   3.530 -0.0628  0.6490  1.4742
   49CHL1    C7 4743   1.319   3.967   3.731 -0.4203  0.2544 -0.1658
   49CHL1   H7A 4744   1.424   3.974   3.764  0.5825 -2.3036 -2.4345
   49CHL1   H7B 4745   1.263   4.054   3.772 -0.6162  0.6506 -1.2398
   49CHL1    C8 4746   1.256   3.835   3.789 -0.4671  0.0962 -0.0361
   49CHL1    H8 4747   1.329   3.752   3.791  1.0813  1.3811 -0.5279
   49CHL1   C14 4748   1.219   3.869   3.936 -0.4333 -0.3719 -0.0705
   49CHL1   H14 4749   1.149   3.954   3.941 -1.2342 -1.1150  3.0260
   49CHL1   C15 4750   1.332   3.931   4.021  0.6651  0.1368  1.3686
   49CHL1  H15A 4751   1.426   3.882   3.986 -0.5049 -0.8376 -0.6129
   49CHL1  H15B 4752   1.333   4.038   3.992  1.0263 -0.5608 -1.4695
   49CHL1   C16 4753   1.283   3.909   4.165  0.3625  0.3527  0.1564
   49CHL1  H16A 4754   1.364   3.879   4.234 -0.6310 -2.2107  0.3347
   49CHL1  H16B 4755   1.248   4.007   4.202  0.4027  0.2115  0.5646
   49CHL1   C17 4756   1.160   3.816   4.155  0.5232  0.1037  0.1227
   49CHL1   H17 4757   1.072   3.882   4.174  0.5949 -0.3569  2.3382
   49CHL1   C13 4758   1.161   3.757   4.016 -0.5772  0.5110 -0.0159
   49CHL1   C18 4759   1.253   3.630   4.018  0.0180  0.1589 -0.0524
   49CHL1  H18A 4760   1.268   3.597   3.913 -0.2904 -0.2718  0.0370
   49CHL1  H18B 4761   1.350   3.658   4.064  1.1674 -1.0545 -1.5995
   49CHL1  H18C 4762   1.203   3.543   4.066  0.0798 -0.5897 -1.2870
   49CHL1   C12 4763   1.032   3.730   3.942 -0.0477 -0.0202  0.3074
   49CHL1  H12A 4764   0.966   3.661   3.998 -0.9261  0.1215 -0.5278
   49CHL1  H12B 4765   0.978   3.827   3.947  0.9831  0.7556 -1.9628
   49CHL1   C11 4766   1.044   3.695   3.794 -0.3720  0.7176  0.4345
   49CHL1  H11A 4767   1.093   3.596   3.781  0.4451  1.2381 -0.6420
   49CHL1  H11B 4768   0.939   3.684   3.757 -0.2381  2.0832 -0.3984
   49CHL1    C9 4769   1.126   3.804   3.711  0.4594  0.2025 -0.2899
   49CHL1    H9 4770   1.062   3.894   3.721  1.4019  0.8949 -0.3634
   49CHL1   C10 4771   1.141   3.782   3.560  0.0839 -0.7007 -0.1975
   49CHL1   C19 4772   1.200   3.642   3.544 -0.6279  0.1317 -0.1079
   49CHL1  H19A 4773   1.235   3.626   3.439 -1.0350  1.6846 -0.5065
   49CHL1  H19B 4774   1.298   3.635   3.596 -0.6661 -0.9657 -0.1712
   49CHL1  H19C 4775   1.127   3.564   3.573 -0.0100 -0.1597  0.6894
   49CHL1    C1 4776   1.000   3.803   3.498  0.0443 -0.1066  0.8482
   49CHL1   H1A 4777   0.937   3.716   3.527  0.5150 -0.5877  0.4241
   49CHL1   H1B 4778   0.953   3.898   3.532 -0.3705  0.1856 -0.4939
   49CHL1    C2 4779   0.999   3.802   3.342 -0.0742  0.2479  0.3430
   49CHL1   H2A 4780   0.896   3.807   3.301  0.4220  1.1273 -0.8567
   49CHL1   H2B 4781   1.041   3.705   3.309  2.2414  1.4316 -0.4287
   49CHL1   C20 4782   1.145   3.712   4.270 -0.4770 -0.9604 -0.3737
   49CHL1   H20 4783   1.246   3.666   4.273  0.1916  0.4630  0.1995
   49CHL1   C21 4784   1.021   3.628   4.264  0.5521  0.3361 -0.2007
   49CHL1  H21A 4785   1.011   3.568   4.357 -0.4811  0.0286 -0.4894
   49CHL1  H21B 4786   1.020   3.563   4.173  0.9117  0.4247 -0.2704
   49CHL1  H21C 4787   0.930   3.691   4.254 -0.5641 -1.1357  0.1907
   49CHL1   C22 4788   1.129   3.794   4.405 -0.5315  0.1247  0.7246
   49CHL1  H22A 4789   1.190   3.887   4.403  3.6473 -2.3268 -1.8183
   49CHL1  H22B 4790   1.024   3.823   4.428 -0.0913  2.3500  0.0939
   49CHL1   C23 4791   1.190   3.712   4.515  0.2534 -0.0578  0.6334
   49CHL1  H23A 4792   1.126   3.624   4.538 -0.5933  0.3205 -0.2115
   49CHL1  H23B 4793   1.298   3.694   4.500  0.5371  1.2220  1.0316
   49CHL1   C24 4794   1.196   3.797   4.650  0.0614 -0.7021  0.4092
   49CHL1  H24A 4795   1.245   3.894   4.626  2.3673 -2.2388 -1.6242
   49CHL1  H24B 4796   1.099   3.817   4.701  2.0170  1.7350  3.5760
   49CHL1   C25 4797   1.299   3.738   4.748  0.2462  0.6922 -0.6206
   49CHL1   H25 4798   1.398   3.722   4.700  0.5634  2.0172 -0.4630
   49CHL1   C26 4799   1.324   3.825   4.873  0.4262 -0.8608  0.1401
   49CHL1  H26A 4800   1.366   3.925   4.850  1.2381 -1.5193 -1.3398
   49CHL1  H26B 4801   1.227   3.832   4.928  0.0115 -1.0703 -0.5531
   49CHL1  H26C 4802   1.397   3.783   4.945 -0.5622 -0.3353  1.5033
   49CHL1   C27 4803   1.257   3.598   4.796  0.7790  0.7559 -0.4325
   49CHL1  H27A 4804   1.275   3.525   4.714 -0.3441  3.4482 -3.2699
   49CHL1  H27B 4805   1.316   3.556   4.880  0.1802  1.9181  0.5998
   49CHL1  H27C 4806   1.149   3.597   4.825  1.1070 -0.6979  0.9130
   50CHL1    C3 4807   1.548   2.463   3.133 -0.1899 -0.6828 -0.2368
   50CHL1    H3 4808   1.448   2.503   3.103  0.0169 -2.2282 -3.4969
   50CHL1    O3 4809   1.618   2.442   3.010  0.2008 -0.0181  0.1536
   50CHL1   H3' 4810   1.697   2.391   3.030  0.7371 -0.4133 -2.5804
   50CHL1    C4 4811   1.637   2.560   3.207  0.1231  0.6701 -1.6320
   50CHL1   H4A 4812   1.734   2.510   3.226 -1.5079 -1.8099  0.9485
   50CHL1   H4B 4813   1.657   2.652   3.148  0.2356 -0.1866 -3.0022
   50CHL1    C5 4814   1.585   2.587   3.349 -0.2808 -0.2302  0.4059
   50CHL1    C6 4815   1.552   2.712   3.380  0.0879  0.4987 -0.2039
   50CHL1    H6 4816   1.564   2.787   3.301 -2.2858  0.0550 -1.0643
   50CHL1    C7 4817   1.524   2.755   3.525 -0.2792  0.4078 -0.1509
   50CHL1   H7A 4818   1.581   2.847   3.550 -0.6861  0.6623 -0.1601
   50CHL1   H7B 4819   1.415   2.775   3.534 -0.4636 -0.1323 -1.0207
   50CHL1    C8 4820   1.570   2.646   3.624 -0.0593 -0.0039  0.2736
   50CHL1    H8 4821   1.681   2.636   3.625 -0.1159 -0.6988  0.2452
   50CHL1   C14 4822   1.508   2.675   3.764  0.2749  0.2633  0.0132
   50CHL1   H14 4823   1.399   2.690   3.749  0.0117 -2.9728 -2.5618
   50CHL1   C15 4824   1.552   2.810   3.828  1.0184 -0.0842  0.2218
   50CHL1  H15A 4825   1.661   2.830   3.828  0.7784  1.4035 -1.2574
   50CHL1  H15B 4826   1.512   2.883   3.754 -1.3045 -1.1383  0.3268
   50CHL1   C16 4827   1.500   2.803   3.971 -0.1713  0.5320  0.4597
   50CHL1  H16A 4828   1.579   2.838   4.041 -0.1568 -0.4051  0.9320
   50CHL1  H16B 4829   1.408   2.865   3.979  0.4121  1.6965 -1.3646
   50CHL1   C17 4830   1.457   2.650   3.990 -0.4501 -0.4945 -0.0063
   50CHL1   H17 4831   1.347   2.642   3.976 -0.6392 -1.8554  1.7843
   50CHL1   C13 4832   1.518   2.572   3.872  0.1785  1.0143 -0.7367
   50CHL1   C18 4833   1.666   2.542   3.909 -0.0260 -0.4922  1.0956
   50CHL1  H18A 4834   1.673   2.452   3.974 -0.1511 -0.7330  0.7766
   50CHL1  H18B 4835   1.727   2.518   3.819  0.6763 -0.6373  1.5975
   50CHL1  H18C 4836   1.714   2.625   3.965 -1.4925  1.8525 -0.9285
   50CHL1   C12 4837   1.448   2.446   3.819 -0.0520 -0.0926  0.1656
   50CHL1  H12A 4838   1.429   2.356   3.882 -1.2196 -0.5344 -0.7598
   50CHL1  H12B 4839   1.340   2.471   3.808 -0.3780 -1.1052  0.8214
   50CHL1   C11 4840   1.516   2.393   3.690  0.5800 -0.5868  0.5771
   50CHL1  H11A 4841   1.623   2.364   3.700  1.3896  0.9123 -2.5770
   50CHL1  H11B 4842   1.464   2.305   3.645  1.1072 -0.7538  0.2827
   50CHL1    C9 4843   1.521   2.505   3.577 -0.2476 -0.8170 -0.8146
   50CHL1    H9 4844   1.416   2.524   3.547 -0.4671 -0.7833 -0.0483
   50CHL1   C10 4845   1.579   2.461   3.436  0.0272 -0.2604 -0.7567
   50CHL1   C19 4846   1.710   2.386   3.456 -0.1482  0.3387  0.2356
   50CHL1  H19A 4847   1.754   2.360   3.357 -0.2233 -3.0269  0.9601
   50CHL1  H19B 4848   1.788   2.444   3.510  1.3258 -1.8860  0.6075
   50CHL1  H19C 4849   1.707   2.290   3.512  0.5913 -0.4281 -0.9860
   50CHL1    C1 4850   1.484   2.369   3.353  0.2505 -0.6064 -0.0289
   50CHL1   H1A 4851   1.472   2.279   3.417  1.0597  1.1528  2.7796
   50CHL1   H1B 4852   1.379   2.405   3.362  0.7483  0.7839  0.4555
   50CHL1    C2 4853   1.536   2.334   3.210  0.4653  0.0928 -0.3524
   50CHL1   H2A 4854   1.463   2.265   3.162  1.6375 -0.0150 -2.0854
   50CHL1   H2B 4855   1.636   2.286   3.218  0.2339 -0.1779  1.3106
   50CHL1   C20 4856   1.482   2.593   4.133 -0.2775 -0.4815 -1.3382
   50CHL1   H20 4857   1.589   2.586   4.163 -0.6973 -1.4194  0.0268
   50CHL1   C21 4858   1.420   2.452   4.159 -0.2905 -0.0546 -0.8110
   50CHL1  H21A 4859   1.427   2.419   4.265 -1.3338  1.8641 -0.0980
   50CHL1  H21B 4860   1.478   2.376   4.102 -1.3741 -2.0969  0.7027
   50CHL1  H21C 4861   1.312   2.440   4.135 -0.2658 -1.3396 -0.3724
   50CHL1   C22 4862   1.437   2.696   4.247 -0.0066  0.0679 -0.0399
   50CHL1  H22A 4863   1.474   2.799   4.225  0.6741 -0.2788 -0.5556
   50CHL1  H22B 4864   1.329   2.702   4.272  0.1389 -1.7496  1.2485
   50CHL1   C23 4865   1.482   2.656   4.384 -0.5681  0.5345  0.2513
   50CHL1  H23A 4866   1.458   2.549   4.401  0.4949  0.3229  0.5074
   50CHL1  H23B 4867   1.592   2.654   4.400 -0.7042  0.3338  1.2294
   50CHL1   C24 4868   1.416   2.748   4.498 -1.4999  1.2312  0.4056
   50CHL1  H24A 4869   1.454   2.852   4.491 -0.7991  1.1133  1.9536
   50CHL1  H24B 4870   1.306   2.735   4.494 -1.2305 -1.5195 -0.0639
   50CHL1   C25 4871   1.435   2.708   4.642 -0.0310 -0.7274  0.0012
   50CHL1   H25 4872   1.422   2.598   4.656  1.9002 -0.9627  0.2563
   50CHL1   C26 4873   1.569   2.744   4.698 -0.7741  0.6304 -0.2534
   50CHL1  H26A 4874   1.587   2.850   4.673 -3.2089  0.7421 -1.8784
   50CHL1  H26B 4875   1.563   2.733   4.809 -2.8344  2.1315 -0.1528
   50CHL1  H26C 4876   1.653   2.678   4.665 -1.4356 -0.1244 -0.4649
   50CHL1   C27 4877   1.317   2.773   4.729 -0.2339  0.3992 -1.1448
   50CHL1  H27A 4878   1.340   2.880   4.746 -1.3060  0.5489 -0.5322
   50CHL1  H27B 4879   1.219   2.752   4.681  0.0244 -2.3466 -0.6499
   50CHL1  H27C 4880   1.309   2.718   4.825  1.4643  1.1297 -0.5540
   51CHL1    C3 4881   5.326   2.389   3.155 -0.0994 -0.6369  0.4259
   51CHL1    H3 4882   5.428   2.427   3.133  0.7374 -2.0626  1.6310
   51CHL1    O3 4883   5.243   2.383   3.038  0.1646  0.3408 -0.1065
   51CHL1   H3' 4884   5.213   2.474   3.030  1.1892  0.7593  0.5619
   51CHL1    C4 4885   5.350   2.242   3.199 -0.2445 -0.1248 -0.7493
   51CHL1   H4A 4886   5.250   2.193   3.205 -0.0085 -0.4419  0.8969
   51CHL1   H4B 4887   5.391   2.184   3.114  0.4050  0.6864 -1.0112
   51CHL1    C5 4888   5.405   2.233   3.341 -0.6781  0.1020  0.7064
   51CHL1    C6 4889   5.518   2.165   3.355 -0.0866  0.6854  0.0553
   51CHL1    H6 4890   5.558   2.113   3.267 -2.9364 -0.9590 -0.4181
   51CHL1    C7 4891   5.584   2.151   3.483 -0.4989 -0.4493 -1.6611
   51CHL1   H7A 4892   5.640   2.056   3.499  1.9260  1.1244 -0.2292
   51CHL1   H7B 4893   5.676   2.212   3.476 -0.0156 -0.5041  2.0524
   51CHL1    C8 4894   5.502   2.196   3.614 -0.1500 -0.2098  0.2515
   51CHL1    H8 4895   5.421   2.122   3.632  0.8078 -0.8886  2.0049
   51CHL1   C14 4896   5.586   2.222   3.735  0.0592 -0.4930  0.1532
   51CHL1   H14 4897   5.655   2.306   3.712  0.9921 -0.5727  2.4194
   51CHL1   C15 4898   5.673   2.105   3.783  0.2719 -0.6710  0.0656
   51CHL1  H15A 4899   5.608   2.017   3.805 -1.7463  1.0648  1.4665
   51CHL1  H15B 4900   5.755   2.087   3.710 -0.3456 -1.9406 -0.3579
   51CHL1   C16 4901   5.722   2.149   3.924  0.5810  0.1074 -0.3322
   51CHL1  H16A 4902   5.700   2.066   3.995  0.3700 -1.0040 -1.6482
   51CHL1  H16B 4903   5.829   2.179   3.916  0.4249  0.1811 -3.0706
   51CHL1   C17 4904   5.631   2.272   3.962 -0.6654 -0.1470 -0.0565
   51CHL1   H17 4905   5.694   2.359   3.934  2.2636 -2.2567 -0.5551
   51CHL1   C13 4906   5.514   2.275   3.861  0.2421 -0.1666  0.1664
   51CHL1   C18 4907   5.403   2.176   3.915  0.4549  0.4084 -0.1450
   51CHL1  H18A 4908   5.441   2.076   3.946 -3.3853 -1.0642  0.4709
   51CHL1  H18B 4909   5.348   2.214   4.004  1.4590  0.3152  0.5245
   51CHL1  H18C 4910   5.334   2.149   3.832 -1.6610 -0.0832  1.6444
   51CHL1   C12 4911   5.453   2.412   3.821  0.1809  0.6370  0.0928
   51CHL1  H12A 4912   5.387   2.457   3.898 -0.0269  0.9147 -0.2450
   51CHL1  H12B 4913   5.534   2.481   3.790  1.4268 -0.5872  0.5205
   51CHL1   C11 4914   5.367   2.393   3.699 -0.0126  0.7868 -0.0237
   51CHL1  H11A 4915   5.293   2.320   3.737  0.7711  0.7634  1.5126
   51CHL1  H11B 4916   5.318   2.489   3.671 -1.0735  0.0607 -0.7675
   51CHL1    C9 4917   5.439   2.337   3.577 -0.8297  0.1766  0.5261
   51CHL1    H9 4918   5.530   2.397   3.552  0.8363 -2.0882  0.7914
   51CHL1   C10 4919   5.345   2.328   3.451 -0.3899  0.1226 -0.4557
   51CHL1   C19 4920   5.208   2.265   3.482 -0.0982  0.3124 -0.4352
   51CHL1  H19A 4921   5.224   2.165   3.528  0.3514  0.4201 -0.3464
   51CHL1  H19B 4922   5.156   2.328   3.557 -0.0136 -0.2221  0.0742
   51CHL1  H19C 4923   5.143   2.253   3.393 -1.7861 -2.9046  1.0500
   51CHL1    C1 4924   5.330   2.473   3.389  0.0980 -0.0667 -0.8298
   51CHL1   H1A 4925   5.268   2.524   3.466  0.1535 -1.1169 -0.0713
   51CHL1   H1B 4926   5.434   2.512   3.388  0.4752 -0.9972  0.2165
   51CHL1    C2 4927   5.262   2.473   3.259  0.5936 -0.0655 -0.4043
   51CHL1   H2A 4928   5.250   2.576   3.220  0.4966 -0.1549 -0.6084
   51CHL1   H2B 4929   5.160   2.432   3.277  0.6718 -1.8849 -3.4400
   51CHL1   C20 4930   5.607   2.281   4.115  0.0518  0.3814  0.8237
   51CHL1   H20 4931   5.562   2.185   4.147 -0.7574  0.2194 -0.7009
   51CHL1   C21 4932   5.515   2.403   4.142  0.0851 -0.2593 -0.8243
   51CHL1  H21A 4933   5.414   2.364   4.117  0.9303 -2.6025 -0.8314
   51CHL1  H21B 4934   5.527   2.489   4.072 -2.4971 -0.4171 -1.5665
   51CHL1  H21C 4935   5.523   2.442   4.245 -1.0934 -0.6369 -0.5751
   51CHL1   C22 4936   5.748   2.292   4.187  0.1292 -0.8503 -0.5478
   51CHL1  H22A 4937   5.819   2.219   4.143  0.0493 -0.2992 -1.6077
   51CHL1  H22B 4938   5.793   2.392   4.170 -1.2073  0.5173  2.9386
   51CHL1   C23 4939   5.741   2.275   4.344 -0.3981  0.0590  0.5630
   51CHL1  H23A 4940   5.694   2.366   4.387 -2.1583 -1.0569  1.1065
   51CHL1  H23B 4941   5.678   2.186   4.365  1.1072 -0.7974  1.6406
   51CHL1   C24 4942   5.879   2.281   4.400  0.0548 -0.0097  0.0170
   51CHL1  H24A 4943   5.960   2.218   4.357  0.1681 -0.1887  0.4867
   51CHL1  H24B 4944   5.921   2.384   4.389  1.6930 -0.1098  3.8737
   51CHL1   C25 4945   5.890   2.260   4.553 -0.2879 -0.5823  0.1278
   51CHL1   H25 4946   5.864   2.153   4.570 -0.6089 -0.1071  3.2895
   51CHL1   C26 4947   6.036   2.279   4.599  1.1031  0.0862 -0.8758
   51CHL1  H26A 4948   6.062   2.257   4.705  0.9795 -0.8675 -1.0334
   51CHL1  H26B 4949   6.097   2.213   4.534 -2.1512 -2.6680 -1.4514
   51CHL1  H26C 4950   6.066   2.384   4.581 -1.2097  1.3003  1.4919
   51CHL1   C27 4951   5.783   2.341   4.638 -0.3418 -0.6571  0.3394
   51CHL1  H27A 4952   5.815   2.324   4.743 -0.8170 -1.6563  0.3338
   51CHL1  H27B 4953   5.787   2.449   4.613 -0.5661 -0.5437  0.7743
   51CHL1  H27C 4954   5.683   2.301   4.613 -0.9113 -0.0903  1.5744
   52CHL1    C3 4955   0.441   4.000   3.443  0.2467  1.1846  0.8126
   52CHL1    H3 4956   0.331   4.013   3.451  0.2852  2.9817 -0.8366
   52CHL1    O3 4957   0.476   4.062   3.324 -0.2249  0.0879 -0.1360
   52CHL1   H3' 4958   0.565   4.033   3.301 -0.2893 -0.0090 -0.2676
   52CHL1    C4 4959   0.513   4.063   3.563 -0.0635 -0.8878 -0.1502
   52CHL1   H4A 4960   0.622   4.069   3.541  0.2600 -0.6935  1.3703
   52CHL1   H4B 4961   0.482   4.170   3.566  1.0869 -0.5221 -0.6889
   52CHL1    C5 4962   0.480   4.000   3.695  0.7297  0.4627  1.0325
   52CHL1    C6 4963   0.434   4.070   3.797 -0.1472  0.5500  1.0633
   52CHL1    H6 4964   0.416   4.177   3.780  1.2000  0.4432 -1.4639
   52CHL1    C7 4965   0.385   4.007   3.929 -0.0953  0.9215 -0.9333
   52CHL1   H7A 4966   0.402   4.070   4.019  1.0604  0.2738 -0.6759
   52CHL1   H7B 4967   0.276   3.988   3.923 -0.2035  1.5711 -1.0094
   52CHL1    C8 4968   0.446   3.865   3.953  0.6975 -0.5288 -0.4998
   52CHL1    H8 4969   0.548   3.894   3.986 -0.1876  0.9744  1.1100
   52CHL1   C14 4970   0.363   3.790   4.059 -0.7094 -0.1180 -0.0781
   52CHL1   H14 4971   0.270   3.771   4.002  0.7619 -1.2637 -2.2754
   52CHL1   C15 4972   0.327   3.863   4.193 -0.3361 -0.6628  0.2337
   52CHL1  H15A 4973   0.421   3.911   4.227 -0.6725  0.6257 -0.5997
   52CHL1  H15B 4974   0.250   3.942   4.186  1.0786  0.7091 -0.2773
   52CHL1   C16 4975   0.293   3.750   4.296  0.1934  0.1007  0.4176
   52CHL1  H16A 4976   0.363   3.758   4.383  2.5243  2.5046 -1.4936
   52CHL1  H16B 4977   0.184   3.752   4.316  0.0452  2.4632 -0.3302
   52CHL1   C17 4978   0.327   3.618   4.211  0.2854  0.3218  0.3383
   52CHL1   H17 4979   0.228   3.584   4.172  0.3777  1.3740 -0.8605
   52CHL1   C13 4980   0.417   3.653   4.096 -1.0492  0.1846  0.2756
   52CHL1   C18 4981   0.561   3.675   4.148  0.1286 -0.4350  0.4236
   52CHL1  H18A 4982   0.610   3.579   4.177  0.1466 -1.3942 -2.4040
   52CHL1  H18B 4983   0.623   3.714   4.065 -0.5032 -0.8372 -0.2509
   52CHL1  H18C 4984   0.581   3.749   4.228 -0.0582  0.0017  0.0657
   52CHL1   C12 4985   0.410   3.570   3.967 -0.1412  0.2189 -0.2695
   52CHL1  H12A 4986   0.478   3.486   3.991  0.4203  1.2593  2.0402
   52CHL1  H12B 4987   0.304   3.546   3.944 -0.6054  0.7209  1.2556
   52CHL1   C11 4988   0.473   3.640   3.845 -0.0436  0.8716 -0.5040
   52CHL1  H11A 4989   0.584   3.633   3.847 -0.0692  0.5716  0.0439
   52CHL1  H11B 4990   0.439   3.584   3.755 -3.4902  0.1586  1.0772
   52CHL1    C9 4991   0.435   3.790   3.824 -0.1661  0.0627 -0.4187
   52CHL1    H9 4992   0.327   3.780   3.800  0.0170 -2.7044 -0.4787
   52CHL1   C10 4993   0.504   3.849   3.701 -0.1695 -0.6275  0.0933
   52CHL1   C19 4994   0.658   3.818   3.687 -0.3248  0.0855 -0.1736
   52CHL1  H19A 4995   0.705   3.870   3.601  0.3273 -0.6238 -0.2592
   52CHL1  H19B 4996   0.705   3.862   3.778  0.0554 -1.9274  0.6571
   52CHL1  H19C 4997   0.692   3.712   3.678  2.3492  0.8912 -0.3753
   52CHL1    C1 4998   0.432   3.787   3.575  0.1561 -0.0968  0.1926
   52CHL1   H1A 4999   0.461   3.680   3.568  0.0552 -0.1402  0.4570
   52CHL1   H1B 5000   0.322   3.794   3.590  0.1075 -1.1969  0.3897
   52CHL1    C2 5001   0.469   3.850   3.442 -0.2582 -0.1615  0.3914
   52CHL1   H2A 5002   0.407   3.802   3.364 -0.4372 -1.7970  1.4902
   52CHL1   H2B 5003   0.577   3.835   3.426  0.0615 -0.7234  2.6213
   52CHL1   C20 5004   0.366   3.502   4.303 -0.2573 -0.8560 -0.2150
   52CHL1   H20 5005   0.460   3.527   4.357 -0.1953  0.1199 -0.7620
   52CHL1   C21 5006   0.399   3.364   4.225 -0.0297 -0.1514  0.2169
   52CHL1  H21A 5007   0.303   3.339   4.175 -0.2248  2.4863 -0.9227
   52CHL1  H21B 5008   0.422   3.267   4.274  1.3626 -0.6434 -1.2774
   52CHL1  H21C 5009   0.486   3.375   4.156  0.5512 -2.2223  0.5624
   52CHL1   C22 5010   0.257   3.466   4.413 -0.2326 -0.4512  0.1092
   52CHL1  H22A 5011   0.205   3.563   4.432 -0.0621 -0.1231 -0.9717
   52CHL1  H22B 5012   0.185   3.397   4.363  1.2959 -3.1208  1.4001
   52CHL1   C23 5013   0.301   3.410   4.547  0.2390  0.0354 -0.0139
   52CHL1  H23A 5014   0.358   3.315   4.533  2.2146  1.3753 -1.8887
   52CHL1  H23B 5015   0.371   3.484   4.592  0.5040  0.0616 -0.4639
   52CHL1   C24 5016   0.193   3.407   4.652  0.1151 -0.1018 -0.4948
   52CHL1  H24A 5017   0.151   3.505   4.681  0.9765  0.3184 -0.6276
   52CHL1  H24B 5018   0.109   3.356   4.601 -0.0589  0.8119 -1.1422
   52CHL1   C25 5019   0.240   3.326   4.779  0.3008 -0.1579 -0.0685
   52CHL1   H25 5020   0.284   3.231   4.743  0.2432  0.5092 -1.9814
   52CHL1   C26 5021   0.354   3.398   4.856 -0.0061  0.8471 -0.2950
   52CHL1  H26A 5022   0.335   3.503   4.887 -1.1227  0.7825 -0.6865
   52CHL1  H26B 5023   0.378   3.339   4.947  1.5164 -2.1528 -2.4642
   52CHL1  H26C 5024   0.446   3.390   4.794  0.9665  0.6723  1.1337
   52CHL1   C27 5025   0.120   3.294   4.874 -0.2216 -0.2097 -0.5914
   52CHL1  H27A 5026   0.064   3.390   4.870 -1.2444 -0.8144 -1.1140
   52CHL1  H27B 5027   0.051   3.219   4.829 -0.1589 -0.7052  0.1149
   52CHL1  H27C 5028   0.133   3.275   4.983  0.8266  0.5928 -0.5618
   53CHL1    C3 5029   5.789   3.436   3.194 -0.2606 -0.1371 -0.1516
   53CHL1    H3 5030   5.784   3.545   3.173 -0.6458 -0.1840 -0.3100
   53CHL1    O3 5031   5.819   3.364   3.077 -0.1852 -0.1170 -0.2670
   53CHL1   H3' 5032   5.735   3.353   3.032 -1.1745  1.7391  1.0021
   53CHL1    C4 5033   5.896   3.387   3.306  0.3223  0.3017  1.1534
   53CHL1   H4A 5034   5.910   3.276   3.305  3.6856  0.6294 -0.4593
   53CHL1   H4B 5035   6.001   3.412   3.279 -0.3103  0.9078 -0.9127
   53CHL1    C5 5036   5.856   3.429   3.446  0.1737  1.3631  0.9064
   53CHL1    C6 5037   5.945   3.493   3.523 -0.0035 -0.2053 -0.4449
   53CHL1    H6 5038   6.049   3.505   3.488  0.2056  0.3813  0.3427
   53CHL1    C7 5039   5.931   3.512   3.669  0.0766 -0.0052  0.0868
   53CHL1   H7A 5040   6.012   3.465   3.730 -0.8225 -0.0749  1.2542
   53CHL1   H7B 5041   5.939   3.620   3.693  1.6035  0.0759 -0.6536
   53CHL1    C8 5042   5.803   3.450   3.727 -0.0844 -0.4831  0.2948
   53CHL1    H8 5043   5.828   3.343   3.747 -3.6449 -0.9985  3.0302
   53CHL1   C14 5044   5.755   3.533   3.855 -1.0322 -0.3967 -0.3667
   53CHL1   H14 5045   5.724   3.630   3.811 -1.9119 -0.1967  0.6387
   53CHL1   C15 5046   5.861   3.585   3.959 -0.8268  0.4063  0.5125
   53CHL1  H15A 5047   5.929   3.499   3.979  0.2159  0.8009 -1.0752
   53CHL1  H15B 5048   5.911   3.675   3.917  1.4313 -0.7538  0.5397
   53CHL1   C16 5049   5.777   3.608   4.089  0.2085  0.4774 -0.7444
   53CHL1  H16A 5050   5.806   3.537   4.170 -2.9088 -0.2368 -0.1249
   53CHL1  H16B 5051   5.781   3.716   4.116  1.1295  0.6162 -1.3907
   53CHL1   C17 5052   5.624   3.575   4.057 -0.4455 -0.2843  0.3244
   53CHL1   H17 5053   5.572   3.667   4.024 -0.1068  0.2090  1.1428
   53CHL1   C13 5054   5.633   3.485   3.930 -0.1546  0.5961  0.2148
   53CHL1   C18 5055   5.665   3.339   3.976 -0.2376  0.1205 -0.2222
   53CHL1  H18A 5056   5.746   3.324   4.050  0.5857  0.0428 -1.1212
   53CHL1  H18B 5057   5.580   3.298   4.036  1.4809 -1.0547  1.5301
   53CHL1  H18C 5058   5.700   3.270   3.896 -2.9263 -2.7368  0.8452
   53CHL1   C12 5059   5.517   3.486   3.824  0.5765  1.0354  0.0928
   53CHL1  H12A 5060   5.435   3.430   3.873  1.4493 -1.0605 -0.7473
   53CHL1  H12B 5061   5.490   3.590   3.793  1.8650  1.1280 -0.8147
   53CHL1   C11 5062   5.556   3.410   3.693  0.2881 -0.0640  0.2260
   53CHL1  H11A 5063   5.566   3.303   3.720  3.2712  0.1285  0.1627
   53CHL1  H11B 5064   5.473   3.414   3.618 -1.9231 -0.9076  2.4875
   53CHL1    C9 5065   5.689   3.454   3.627 -0.8819  0.2281 -0.2728
   53CHL1    H9 5066   5.671   3.562   3.606 -0.0248  0.4157 -0.1011
   53CHL1   C10 5067   5.720   3.385   3.489 -0.1726  0.3281  0.3922
   53CHL1   C19 5068   5.710   3.231   3.509 -0.2255 -0.6389 -0.4367
   53CHL1  H19A 5069   5.610   3.198   3.543  0.4340 -1.3537  0.8942
   53CHL1  H19B 5070   5.733   3.169   3.420 -1.1637 -1.7163  0.0473
   53CHL1  H19C 5071   5.777   3.192   3.589  0.4542 -0.3593 -0.8667
   53CHL1    C1 5072   5.612   3.435   3.390  0.5956 -0.2726 -0.0147
   53CHL1   H1A 5073   5.514   3.395   3.424  1.1261  0.3428  2.3919
   53CHL1   H1B 5074   5.619   3.545   3.389  1.2751 -0.3105 -0.2192
   53CHL1    C2 5075   5.649   3.388   3.243 -0.3806  0.2084  0.4060
   53CHL1   H2A 5076   5.568   3.411   3.170  0.7278 -0.4191 -1.0783
   53CHL1   H2B 5077   5.659   3.277   3.252  0.7575  0.3115  0.5015
   53CHL1   C20 5078   5.555   3.521   4.185  0.3744  1.0701  0.2210
   53CHL1   H20 5079   5.619   3.437   4.218 -0.0543  0.2520 -0.9482
   53CHL1   C21 5080   5.413   3.481   4.147 -0.5207 -0.1426  0.0992
   53CHL1  H21A 5081   5.365   3.564   4.091 -1.8818 -0.8525  0.1706
   53CHL1  H21B 5082   5.354   3.465   4.239 -1.2718  0.5196 -0.2641
   53CHL1  H21C 5083   5.417   3.384   4.093  1.4022  0.8091 -1.6077
   53CHL1   C22 5084   5.550   3.623   4.298  0.1162  0.1982 -0.7084
   53CHL1  H22A 5085   5.648   3.675   4.309  0.6148 -0.7350 -0.6331
   53CHL1  H22B 5086   5.481   3.709   4.281  2.0694  1.6376 -1.7522
   53CHL1   C23 5087   5.519   3.543   4.431 -0.4007  0.5250 -0.1551
   53CHL1  H23A 5088   5.441   3.464   4.422 -0.0326  0.3987 -3.7778
   53CHL1  H23B 5089   5.607   3.475   4.431 -2.0185 -1.6993 -0.7376
   53CHL1   C24 5090   5.525   3.613   4.569 -0.0428  0.9691 -0.1705
   53CHL1  H24A 5091   5.594   3.698   4.553  1.7774 -0.2705  0.6917
   53CHL1  H24B 5092   5.426   3.655   4.595 -0.3491  1.7933 -2.4603
   53CHL1   C25 5093   5.584   3.516   4.680  1.1474 -0.1230 -0.0190
   53CHL1   H25 5094   5.680   3.474   4.645  0.6077 -1.0398 -0.4169
   53CHL1   C26 5095   5.596   3.597   4.817  0.0359 -0.0079  0.4163
   53CHL1  H26A 5096   5.672   3.551   4.884  0.9523  1.0596  0.1357
   53CHL1  H26B 5097   5.618   3.704   4.797 -0.1905 -0.1097 -0.4393
   53CHL1  H26C 5098   5.493   3.612   4.857 -0.4108  1.3226 -1.1256
   53CHL1   C27 5099   5.496   3.390   4.709  0.6410 -0.4536 -0.2885
   53CHL1  H27A 5100   5.489   3.329   4.616  2.1943 -3.9040  1.6983
   53CHL1  H27B 5101   5.531   3.322   4.789 -1.3542 -0.2767  0.8148
   53CHL1  H27C 5102   5.392   3.425   4.726  0.3437 -0.7861 -1.3112
   54CHL1    C3 5103   4.640   3.840   2.889  0.1573 -0.5540  0.0834
   54CHL1    H3 5104   4.708   3.767   2.939  1.6684 -0.0608 -1.1796
   54CHL1    O3 5105   4.693   3.861   2.765 -0.1724  0.0786  0.3112
   54CHL1   H3' 5106   4.670   3.951   2.739  1.1742  0.0662 -1.0588
   54CHL1    C4 5107   4.497   3.783   2.884 -0.0386 -0.5147  0.2635
   54CHL1   H4A 5108   4.442   3.865   2.833  0.5227 -0.6335 -0.5524
   54CHL1   H4B 5109   4.493   3.692   2.821 -0.4818 -0.9651  0.9304
   54CHL1    C5 5110   4.449   3.750   3.025  1.0066  0.4641  0.3131
   54CHL1    C6 5111   4.418   3.622   3.055 -0.6858 -0.0746  0.9188
   54CHL1    H6 5112   4.423   3.545   2.977  1.1974  0.9764 -0.0655
   54CHL1    C7 5113   4.393   3.573   3.192  0.3144 -0.0437 -0.1202
   54CHL1   H7A 5114   4.308   3.502   3.200 -0.0239  0.4423  0.7415
   54CHL1   H7B 5115   4.479   3.525   3.242 -0.6111 -1.0252  0.5967
   54CHL1    C8 5116   4.353   3.695   3.272 -0.2460  0.3741  0.7477
   54CHL1    H8 5117   4.251   3.720   3.235  0.5730  2.9473 -0.0224
   54CHL1   C14 5118   4.331   3.646   3.420 -0.1331  0.2763 -0.0854
   54CHL1   H14 5119   4.435   3.628   3.453 -0.4335  0.6096  1.0793
   54CHL1   C15 5120   4.249   3.520   3.442 -0.3403 -0.4611 -0.0164
   54CHL1  H15A 5121   4.154   3.524   3.385 -0.2754  1.7676 -0.0533
   54CHL1  H15B 5122   4.303   3.426   3.415 -0.6059 -0.7579  0.4812
   54CHL1   C16 5123   4.225   3.531   3.596 -0.4699  0.1288  0.2423
   54CHL1  H16A 5124   4.116   3.513   3.610 -0.5810 -0.0950 -0.8168
   54CHL1  H16B 5125   4.272   3.446   3.649 -2.8559 -1.2268  0.3127
   54CHL1   C17 5126   4.262   3.674   3.652 -0.1205 -0.1586  0.3871
   54CHL1   H17 5127   4.365   3.669   3.694  0.8751  4.1823 -1.0053
   54CHL1   C13 5128   4.286   3.753   3.520 -0.1647 -0.1609  0.7377
   54CHL1   C18 5129   4.153   3.817   3.477  0.2139 -0.3149 -0.6930
   54CHL1  H18A 5130   4.167   3.861   3.375 -2.3115  0.0112 -0.9733
   54CHL1  H18B 5131   4.073   3.740   3.467  0.2073 -0.3294 -0.5282
   54CHL1  H18C 5132   4.132   3.894   3.554 -0.7504 -2.7684  1.6193
   54CHL1   C12 5133   4.399   3.863   3.521 -0.1451 -0.3274 -0.3682
   54CHL1  H12A 5134   4.384   3.953   3.584 -2.2693  0.2062 -1.5208
   54CHL1  H12B 5135   4.488   3.815   3.566 -0.0144 -1.0737 -1.3837
   54CHL1   C11 5136   4.438   3.920   3.382  0.5799  0.1595 -0.7359
   54CHL1  H11A 5137   4.360   3.998   3.369 -0.3784 -0.7600 -0.6824
   54CHL1  H11B 5138   4.541   3.962   3.382  1.6672 -2.2074 -2.8945
   54CHL1    C9 5139   4.451   3.813   3.264  0.2191  0.7329  0.0295
   54CHL1    H9 5140   4.546   3.757   3.277 -1.2255 -2.0710 -0.6309
   54CHL1   C10 5141   4.460   3.866   3.123 -0.1814  0.5050 -0.5342
   54CHL1   C19 5142   4.341   3.954   3.097  0.6947  0.1505  1.1240
   54CHL1  H19A 5143   4.337   4.040   3.168 -0.1061  0.7404  0.3870
   54CHL1  H19B 5144   4.339   3.998   2.995  1.6796  2.2533  1.9465
   54CHL1  H19C 5145   4.239   3.911   3.103 -0.5692  2.1955 -2.3941
   54CHL1    C1 5146   4.592   3.945   3.114 -0.4104 -0.4576 -0.3354
   54CHL1   H1A 5147   4.598   4.041   3.169  1.8757  0.3921 -1.9582
   54CHL1   H1B 5148   4.664   3.878   3.166 -2.2762 -1.3466  1.2369
   54CHL1    C2 5149   4.640   3.972   2.975 -0.3048 -0.2746 -0.1602
   54CHL1   H2A 5150   4.747   4.002   2.978 -0.5034  0.3620  1.6171
   54CHL1   H2B 5151   4.582   4.055   2.929 -0.6232 -1.3000 -1.6949
   54CHL1   C20 5152   4.170   3.733   3.756  0.0335  0.3306 -0.6302
   54CHL1   H20 5153   4.074   3.764   3.710 -0.1657 -1.9465 -1.8752
   54CHL1   C21 5154   4.239   3.854   3.827  0.0396  0.2314 -0.6474
   54CHL1  H21A 5155   4.339   3.827   3.868 -0.6168 -0.6397  0.4465
   54CHL1  H21B 5156   4.176   3.895   3.908 -2.7321 -3.4874 -0.6552
   54CHL1  H21C 5157   4.253   3.939   3.757  2.9909  1.3053  1.0763
   54CHL1   C22 5158   4.124   3.628   3.867 -0.6408 -0.6772  0.2356
   54CHL1  H22A 5159   4.081   3.688   3.950 -0.3907 -0.3438  0.1228
   54CHL1  H22B 5160   4.049   3.556   3.827 -0.5594  0.5690 -2.3723
   54CHL1   C23 5161   4.239   3.547   3.929  0.2742 -0.4178  0.1686
   54CHL1  H23A 5162   4.283   3.473   3.860 -0.2441  1.2525 -2.0694
   54CHL1  H23B 5163   4.319   3.619   3.956  0.9067 -1.4074  0.9936
   54CHL1   C24 5164   4.188   3.473   4.052  0.8515  0.2096 -0.3273
   54CHL1  H24A 5165   4.114   3.403   4.007  1.2494 -1.7207  1.8765
   54CHL1  H24B 5166   4.268   3.411   4.097 -0.9227 -1.5912  0.5216
   54CHL1   C25 5167   4.117   3.543   4.169  0.3694  0.1001 -0.1824
   54CHL1   H25 5168   4.021   3.591   4.140  0.5526 -0.6134 -2.0905
   54CHL1   C26 5169   4.086   3.443   4.281 -0.2202 -0.3523  0.2861
   54CHL1  H26A 5170   4.015   3.489   4.353 -0.2758 -2.0508  1.3703
   54CHL1  H26B 5171   4.062   3.345   4.234 -0.4253  0.4178 -1.3007
   54CHL1  H26C 5172   4.181   3.435   4.338 -0.0959  1.0749  0.3245
   54CHL1   C27 5173   4.197   3.659   4.233  0.2059 -0.0615 -0.0784
   54CHL1  H27A 5174   4.146   3.701   4.322 -0.9203 -2.9541  0.7863
   54CHL1  H27B 5175   4.302   3.629   4.250  0.2095  0.3144  0.5533
   54CHL1  H27C 5176   4.201   3.746   4.164 -0.3366  0.3733  0.4307
   55CHL1    C3 5177   2.959   0.099   5.380  0.1261  0.2286 -0.0338
   55CHL1    H3 5178   2.907   0.048   5.463  1.2736 -2.6145 -0.9305
   55CHL1    O3 5179   2.990   0.230   5.427 -0.0398 -0.3274 -0.2871
   55CHL1   H3' 5180   3.079   0.257   5.405 -0.0251  1.0731  1.2817
   55CHL1    C4 5181   3.087   0.021   5.339 -0.2920 -0.4317 -0.6103
   55CHL1   H4A 5182   3.144   0.090   5.274 -2.5738  2.0257 -0.1616
   55CHL1   H4B 5183   3.135   0.009   5.438  0.7690  0.5739 -0.9837
   55CHL1    C5 5184   3.063  -0.118   5.274 -0.1539 -0.2455  0.0207
   55CHL1    C6 5185   3.119  -0.237   5.319  0.3555 -0.4026 -0.0102
   55CHL1    H6 5186   3.195  -0.249   5.399 -1.3740  0.3349  1.8439
   55CHL1    C7 5187   3.104  -0.365   5.253  0.1948  0.2542  0.2232
   55CHL1   H7A 5188   3.204  -0.405   5.229  0.2851  0.8723 -0.4783
   55CHL1   H7B 5189   3.056  -0.442   5.317  1.0208 -0.1094  0.4174
   55CHL1    C8 5190   3.045  -0.352   5.116  0.7061  0.2069  0.0745
   55CHL1    H8 5191   3.125  -0.319   5.046 -0.3635 -1.3214 -1.9851
   55CHL1   C14 5192   2.991  -0.481   5.073 -0.2275  0.4503 -0.8467
   55CHL1   H14 5193   2.904  -0.502   5.139  0.8249  0.9932  0.7378
   55CHL1   C15 5194   3.081  -0.602   5.078 -0.1132 -0.6240  0.1744
   55CHL1  H15A 5195   3.182  -0.567   5.047 -0.0417  1.1764  2.1772
   55CHL1  H15B 5196   3.091  -0.645   5.180  3.4690 -0.3636  0.0729
   55CHL1   C16 5197   3.023  -0.707   4.981 -0.2980  0.4729 -0.0063
   55CHL1  H16A 5198   3.103  -0.731   4.908  0.6482 -1.7123  1.6174
   55CHL1  H16B 5199   3.011  -0.807   5.027 -1.5874 -1.0913 -3.4192
   55CHL1   C17 5200   2.893  -0.632   4.924 -0.6321 -0.0316 -0.5506
   55CHL1   H17 5201   2.808  -0.644   4.994 -3.0035  1.1281 -3.0055
   55CHL1   C13 5202   2.929  -0.476   4.933 -0.5555  0.4928  0.1543
   55CHL1   C18 5203   3.041  -0.450   4.826  0.9123  0.2684 -0.1905
   55CHL1  H18A 5204   2.992  -0.464   4.727  0.2449  0.1281  0.1587
   55CHL1  H18B 5205   3.070  -0.343   4.829  0.6856  0.3092  0.7964
   55CHL1  H18C 5206   3.129  -0.518   4.825  0.8335  0.1081  1.3821
   55CHL1   C12 5207   2.801  -0.389   4.924  0.2782 -0.5936 -0.7086
   55CHL1  H12A 5208   2.762  -0.375   4.821 -1.4223 -0.6214 -0.1063
   55CHL1  H12B 5209   2.718  -0.430   4.986  1.3678 -0.1815  1.0752
   55CHL1   C11 5210   2.843  -0.251   4.979 -0.5039  0.2047 -0.0159
   55CHL1  H11A 5211   2.890  -0.202   4.891 -2.2067  1.5981 -0.2083
   55CHL1  H11B 5212   2.751  -0.194   5.002 -0.0165  0.3787  1.5994
   55CHL1    C9 5213   2.923  -0.258   5.111 -0.0276  0.6155  0.0124
   55CHL1    H9 5214   2.857  -0.297   5.192  1.0356  1.8516  1.5390
   55CHL1   C10 5215   2.966  -0.118   5.158  0.1642 -0.4937  0.6447
   55CHL1   C19 5216   3.031  -0.046   5.034  0.6919  0.1584  0.0941
   55CHL1  H19A 5217   2.961   0.003   4.964 -0.3463  0.5784  1.3827
   55CHL1  H19B 5218   3.104   0.033   5.063  2.7274 -0.1388 -3.6347
   55CHL1  H19C 5219   3.083  -0.123   4.974  0.8741  1.1462 -1.0509
   55CHL1    C1 5220   2.837  -0.036   5.197 -0.3345 -0.3592 -0.4123
   55CHL1   H1A 5221   2.773  -0.020   5.108  0.5486 -1.4844 -1.2790
   55CHL1   H1B 5222   2.782  -0.095   5.274  1.9612 -0.1678  1.5040
   55CHL1    C2 5223   2.867   0.098   5.263 -0.8043 -0.2244 -0.7107
   55CHL1   H2A 5224   2.774   0.157   5.283 -0.9103 -0.5246 -0.3152
   55CHL1   H2B 5225   2.929   0.152   5.188 -1.0204  0.9316 -0.0796
   55CHL1   C20 5226   2.848  -0.681   4.790 -0.3142  0.0918 -0.6739
   55CHL1   H20 5227   2.803  -0.592   4.739 -1.2187  0.2962  0.4242
   55CHL1   C21 5228   2.731  -0.776   4.820 -0.5101  0.0337 -0.2118
   55CHL1  H21A 5229   2.770  -0.870   4.864 -2.3318 -0.4804  0.3608
   55CHL1  H21B 5230   2.671  -0.784   4.727  0.3753  1.0471 -0.9102
   55CHL1  H21C 5231   2.657  -0.734   4.891 -0.8876  1.5113 -1.4066
   55CHL1   C22 5232   2.953  -0.754   4.700 -0.0338  0.1569  0.7787
   55CHL1  H22A 5233   3.051  -0.701   4.704  0.1128  0.0277 -0.5147
   55CHL1  H22B 5234   2.968  -0.856   4.741  0.7351 -1.4661 -3.0989
   55CHL1   C23 5235   2.890  -0.761   4.567 -0.2535  0.2873  0.1119
   55CHL1  H23A 5236   2.802  -0.828   4.562 -0.4841  0.6615 -1.2437
   55CHL1  H23B 5237   2.850  -0.662   4.539 -0.4419  0.4380  0.8765
   55CHL1   C24 5238   2.991  -0.806   4.462  0.1273  0.4391  0.7023
   55CHL1  H24A 5239   3.085  -0.752   4.487  1.0110 -0.8086  0.1875
   55CHL1  H24B 5240   3.016  -0.914   4.472 -0.2198  0.1077 -1.5910
   55CHL1   C25 5241   2.944  -0.777   4.315  0.1736 -0.1694 -0.3639
   55CHL1   H25 5242   2.895  -0.677   4.313 -2.7905 -1.5375 -1.5061
   55CHL1   C26 5243   3.065  -0.778   4.218  0.3660 -0.6027 -0.6430
   55CHL1  H26A 5244   3.129  -0.868   4.228  1.8282  0.2957 -1.5514
   55CHL1  H26B 5245   3.029  -0.783   4.113  0.2406 -1.2363 -0.5741
   55CHL1  H26C 5246   3.123  -0.686   4.240  0.3145 -0.3365 -1.5898
   55CHL1   C27 5247   2.836  -0.876   4.267 -0.7604 -0.3550  0.5137
   55CHL1  H27A 5248   2.762  -0.881   4.350  0.4258 -0.4070  1.5995
   55CHL1  H27B 5249   2.800  -0.832   4.172 -0.1903 -0.5300  0.2083
   55CHL1  H27C 5250   2.874  -0.981   4.261  1.1375  0.3110  0.0771
   56CHL1    C3 5251   4.684   0.908   3.370 -0.1616  0.2304  0.4718
   56CHL1    H3 5252   4.785   0.871   3.401  0.5583 -2.0074 -3.7600
   56CHL1    O3 5253   4.673   0.866   3.235  0.4282 -0.2589  0.5225
   56CHL1   H3' 5254   4.761   0.853   3.198  1.4557  2.1597  1.8695
   56CHL1    C4 5255   4.575   0.828   3.445 -0.1718  0.1310 -0.3840
   56CHL1   H4A 5256   4.479   0.860   3.397 -0.0514 -0.8043 -1.2830
   56CHL1   H4B 5257   4.583   0.720   3.420  0.4946  0.7736 -3.3781
   56CHL1    C5 5258   4.568   0.867   3.590 -0.4992  0.0256 -0.1244
   56CHL1    C6 5259   4.576   0.769   3.679 -0.6598 -0.1750 -0.5186
   56CHL1    H6 5260   4.602   0.668   3.645 -0.3840  0.4461 -2.2094
   56CHL1    C7 5261   4.557   0.788   3.830  0.1667 -0.0042 -0.8386
   56CHL1   H7A 5262   4.479   0.721   3.873 -0.2885 -0.5786 -2.4716
   56CHL1   H7B 5263   4.655   0.771   3.880 -1.2213  0.6803  2.3648
   56CHL1    C8 5264   4.518   0.940   3.873 -0.9530 -0.1534  0.3997
   56CHL1    H8 5265   4.409   0.944   3.855 -0.9098 -1.4383 -0.2084
   56CHL1   C14 5266   4.566   0.963   4.017  0.6041  0.7261  1.0782
   56CHL1   H14 5267   4.673   0.940   4.036  1.2966  0.6999 -2.2855
   56CHL1   C15 5268   4.498   0.869   4.113 -0.0284 -0.5791 -0.0074
   56CHL1  H15A 5269   4.391   0.867   4.084  0.4002 -0.3223 -1.7129
   56CHL1  H15B 5270   4.544   0.768   4.107 -0.0623 -0.6179  0.3953
   56CHL1   C16 5271   4.516   0.939   4.249 -0.0695 -1.0116 -0.0465
   56CHL1  H16A 5272   4.426   0.939   4.313  1.4227 -0.3151  2.1654
   56CHL1  H16B 5273   4.590   0.881   4.308 -1.1742 -3.0474 -0.5553
   56CHL1   C17 5274   4.576   1.082   4.221  0.0771  0.0934  0.2528
   56CHL1   H17 5275   4.686   1.075   4.223 -0.0257 -2.9314  0.4780
   56CHL1   C13 5276   4.537   1.106   4.068  0.0906 -0.5285  0.4132
   56CHL1   C18 5277   4.385   1.147   4.058  0.0347  0.0494  0.5663
   56CHL1  H18A 5278   4.342   1.142   3.955  1.4479  0.5092 -0.0644
   56CHL1  H18B 5279   4.317   1.092   4.127  0.1528 -1.1301 -0.2177
   56CHL1  H18C 5280   4.365   1.249   4.097 -0.5405  0.7896 -1.5234
   56CHL1   C12 5281   4.628   1.202   3.992 -0.5745  0.1950 -0.1781
   56CHL1  H12A 5282   4.600   1.309   4.007  2.0000  0.8719  0.3488
   56CHL1  H12B 5283   4.735   1.198   4.022 -0.7296  0.9291  0.5303
   56CHL1   C11 5284   4.603   1.186   3.838 -0.1505 -0.2768 -1.0526
   56CHL1  H11A 5285   4.502   1.232   3.827 -1.6494 -2.8702  0.7844
   56CHL1  H11B 5286   4.684   1.246   3.791  1.7632  0.4314  2.7444
   56CHL1    C9 5287   4.593   1.035   3.785  0.5122  0.1119  0.6289
   56CHL1    H9 5288   4.696   0.998   3.801 -0.0728 -0.5260  3.3690
   56CHL1   C10 5289   4.569   1.017   3.633  0.7807 -0.2036  0.4480
   56CHL1   C19 5290   4.430   1.076   3.602  0.0694  0.1452 -0.1742
   56CHL1  H19A 5291   4.418   1.087   3.492 -1.2448 -1.0539 -0.1829
   56CHL1  H19B 5292   4.347   1.012   3.639  1.9498 -2.6536 -0.4615
   56CHL1  H19C 5293   4.419   1.178   3.642 -0.5871  0.4899 -1.1900
   56CHL1    C1 5294   4.671   1.093   3.546 -0.2556 -0.3187 -0.3658
   56CHL1   H1A 5295   4.653   1.202   3.559  1.7500  0.1532 -1.2209
   56CHL1   H1B 5296   4.773   1.069   3.582 -0.7224  0.2483  1.4095
   56CHL1    C2 5297   4.672   1.057   3.394  0.1669 -0.3759 -0.6136
   56CHL1   H2A 5298   4.755   1.115   3.348  0.6720 -0.6620 -0.0729
   56CHL1   H2B 5299   4.577   1.093   3.350 -0.7031 -2.0125 -0.1451
   56CHL1   C20 5300   4.533   1.190   4.321 -0.0468  0.7878  0.3850
   56CHL1   H20 5301   4.423   1.178   4.316  0.2197 -1.6477 -0.9219
   56CHL1   C21 5302   4.576   1.330   4.282 -0.1771 -0.0838  0.0543
   56CHL1  H21A 5303   4.514   1.355   4.193  1.0938  0.6024 -0.6609
   56CHL1  H21B 5304   4.686   1.331   4.264 -0.7118 -0.8212 -4.4772
   56CHL1  H21C 5305   4.543   1.407   4.354 -3.1482  0.5046 -1.7344
   56CHL1   C22 5306   4.581   1.159   4.473  0.1114  0.0260  0.6449
   56CHL1  H22A 5307   4.551   1.247   4.533  2.2583  0.4702  1.1398
   56CHL1  H22B 5308   4.527   1.066   4.502 -0.7541  0.4967  0.5925
   56CHL1   C23 5309   4.732   1.157   4.505  0.7813 -0.2419  1.1697
   56CHL1  H23A 5310   4.780   1.080   4.441 -2.5806 -1.1365 -0.5407
   56CHL1  H23B 5311   4.764   1.260   4.481 -0.3114 -0.6530 -2.6682
   56CHL1   C24 5312   4.768   1.121   4.646 -0.0765 -0.1561  0.6301
   56CHL1  H24A 5313   4.711   1.164   4.730 -0.7769 -2.7354  1.5609
   56CHL1  H24B 5314   4.741   1.013   4.652 -1.3939  0.0464 -0.8597
   56CHL1   C25 5315   4.914   1.143   4.666  0.4515 -0.2581 -0.4206
   56CHL1   H25 5316   4.961   1.116   4.570 -1.7990  0.2927 -1.7474
   56CHL1   C26 5317   4.960   1.286   4.684  0.0920 -0.2288  0.3340
   56CHL1  H26A 5318   5.069   1.295   4.703  0.0953 -0.2808  0.3406
   56CHL1  H26B 5319   4.941   1.350   4.595 -0.6940 -1.9227 -0.7746
   56CHL1  H26C 5320   4.909   1.326   4.774  1.0181  2.0687 -0.1012
   56CHL1   C27 5321   4.967   1.055   4.779 -0.0184  0.4100  0.0103
   56CHL1  H27A 5322   4.945   1.088   4.882  3.1979  0.8183  0.6797
   56CHL1  H27B 5323   4.932   0.950   4.772 -1.3005  0.7791  0.6916
   56CHL1  H27C 5324   5.078   1.059   4.781 -0.0576  1.0773  1.3431
   57CHL1    C3 5325   5.717   5.145   3.383  0.3812 -0.2825  0.2313
   57CHL1    H3 5326   5.672   5.055   3.430  1.3776 -0.7319  0.3386
   57CHL1    O3 5327   5.695   5.143   3.239  0.8220 -0.1418 -0.3291
   57CHL1   H3' 5328   5.716   5.228   3.200 -1.4788  0.9393  0.6063
   57CHL1    C4 5329   5.644   5.270   3.445 -0.7070  0.2625 -0.0937
   57CHL1   H4A 5330   5.663   5.366   3.391 -3.2432  0.2503 -1.1533
   57CHL1   H4B 5331   5.536   5.256   3.427 -0.8008  2.6859 -2.0066
   57CHL1    C5 5332   5.677   5.279   3.592  0.6614 -0.0982  1.0954
   57CHL1    C6 5333   5.580   5.278   3.683 -0.3073 -1.1224 -0.4521
   57CHL1    H6 5334   5.474   5.290   3.655  0.3059  0.0680 -2.4005
   57CHL1    C7 5335   5.607   5.298   3.835 -0.1154 -0.4965  0.0558
   57CHL1   H7A 5336   5.543   5.375   3.883  0.4069  0.7787 -1.2004
   57CHL1   H7B 5337   5.593   5.196   3.877  0.7080 -1.3714 -1.6970
   57CHL1    C8 5338   5.757   5.339   3.862 -0.6902  0.6831  0.0058
   57CHL1    H8 5339   5.766   5.445   3.831 -1.4503  1.0570  1.0190
   57CHL1   C14 5340   5.785   5.324   4.009 -0.2307  0.3731 -0.0033
   57CHL1   H14 5341   5.779   5.213   4.022  0.7074  0.1895 -0.9748
   57CHL1   C15 5342   5.692   5.386   4.103  0.0542  0.3657 -0.5572
   57CHL1  H15A 5343   5.657   5.491   4.090 -1.9489  0.1918  2.3754
   57CHL1  H15B 5344   5.597   5.330   4.117  0.2985 -0.1788 -1.0491
   57CHL1   C16 5345   5.771   5.387   4.238  0.6041  0.6062 -0.3447
   57CHL1  H16A 5346   5.748   5.481   4.292  0.0621 -1.2417  2.9208
   57CHL1  H16B 5347   5.724   5.311   4.304 -1.1624  3.1442  1.5254
   57CHL1   C17 5348   5.920   5.351   4.201 -0.3076  0.1940  0.3966
   57CHL1   H17 5349   5.921   5.240   4.213  1.0976  0.3614  1.9789
   57CHL1   C13 5350   5.925   5.368   4.052 -0.1241  0.1944  0.5589
   57CHL1   C18 5351   5.948   5.520   4.011 -0.1334 -0.6106 -0.1325
   57CHL1  H18A 5352   5.871   5.573   4.070 -1.2728 -2.3843  0.0656
   57CHL1  H18B 5353   6.051   5.551   4.039 -1.3266  1.1795  2.6983
   57CHL1  H18C 5354   5.933   5.537   3.902  3.6582 -0.8497 -0.8260
   57CHL1   C12 5355   6.024   5.283   3.972 -0.4060 -0.0653 -0.5661
   57CHL1  H12A 5356   6.130   5.316   3.978 -0.6723  0.7361 -0.2128
   57CHL1  H12B 5357   6.018   5.174   3.997 -0.1556  0.1604  0.5391
   57CHL1   C11 5358   6.000   5.292   3.818  0.1371  0.2801  0.9020
   57CHL1  H11A 5359   6.040   5.394   3.798 -0.1074  0.1886 -0.1116
   57CHL1  H11B 5360   6.069   5.214   3.780 -1.7446 -1.4456  0.8955
   57CHL1    C9 5361   5.854   5.255   3.779 -0.2955 -0.6271  0.6294
   57CHL1    H9 5362   5.831   5.150   3.806 -1.9795  0.1184  2.2824
   57CHL1   C10 5363   5.831   5.275   3.622 -0.3617 -0.1584 -0.1275
   57CHL1   C19 5364   5.897   5.407   3.581 -0.1474  0.6815 -0.0367
   57CHL1  H19A 5365   5.880   5.409   3.471 -0.6711 -2.7966 -0.1474
   57CHL1  H19B 5366   5.845   5.498   3.617  0.8020  0.7373  1.2421
   57CHL1  H19C 5367   6.008   5.401   3.584 -0.1155 -1.0017 -1.9462
   57CHL1    C1 5368   5.902   5.163   3.548 -0.0036  0.0658 -0.3916
   57CHL1   H1A 5369   6.012   5.150   3.561 -0.4831 -3.4870  1.3496
   57CHL1   H1B 5370   5.855   5.073   3.593 -0.1320  0.4275  0.2091
   57CHL1    C2 5371   5.868   5.148   3.400 -0.5064  0.2783  0.2504
   57CHL1   H2A 5372   5.911   5.057   3.352  0.6558  1.1420 -0.3936
   57CHL1   H2B 5373   5.908   5.233   3.340 -2.0050  0.3035 -0.7685
   57CHL1   C20 5374   6.033   5.411   4.290  0.5025  0.1770 -0.4153
   57CHL1   H20 5375   6.036   5.522   4.279 -0.4597  0.1307 -1.2169
   57CHL1   C21 5376   6.172   5.354   4.250  0.0362 -0.1726 -0.2580
   57CHL1  H21A 5377   6.165   5.254   4.203  0.1821 -0.1524 -0.3248
   57CHL1  H21B 5378   6.226   5.340   4.345  0.8726  0.2612 -0.6574
   57CHL1  H21C 5379   6.227   5.429   4.189  1.2999  0.4508  1.5737
   57CHL1   C22 5380   5.999   5.375   4.439 -0.0319 -0.8248 -0.0220
   57CHL1  H22A 5381   5.890   5.383   4.457 -0.1169  0.6380 -1.0653
   57CHL1  H22B 5382   6.020   5.266   4.453  0.7031 -0.9444 -1.7743
   57CHL1   C23 5383   6.063   5.456   4.548 -0.6017 -0.6897  0.1350
   57CHL1  H23A 5384   6.172   5.438   4.538 -0.1009  1.6286  0.8591
   57CHL1  H23B 5385   6.059   5.565   4.528  2.8592 -0.1735  1.5761
   57CHL1   C24 5386   6.018   5.416   4.692  0.7607  0.2846 -0.1923
   57CHL1  H24A 5387   5.909   5.435   4.696  0.5806 -0.6402 -0.5226
   57CHL1  H24B 5388   6.029   5.307   4.713 -2.0431 -0.2365 -1.0027
   57CHL1   C25 5389   6.094   5.484   4.812 -0.0177  0.3853 -0.0665
   57CHL1   H25 5390   6.203   5.466   4.806  0.0876 -0.3583  2.6506
   57CHL1   C26 5391   6.074   5.637   4.814 -0.3997 -0.5251 -0.9221
   57CHL1  H26A 5392   6.130   5.684   4.897  0.5920 -0.4398 -1.6253
   57CHL1  H26B 5393   6.104   5.690   4.722 -1.2832  2.7462  0.5397
   57CHL1  H26C 5394   5.969   5.656   4.846 -0.1707 -1.5372  0.5699
   57CHL1   C27 5395   6.058   5.414   4.944 -0.1919 -0.3415  0.1571
   57CHL1  H27A 5396   5.950   5.428   4.965 -0.4192 -0.5732 -0.8070
   57CHL1  H27B 5397   6.084   5.306   4.952 -2.3015 -0.7811  3.8529
   57CHL1  H27C 5398   6.124   5.449   5.027 -0.4670 -2.5595  1.4094
   58CHL1    C3 5399   1.542   1.876   3.418  0.2439  0.1444  0.3146
   58CHL1    H3 5400   1.528   1.984   3.398 -2.5526  0.0106  1.2118
   58CHL1    O3 5401   1.530   1.802   3.297  0.2532  0.2770  0.4461
   58CHL1   H3' 5402   1.539   1.711   3.325  0.8185  0.5303  1.1391
   58CHL1    C4 5403   1.685   1.855   3.478  0.1440 -0.1319 -0.7270
   58CHL1   H4A 5404   1.694   1.746   3.496  1.5112  0.2758  1.5367
   58CHL1   H4B 5405   1.760   1.889   3.404 -0.6254  2.5010 -0.4182
   58CHL1    C5 5406   1.697   1.926   3.612  0.1007 -0.9905 -0.9407
   58CHL1    C6 5407   1.795   2.019   3.637 -0.3157 -0.4044 -0.4198
   58CHL1    H6 5408   1.872   2.024   3.558  0.4622  0.1677  0.3618
   58CHL1    C7 5409   1.815   2.096   3.769  0.0136 -0.0494 -0.0243
   58CHL1   H7A 5410   1.925   2.099   3.782  0.2618  1.6853 -1.9686
   58CHL1   H7B 5411   1.785   2.203   3.763  0.8451  0.5461  3.9268
   58CHL1    C8 5412   1.739   2.031   3.882  0.2503 -0.1710  0.1420
   58CHL1    H8 5413   1.787   1.938   3.918 -4.8509 -1.8069  3.7956
   58CHL1   C14 5414   1.735   2.123   4.008 -0.3825 -0.0285 -0.5213
   58CHL1   H14 5415   1.689   2.219   3.976 -0.6836 -0.2494 -0.7453
   58CHL1   C15 5416   1.877   2.157   4.069  0.2647 -0.0475  0.0014
   58CHL1  H15A 5417   1.934   2.063   4.057 -2.3456 -1.6903 -0.3458
   58CHL1  H15B 5418   1.924   2.235   4.005 -3.4159  1.8334 -0.7184
   58CHL1   C16 5419   1.847   2.207   4.212 -0.0470 -0.1398  0.0787
   58CHL1  H16A 5420   1.907   2.145   4.282 -1.7858 -0.4625  1.3413
   58CHL1  H16B 5421   1.864   2.316   4.225  1.0755 -0.3022  0.1201
   58CHL1   C17 5422   1.698   2.178   4.239  0.7354 -1.3978  0.4372
   58CHL1   H17 5423   1.650   2.273   4.206  0.1071 -2.5419 -2.1780
   58CHL1   C13 5424   1.664   2.071   4.128 -0.7272 -0.0851  0.0190
   58CHL1   C18 5425   1.721   1.935   4.177 -0.3143 -0.1554  0.0173
   58CHL1  H18A 5426   1.731   1.863   4.093 -1.5087 -0.8491  0.4448
   58CHL1  H18B 5427   1.822   1.948   4.221 -0.6533  3.1067  0.1392
   58CHL1  H18C 5428   1.655   1.893   4.256  1.0827  0.7124  1.6969
   58CHL1   C12 5429   1.518   2.063   4.072  0.9000  0.3385 -0.1393
   58CHL1  H12A 5430   1.469   1.999   4.149  0.9258  2.8843  2.1619
   58CHL1  H12B 5431   1.457   2.155   4.065  0.3318 -0.0179  0.0833
   58CHL1   C11 5432   1.505   1.969   3.953  0.5503 -0.0451  0.0797
   58CHL1  H11A 5433   1.524   1.864   3.985  1.6101  0.4849  1.3070
   58CHL1  H11B 5434   1.399   1.973   3.920  0.0984 -1.1039  1.3187
   58CHL1    C9 5435   1.593   1.997   3.838 -0.2337  0.1347  0.3362
   58CHL1    H9 5436   1.562   2.097   3.803 -1.7502  0.6124  2.8264
   58CHL1   C10 5437   1.585   1.898   3.715 -0.2149  0.3406 -0.2647
   58CHL1   C19 5438   1.612   1.751   3.769 -0.3876  0.4423  0.5826
   58CHL1  H19A 5439   1.692   1.744   3.847 -1.3324 -0.7835  1.4900
   58CHL1  H19B 5440   1.524   1.710   3.822  0.7748  2.6467  4.6759
   58CHL1  H19C 5441   1.643   1.681   3.689  1.1362  3.5791 -1.7673
   58CHL1    C1 5442   1.447   1.920   3.650 -0.2393 -0.7497  0.6159
   58CHL1   H1A 5443   1.364   1.896   3.720 -0.3393 -2.6561 -0.0977
   58CHL1   H1B 5444   1.438   2.030   3.640 -1.8473 -0.8057  1.2163
   58CHL1    C2 5445   1.430   1.842   3.516 -0.5246  0.0253  0.4777
   58CHL1   H2A 5446   1.331   1.864   3.471 -0.5356  1.4866  1.1665
   58CHL1   H2B 5447   1.421   1.732   3.530 -0.1404  0.0203  0.7045
   58CHL1   C20 5448   1.659   2.155   4.384 -0.3383  0.0748 -0.8168
   58CHL1   H20 5449   1.727   2.078   4.426  0.4151  0.8476 -0.5967
   58CHL1   C21 5450   1.510   2.123   4.406  0.3781  0.3286 -0.3091
   58CHL1  H21A 5451   1.482   2.019   4.380 -1.9288  0.3841  1.6373
   58CHL1  H21B 5452   1.447   2.196   4.352 -2.1269  0.7508  2.8771
   58CHL1  H21C 5453   1.486   2.129   4.514 -2.0794 -0.9002 -0.7121
   58CHL1   C22 5454   1.677   2.291   4.463  0.1154 -0.4046  0.0175
   58CHL1  H22A 5455   1.751   2.358   4.414 -1.2746  0.9429 -0.3629
   58CHL1  H22B 5456   1.586   2.353   4.481 -1.3427 -2.4122 -0.1206
   58CHL1   C23 5457   1.729   2.272   4.608 -0.3558  0.0210 -0.0128
   58CHL1  H23A 5458   1.680   2.183   4.653  0.3166 -1.6504 -2.4089
   58CHL1  H23B 5459   1.831   2.233   4.592 -0.6576 -0.0935 -1.9405
   58CHL1   C24 5460   1.724   2.405   4.688 -0.3385 -0.7489  0.0382
   58CHL1  H24A 5461   1.769   2.488   4.631 -0.2224 -0.2140  0.8897
   58CHL1  H24B 5462   1.616   2.416   4.714 -0.1889 -1.9950  1.3535
   58CHL1   C25 5463   1.800   2.394   4.823  0.9179 -0.2442 -0.3779
   58CHL1   H25 5464   1.799   2.495   4.870  0.3009 -0.0940 -0.7023
   58CHL1   C26 5465   1.727   2.295   4.915  0.3389 -0.1352 -0.2139
   58CHL1  H26A 5466   1.764   2.195   4.884 -0.0977 -0.7423  1.1337
   58CHL1  H26B 5467   1.744   2.315   5.023 -1.3410  2.1276 -0.2951
   58CHL1  H26C 5468   1.617   2.309   4.909  0.5788  2.0264 -0.3750
   58CHL1   C27 5469   1.949   2.356   4.816 -0.3194 -0.5489  0.5444
   58CHL1  H27A 5470   1.997   2.364   4.915  2.5332  1.9195 -0.8812
   58CHL1  H27B 5471   1.963   2.250   4.786  2.1405 -0.4514  1.1436
   58CHL1  H27C 5472   2.000   2.430   4.750 -0.4785 -1.0675 -0.1775
   59CHL1    C3 5473   5.288   4.237   3.620 -0.4168 -0.0609 -0.3711
   59CHL1    H3 5474   5.325   4.151   3.679  0.3715  0.8658  0.5154
   59CHL1    O3 5475   5.312   4.211   3.485 -0.4659  0.6778  0.8723
   59CHL1   H3' 5476   5.407   4.204   3.472 -0.5784 -0.1516  0.4454
   59CHL1    C4 5477   5.145   4.268   3.653 -0.4531  0.2052 -0.4939
   59CHL1   H4A 5478   5.101   4.346   3.588 -0.8971  0.5911  0.2558
   59CHL1   H4B 5479   5.096   4.175   3.619  1.2701 -1.0642  0.3273
   59CHL1    C5 5480   5.131   4.297   3.802 -0.2467 -0.0158 -0.3179
   59CHL1    C6 5481   5.047   4.226   3.881  0.0149 -0.0109 -0.2661
   59CHL1    H6 5482   4.987   4.148   3.833 -0.8825  1.2703 -1.2946
   59CHL1    C7 5483   5.013   4.252   4.029 -0.5549  0.9265 -0.1438
   59CHL1   H7A 5484   4.904   4.249   4.051 -0.5249  0.9706  0.0120
   59CHL1   H7B 5485   5.059   4.171   4.091  1.5299  1.6846 -0.6187
   59CHL1    C8 5486   5.071   4.396   4.069  0.4396 -0.8565  0.4658
   59CHL1    H8 5487   4.998   4.472   4.033  2.5920  2.3079  2.2591
   59CHL1   C14 5488   5.078   4.402   4.221 -0.0186 -0.4352 -0.6010
   59CHL1   H14 5489   5.151   4.327   4.258  1.7560  2.1958  1.6128
   59CHL1   C15 5490   4.963   4.364   4.301 -0.0234  0.2008  0.5077
   59CHL1  H15A 5491   4.872   4.409   4.257 -1.7305 -0.8150  2.8271
   59CHL1  H15B 5492   4.951   4.254   4.294 -0.3678  0.3228 -1.7435
   59CHL1   C16 5493   4.982   4.426   4.440 -0.1474 -0.2303 -0.2649
   59CHL1  H16A 5494   4.890   4.477   4.475  0.5280  1.7074 -1.1638
   59CHL1  H16B 5495   5.018   4.353   4.516 -1.2024  1.0966  1.6182
   59CHL1   C17 5496   5.110   4.518   4.434  0.3231  1.2059 -0.2600
   59CHL1   H17 5497   5.203   4.462   4.459 -0.8212 -0.8806 -0.4281
   59CHL1   C13 5498   5.128   4.536   4.279  0.2423 -0.5136  0.3887
   59CHL1   C18 5499   5.036   4.645   4.234 -0.0686  0.3381  0.2441
   59CHL1  H18A 5500   5.032   4.653   4.123  0.2991  3.2665  0.3400
   59CHL1  H18B 5501   4.934   4.629   4.275 -0.0493 -0.0125  0.1544
   59CHL1  H18C 5502   5.075   4.744   4.267  1.9749 -0.4583  0.3662
   59CHL1   C12 5503   5.274   4.551   4.227 -0.0490  0.4462  0.5389
   59CHL1  H12A 5504   5.311   4.647   4.268  0.4753 -1.0390  3.8807
   59CHL1  H12B 5505   5.329   4.461   4.263 -0.7028 -0.9368 -1.7397
   59CHL1   C11 5506   5.283   4.544   4.077 -0.4814 -0.0640  0.1073
   59CHL1  H11A 5507   5.226   4.635   4.051  0.6538  1.2567  1.9257
   59CHL1  H11B 5508   5.387   4.553   4.040 -0.6030  0.6402 -0.0756
   59CHL1    C9 5509   5.213   4.424   4.010 -0.1236  0.2232 -0.0982
   59CHL1    H9 5510   5.278   4.341   4.045  0.2452  0.9991  1.1302
   59CHL1   C10 5511   5.218   4.416   3.858 -0.3102  0.4743  0.4185
   59CHL1   C19 5512   5.157   4.549   3.797 -0.4304  0.1296 -0.3648
   59CHL1  H19A 5513   5.051   4.553   3.830 -0.1129  2.6756  0.5499
   59CHL1  H19B 5514   5.218   4.632   3.839 -0.4179  0.7781 -1.6418
   59CHL1  H19C 5515   5.168   4.548   3.687 -0.5436 -2.7817 -0.4296
   59CHL1    C1 5516   5.364   4.380   3.814 -0.3449 -0.1663 -0.0462
   59CHL1   H1A 5517   5.429   4.464   3.849  1.3990 -1.9378  1.1627
   59CHL1   H1B 5518   5.406   4.291   3.865 -0.7391 -1.0676 -1.2569
   59CHL1    C2 5519   5.375   4.355   3.657 -0.2823  0.1891 -0.2242
   59CHL1   H2A 5520   5.483   4.332   3.640 -0.4029  0.1264 -0.9587
   59CHL1   H2B 5521   5.350   4.441   3.590  1.2530 -0.2549 -1.4449
   59CHL1   C20 5522   5.111   4.630   4.533  0.3332 -0.7914  0.1056
   59CHL1   H20 5523   5.025   4.696   4.508 -0.8141 -1.4193  2.1241
   59CHL1   C21 5524   5.250   4.709   4.527  0.2795  0.1530 -0.3665
   59CHL1  H21A 5525   5.329   4.633   4.507 -0.8617 -1.2928  0.3658
   59CHL1  H21B 5526   5.267   4.769   4.618  1.0432 -1.3512  0.5203
   59CHL1  H21C 5527   5.253   4.777   4.439  1.8423 -1.7369 -1.8537
   59CHL1   C22 5528   5.098   4.581   4.680 -0.3497 -0.3637 -0.2408
   59CHL1  H22A 5529   5.036   4.490   4.690  0.5955 -1.0741 -0.6650
   59CHL1  H22B 5530   5.193   4.549   4.729  1.2916  2.4187 -1.3147
   59CHL1   C23 5531   5.041   4.697   4.776 -0.0188  0.1458  0.6244
   59CHL1  H23A 5532   5.108   4.785   4.765 -0.1235  0.1994  0.4013
   59CHL1  H23B 5533   4.942   4.733   4.743  1.3092  3.7589  0.1385
   59CHL1   C24 5534   5.036   4.671   4.928  0.3424  0.9267  0.1605
   59CHL1  H24A 5535   4.945   4.607   4.932  0.2511  0.9727 -1.0333
   59CHL1  H24B 5536   5.126   4.614   4.960 -0.5342 -0.3428  0.4737
   59CHL1   C25 5537   5.027   4.788   5.026 -0.3409  0.2452  0.1814
   59CHL1   H25 5538   5.123   4.839   5.005  0.6961 -2.1397 -1.3138
   59CHL1   C26 5539   4.919   4.877   4.983  0.3735  0.0686 -0.1398
   59CHL1  H26A 5540   4.916   4.968   5.046 -0.8220 -0.1375  0.1342
   59CHL1  H26B 5541   4.922   4.920   4.880  0.6054  3.0899  1.0367
   59CHL1  H26C 5542   4.829   4.813   4.998  0.3866  0.1837  0.4362
   59CHL1   C27 5543   5.003   4.752   5.163 -0.3582 -0.3739 -0.2372
   59CHL1  H27A 5544   4.988   4.844   5.223  1.3736 -0.7044  0.7745
   59CHL1  H27B 5545   4.905   4.701   5.178 -1.9566  2.4237 -0.5277
   59CHL1  H27C 5546   5.087   4.693   5.207 -0.7657 -0.6992  0.1159
   60CHL1    C3 5547   2.645   4.687   3.398 -1.0533  0.1373  0.1925
   60CHL1    H3 5548   2.710   4.597   3.410  1.7832  1.9567 -0.3924
   60CHL1    O3 5549   2.599   4.701   3.266 -0.5441 -0.6792  0.4308
   60CHL1   H3' 5550   2.676   4.717   3.210 -0.2837 -0.8582  0.7327
   60CHL1    C4 5551   2.518   4.680   3.485 -0.0395 -0.4522  0.0736
   60CHL1   H4A 5552   2.458   4.773   3.488  1.6376  0.6781  2.9016
   60CHL1   H4B 5553   2.455   4.596   3.450 -0.9586  0.2912 -0.1016
   60CHL1    C5 5554   2.559   4.660   3.630 -0.8673  0.2141 -0.1487
   60CHL1    C6 5555   2.528   4.549   3.699 -0.6138  0.2377 -0.3403
   60CHL1    H6 5556   2.457   4.474   3.664  0.0232 -1.4609  1.7598
   60CHL1    C7 5557   2.561   4.519   3.840 -0.7473  0.7994  0.2036
   60CHL1   H7A 5558   2.474   4.473   3.892 -1.8700  1.8319 -0.6953
   60CHL1   H7B 5559   2.641   4.445   3.855 -2.2873 -0.6353  1.8141
   60CHL1    C8 5560   2.602   4.653   3.914 -0.3037  0.2138 -1.1095
   60CHL1    H8 5561   2.511   4.713   3.935  1.9459  4.9755 -3.5474
   60CHL1   C14 5562   2.667   4.618   4.037  0.2387 -0.0762 -0.0184
   60CHL1   H14 5563   2.765   4.570   4.014  0.3928  0.7094 -1.1140
   60CHL1   C15 5564   2.601   4.504   4.119  0.2239 -0.4774  0.1366
   60CHL1  H15A 5565   2.490   4.515   4.109  0.4103 -0.2589 -2.2478
   60CHL1  H15B 5566   2.619   4.398   4.092 -0.9547 -1.3468  2.4871
   60CHL1   C16 5567   2.669   4.519   4.257 -1.1080  0.3436 -0.3496
   60CHL1  H16A 5568   2.587   4.549   4.326 -1.7629 -3.6414  0.8606
   60CHL1  H16B 5569   2.712   4.426   4.299 -0.7205 -0.4186 -2.3347
   60CHL1   C17 5570   2.763   4.647   4.248 -1.4183  0.5060 -0.7126
   60CHL1   H17 5571   2.853   4.597   4.208 -2.1734  0.0883 -1.9266
   60CHL1   C13 5572   2.707   4.732   4.124  0.3533 -0.2424 -0.3788
   60CHL1   C18 5573   2.586   4.825   4.165 -0.0818 -0.1207  0.0577
   60CHL1  H18A 5574   2.521   4.859   4.081  1.2571 -1.2591 -1.4915
   60CHL1  H18B 5575   2.522   4.774   4.240  0.6733 -1.7981 -0.3993
   60CHL1  H18C 5576   2.631   4.910   4.221 -1.2164  0.8471 -0.4253
   60CHL1   C12 5577   2.807   4.810   4.051  0.7334 -0.1121  0.2953
   60CHL1  H12A 5578   2.827   4.907   4.103  1.7234 -0.2051  0.1009
   60CHL1  H12B 5579   2.900   4.749   4.046 -0.9358 -2.9568  1.5021
   60CHL1   C11 5580   2.754   4.852   3.910 -0.3747 -0.0064  0.0734
   60CHL1  H11A 5581   2.672   4.922   3.937 -0.2333 -0.4907  1.8883
   60CHL1  H11B 5582   2.832   4.899   3.847 -0.8545  1.0665  0.2643
   60CHL1    C9 5583   2.700   4.735   3.831  0.8057  0.3595  0.3302
   60CHL1    H9 5584   2.777   4.656   3.814  0.4825  0.2666 -0.8130
   60CHL1   C10 5585   2.646   4.771   3.686  0.0827 -0.3406 -0.4313
   60CHL1   C19 5586   2.561   4.901   3.707  0.1840  1.0296 -0.8839
   60CHL1  H19A 5587   2.491   4.896   3.794  0.1928 -2.4331 -0.9479
   60CHL1  H19B 5588   2.625   4.991   3.722  1.2943 -0.1536  2.4557
   60CHL1  H19C 5589   2.506   4.920   3.612  2.3289  1.9435 -2.0050
   60CHL1    C1 5590   2.765   4.790   3.587  0.2037 -0.7557 -0.3926
   60CHL1   H1A 5591   2.849   4.853   3.622 -1.7368  2.5511 -1.2073
   60CHL1   H1B 5592   2.810   4.689   3.581 -0.5812 -1.2149  1.0636
   60CHL1    C2 5593   2.721   4.816   3.439 -0.4895  0.4570 -0.1432
   60CHL1   H2A 5594   2.817   4.807   3.385  1.6854 -1.0259  3.6222
   60CHL1   H2B 5595   2.667   4.911   3.416  0.7971  0.7267 -2.3603
   60CHL1   C20 5596   2.780   4.711   4.384 -0.4840 -1.0122 -0.3803
   60CHL1   H20 5597   2.688   4.749   4.434  1.5448  0.4731  2.5192
   60CHL1   C21 5598   2.871   4.838   4.385  0.2734  0.1191 -0.0456
   60CHL1  H21A 5599   2.830   4.908   4.309 -0.0030  1.7191  1.5194
   60CHL1  H21B 5600   2.968   4.805   4.344  0.3509 -0.1664  0.3647
   60CHL1  H21C 5601   2.881   4.891   4.482 -2.9523  0.9581 -0.0334
   60CHL1   C22 5602   2.834   4.605   4.483 -0.2683  0.7439  0.0021
   60CHL1  H22A 5603   2.753   4.530   4.500 -0.1142  1.1576  3.3770
   60CHL1  H22B 5604   2.917   4.547   4.438  0.3860  1.7743 -0.1466
   60CHL1   C23 5605   2.877   4.655   4.621 -1.1118  0.3486  0.2512
   60CHL1  H23A 5606   2.963   4.725   4.627  1.5164 -2.7206  1.3394
   60CHL1  H23B 5607   2.787   4.706   4.661  0.6447  1.4756  3.1598
   60CHL1   C24 5608   2.923   4.545   4.709 -0.1296  0.2207  0.5623
   60CHL1  H24A 5609   2.848   4.467   4.734 -1.8449  1.7966  0.5484
   60CHL1  H24B 5610   3.005   4.498   4.650  0.0342  0.1192  0.8689
   60CHL1   C25 5611   2.970   4.584   4.847 -0.0101  0.9317 -0.4571
   60CHL1   H25 5612   3.054   4.656   4.839 -0.4246  1.2612 -2.0544
   60CHL1   C26 5613   2.864   4.656   4.932  0.6184 -0.4359  0.3621
   60CHL1  H26A 5614   2.833   4.742   4.869  1.0675  1.9016  3.1197
   60CHL1  H26B 5615   2.770   4.598   4.944  0.9866 -1.4135 -1.1014
   60CHL1  H26C 5616   2.914   4.684   5.027  1.0344  1.2582 -0.3152
   60CHL1   C27 5617   3.029   4.462   4.923  0.3792 -0.3157 -0.4925
   60CHL1  H27A 5618   3.045   4.488   5.030  1.8527  0.0799 -0.7864
   60CHL1  H27B 5619   2.960   4.375   4.931 -1.1789  1.0481  3.2151
   60CHL1  H27C 5620   3.120   4.415   4.880 -1.6254 -3.1281 -1.9565
   61CHL1    C3 5621   1.204   5.995   3.567  0.3305  0.0926  0.1744
   61CHL1    H3 5622   1.295   5.985   3.629 -0.1301 -1.9894  0.5721
   61CHL1    O3 5623   1.230   6.003   3.425 -0.7086 -0.4104 -0.2937
   61CHL1   H3' 5624   1.146   5.986   3.383  0.4248 -2.1537 -1.9972
   61CHL1    C4 5625   1.120   5.866   3.594 -0.2305 -0.4366 -0.1886
   61CHL1   H4A 5626   1.034   5.863   3.523 -0.5475 -1.1820  0.2174
   61CHL1   H4B 5627   1.180   5.778   3.560 -0.0963 -0.8106  0.9896
   61CHL1    C5 5628   1.075   5.843   3.736 -0.2103  0.1960 -0.2984
   61CHL1    C6 5629   1.097   5.728   3.806  0.2709 -0.0229  0.3270
   61CHL1    H6 5630   1.158   5.651   3.758  0.6453  0.2566  0.3491
   61CHL1    C7 5631   1.054   5.707   3.939 -0.2245 -0.3787 -0.1244
   61CHL1   H7A 5632   0.992   5.615   3.932  2.0697 -1.9250 -1.2993
   61CHL1   H7B 5633   1.139   5.685   4.007 -0.1359 -1.9207 -0.7040
   61CHL1    C8 5634   0.966   5.823   4.001  0.4317  0.3544  0.3099
   61CHL1    H8 5635   0.860   5.800   3.978  0.0348 -0.8475  2.9621
   61CHL1   C14 5636   0.977   5.820   4.154  1.2231  0.4059 -0.4620
   61CHL1   H14 5637   1.085   5.834   4.174  1.1148  1.6512 -0.6620
   61CHL1   C15 5638   0.933   5.693   4.233  0.6194 -0.6444  0.6500
   61CHL1  H15A 5639   0.836   5.655   4.193 -2.0659  1.9430  4.1080
   61CHL1  H15B 5640   1.021   5.625   4.224  1.2507  0.3594 -1.4281
   61CHL1   C16 5641   0.907   5.738   4.377 -0.1974  0.1620 -0.9070
   61CHL1  H16A 5642   0.801   5.718   4.406 -0.1393  0.8752 -0.1767
   61CHL1  H16B 5643   0.973   5.695   4.455 -1.7990  0.1958  0.5519
   61CHL1   C17 5644   0.927   5.890   4.368  0.2291 -0.4416  0.8814
   61CHL1   H17 5645   1.037   5.905   4.378 -0.0284  1.1958  1.6518
   61CHL1   C13 5646   0.896   5.931   4.227 -0.6796 -0.1995 -0.1362
   61CHL1   C18 5647   0.747   5.914   4.204  0.6742 -0.1955 -0.0475
   61CHL1  H18A 5648   0.686   5.995   4.249  0.8738 -1.1455  2.0735
   61CHL1  H18B 5649   0.733   5.927   4.095  1.2843 -2.7491 -0.5048
   61CHL1  H18C 5650   0.699   5.818   4.234 -2.3504  1.2577  0.1799
   61CHL1   C12 5651   0.946   6.072   4.179  0.7909 -0.2976  0.2522
   61CHL1  H12A 5652   0.890   6.157   4.223  0.4776  0.2423 -1.1229
   61CHL1  H12B 5653   1.051   6.099   4.203  0.8644 -0.6215  0.3061
   61CHL1   C11 5654   0.939   6.082   4.026  0.5002 -0.7155 -0.3062
   61CHL1  H11A 5655   0.830   6.091   4.004  0.4232 -0.7574  0.0382
   61CHL1  H11B 5656   0.975   6.183   3.999 -0.2255 -0.5607 -0.7143
   61CHL1    C9 5657   1.008   5.965   3.953 -0.2790  0.2263  0.7223
   61CHL1    H9 5658   1.109   5.982   3.996 -0.0821  1.0834 -0.0448
   61CHL1   C10 5659   1.013   5.971   3.797 -0.2799  0.4501 -0.3914
   61CHL1   C19 5660   0.870   5.995   3.725  0.0284 -0.2090 -0.5966
   61CHL1  H19A 5661   0.823   6.090   3.758 -0.0235 -0.5891  0.4703
   61CHL1  H19B 5662   0.891   5.984   3.617  2.5330 -0.6082 -0.1319
   61CHL1  H19C 5663   0.796   5.924   3.768 -0.3881  0.7490  0.3108
   61CHL1    C1 5664   1.089   6.102   3.763 -0.6188 -0.3563  0.6830
   61CHL1   H1A 5665   1.026   6.191   3.783 -2.8596 -0.5924 -4.0359
   61CHL1   H1B 5666   1.190   6.107   3.808  1.2873 -0.5489 -3.1634
   61CHL1    C2 5667   1.129   6.117   3.605  0.0502 -0.4088  0.0622
   61CHL1   H2A 5668   1.186   6.209   3.582  1.4593 -1.3963 -0.5097
   61CHL1   H2B 5669   1.035   6.116   3.545 -0.3070 -1.5787  0.6160
   61CHL1   C20 5670   0.867   5.985   4.477 -0.8788 -0.5357  0.0325
   61CHL1   H20 5671   0.783   6.043   4.433 -1.0767 -1.6359 -1.0956
   61CHL1   C21 5672   0.975   6.091   4.508  0.0555  0.2690 -0.4855
   61CHL1  H21A 5673   1.073   6.046   4.536 -0.3223  0.8845  2.0325
   61CHL1  H21B 5674   0.951   6.159   4.592 -1.9838  0.3801 -1.0938
   61CHL1  H21C 5675   1.004   6.152   4.419  2.1083 -1.9868 -1.4887
   61CHL1   C22 5676   0.819   5.915   4.606 -0.2360  0.0703  0.6013
   61CHL1  H22A 5677   0.726   5.867   4.569 -0.2482  1.2550 -1.0195
   61CHL1  H22B 5678   0.892   5.842   4.647 -1.8704 -2.7136 -1.1227
   61CHL1   C23 5679   0.786   6.003   4.723 -0.2919  0.6693 -0.2371
   61CHL1  H23A 5680   0.879   6.045   4.768  0.5295 -1.3422  0.0536
   61CHL1  H23B 5681   0.722   6.084   4.684  1.2287  1.8905 -0.3056
   61CHL1   C24 5682   0.709   5.929   4.835  0.4216 -0.0537  0.3886
   61CHL1  H24A 5683   0.610   5.897   4.797 -0.4525  3.0516 -0.2576
   61CHL1  H24B 5684   0.768   5.837   4.856  1.4953  0.6235  0.4188
   61CHL1   C25 5685   0.679   6.015   4.952 -0.6250  0.2067  0.4156
   61CHL1   H25 5686   0.777   6.047   4.995  0.4443 -0.3703 -1.4491
   61CHL1   C26 5687   0.592   6.134   4.916  0.5730  0.5178  0.3493
   61CHL1  H26A 5688   0.659   6.206   4.867  0.9897  0.2740  0.5563
   61CHL1  H26B 5689   0.496   6.111   4.864  0.1336  2.3015  0.3143
   61CHL1  H26C 5690   0.563   6.173   5.017  1.1112  1.0050  0.3165
   61CHL1   C27 5691   0.611   5.939   5.073  0.1588 -0.3523 -0.2151
   61CHL1  H27A 5692   0.505   5.912   5.052  0.2665 -1.4299  0.5597
   61CHL1  H27B 5693   0.670   5.847   5.095 -0.5333 -0.7362  0.0799
   61CHL1  H27C 5694   0.617   5.994   5.169  1.8275 -0.9337  0.0437
   62CHL1    C3 5695   5.130   5.841   3.703  0.9044  0.0504 -0.5676
   62CHL1    H3 5696   5.240   5.855   3.691  1.3787  0.0276  2.8244
   62CHL1    O3 5697   5.064   5.866   3.579  0.2729 -0.0874 -0.1357
   62CHL1   H3' 5698   5.099   5.952   3.553 -3.3841  1.2905 -1.1787
   62CHL1    C4 5699   5.099   5.692   3.752 -0.4075 -0.2062  0.0457
   62CHL1   H4A 5700   4.988   5.685   3.752 -0.4967  0.6564  1.6791
   62CHL1   H4B 5701   5.140   5.612   3.686  0.3064  1.7797 -2.0842
   62CHL1    C5 5702   5.139   5.670   3.895  0.4541  0.1616  0.3781
   62CHL1    C6 5703   5.227   5.570   3.922  0.3452  1.0283  0.2850
   62CHL1    H6 5704   5.255   5.497   3.845 -0.1119  0.6967  0.4247
   62CHL1    C7 5705   5.267   5.533   4.057 -0.3081 -0.7522  0.0636
   62CHL1   H7A 5706   5.236   5.429   4.080 -2.0684 -0.5138 -1.0524
   62CHL1   H7B 5707   5.377   5.539   4.071 -0.0443 -1.9750 -1.1736
   62CHL1    C8 5708   5.199   5.617   4.174 -0.2410  0.2393  0.3634
   62CHL1    H8 5709   5.096   5.576   4.188  0.5133 -1.5294  0.9391
   62CHL1   C14 5710   5.285   5.615   4.302  0.0851  1.0652 -0.2671
   62CHL1   H14 5711   5.383   5.659   4.277  2.2421 -1.9864  2.0788
   62CHL1   C15 5712   5.315   5.475   4.354  0.0527 -0.7588 -0.4245
   62CHL1  H15A 5713   5.232   5.402   4.352  1.3202 -2.2524 -1.5496
   62CHL1  H15B 5714   5.395   5.423   4.296  1.5898 -1.8517  2.4842
   62CHL1   C16 5715   5.360   5.498   4.502  0.4955 -0.3590  0.7690
   62CHL1  H16A 5716   5.281   5.446   4.560  0.8961 -0.4920  1.2006
   62CHL1  H16B 5717   5.457   5.447   4.521  2.2343  1.7983 -1.6332
   62CHL1   C17 5718   5.326   5.647   4.528  0.0767 -0.0925 -0.0192
   62CHL1   H17 5719   5.414   5.701   4.489 -1.1910  1.1640 -1.2422
   62CHL1   C13 5720   5.228   5.696   4.417 -0.0807  0.2624 -0.1125
   62CHL1   C18 5721   5.083   5.644   4.442  0.0771 -0.3957  0.4714
   62CHL1  H18A 5722   5.038   5.703   4.525  2.8531  0.3971  1.4958
   62CHL1  H18B 5723   5.011   5.655   4.357 -1.6334 -0.8635  1.8023
   62CHL1  H18C 5724   5.080   5.541   4.482 -0.6667 -0.1916  0.9659
   62CHL1   C12 5725   5.225   5.838   4.373  0.3607 -0.4422  0.4664
   62CHL1  H12A 5726   5.184   5.905   4.452 -1.1593  0.0421 -0.6963
   62CHL1  H12B 5727   5.331   5.868   4.357  0.2774 -0.8644 -1.0123
   62CHL1   C11 5728   5.149   5.869   4.241  0.1042  0.9764 -0.6855
   62CHL1  H11A 5729   5.046   5.875   4.282  1.0558  2.2623  1.7352
   62CHL1  H11B 5730   5.186   5.969   4.208  2.0651 -0.0897 -1.8797
   62CHL1    C9 5731   5.188   5.766   4.128 -0.3833 -0.1001  0.3787
   62CHL1    H9 5732   5.291   5.796   4.098 -0.5443  0.0453 -0.0256
   62CHL1   C10 5733   5.101   5.778   4.002 -0.0581  0.1701 -0.0193
   62CHL1   C19 5734   4.948   5.772   4.033  0.3300  0.7150 -0.4829
   62CHL1  H19A 5735   4.895   5.766   3.935 -0.5364 -0.7082  0.0554
   62CHL1  H19B 5736   4.920   5.682   4.092 -1.1870 -1.0155 -3.5893
   62CHL1  H19C 5737   4.921   5.868   4.083 -0.9354 -0.9648  2.3057
   62CHL1    C1 5738   5.134   5.927   3.947 -0.3680 -0.0046  0.3056
   62CHL1   H1A 5739   5.093   6.006   4.012 -1.6635 -0.4291  0.0309
   62CHL1   H1B 5740   5.244   5.943   3.941 -0.5052  1.1034  0.5258
   62CHL1    C2 5741   5.076   5.944   3.806  0.5380  0.4448  0.0447
   62CHL1   H2A 5742   5.088   6.044   3.759 -3.1248 -0.2200 -2.6847
   62CHL1   H2B 5743   4.968   5.923   3.817  0.5823  0.1093 -0.1606
   62CHL1   C20 5744   5.316   5.699   4.678  0.3913  0.0581 -0.3920
   62CHL1   H20 5745   5.305   5.809   4.665  2.3285  0.5153  1.3083
   62CHL1   C21 5746   5.454   5.664   4.748 -0.0490 -0.2210  0.1677
   62CHL1  H21A 5747   5.460   5.706   4.851 -1.4807  0.3470  0.0386
   62CHL1  H21B 5748   5.535   5.712   4.689 -1.1202 -0.7015 -1.7945
   62CHL1  H21C 5749   5.463   5.554   4.742  1.1818 -0.0827 -0.9019
   62CHL1   C22 5750   5.202   5.639   4.763  0.0688 -0.0419 -0.2315
   62CHL1  H22A 5751   5.111   5.608   4.706  0.9025  1.1677 -2.3538
   62CHL1  H22B 5752   5.245   5.549   4.811 -2.1230 -2.2187 -2.0728
   62CHL1   C23 5753   5.143   5.727   4.877  0.1313 -0.4407 -0.0535
   62CHL1  H23A 5754   5.225   5.758   4.945  0.3845  1.2824 -1.0817
   62CHL1  H23B 5755   5.108   5.818   4.824  0.6668  0.0502  0.4238
   62CHL1   C24 5756   5.032   5.667   4.965 -0.2140 -1.1621  0.3202
   62CHL1  H24A 5757   5.087   5.593   5.026  1.7009 -0.8970 -1.0004
   62CHL1  H24B 5758   5.004   5.749   5.034  2.5692  0.0151  0.1623
   62CHL1   C25 5759   4.900   5.623   4.892 -0.5362  0.0950 -0.3629
   62CHL1   H25 5760   4.936   5.546   4.820  1.9489 -0.9360  1.7877
   62CHL1   C26 5761   4.794   5.558   4.992 -0.1600  0.3972 -0.3569
   62CHL1  H26A 5762   4.835   5.475   5.054  0.9406  0.8291 -0.4778
   62CHL1  H26B 5763   4.769   5.644   5.056 -0.9019  0.0598 -0.1828
   62CHL1  H26C 5764   4.705   5.524   4.935 -0.9735 -0.3587  1.2958
   62CHL1   C27 5765   4.832   5.745   4.831  0.3984 -0.9900  0.1769
   62CHL1  H27A 5766   4.884   5.796   4.747 -3.1495  0.3282 -1.4228
   62CHL1  H27B 5767   4.731   5.711   4.798  0.6366 -0.6446 -0.9547
   62CHL1  H27C 5768   4.827   5.826   4.907  1.4558 -0.7119 -0.0319
   63CHL1    C3 5769   0.596   5.201   3.812  0.1087 -0.6117  0.0710
   63CHL1    H3 5770   0.580   5.309   3.836  2.9828  0.2767 -1.4788
   63CHL1    O3 5771   0.611   5.180   3.669 -0.2411 -0.2112  0.1027
   63CHL1   H3' 5772   0.529   5.206   3.625  0.0625 -0.4568 -0.6224
   63CHL1    C4 5773   0.729   5.166   3.873  0.1692 -0.3685  0.3975
   63CHL1   H4A 5774   0.742   5.063   3.833 -0.9926 -0.9560  1.4547
   63CHL1   H4B 5775   0.806   5.233   3.829 -1.6660  1.8494  0.3488
   63CHL1    C5 5776   0.732   5.171   4.025 -0.2597  0.1761  0.4027
   63CHL1    C6 5777   0.803   5.263   4.099  0.0344  0.5628  0.4593
   63CHL1    H6 5778   0.868   5.335   4.048  1.0375 -0.8063 -0.2616
   63CHL1    C7 5779   0.816   5.254   4.247 -0.1260 -0.4297 -0.0291
   63CHL1   H7A 5780   0.925   5.251   4.266 -0.4075 -3.2282  1.6640
   63CHL1   H7B 5781   0.773   5.343   4.299  1.0240 -0.2616  0.6422
   63CHL1    C8 5782   0.752   5.132   4.311  0.9841 -0.5811  0.0791
   63CHL1    H8 5783   0.814   5.045   4.283 -1.7371 -2.6553  0.0575
   63CHL1   C14 5784   0.738   5.147   4.459 -0.2632  0.5191  0.7133
   63CHL1   H14 5785   0.655   5.220   4.473  1.5655  2.4383  2.1140
   63CHL1   C15 5786   0.864   5.180   4.542 -0.1446 -0.5808 -0.2588
   63CHL1  H15A 5787   0.950   5.124   4.499  0.7270  1.3930 -1.2094
   63CHL1  H15B 5788   0.887   5.288   4.532 -0.4386 -0.5262 -0.3496
   63CHL1   C16 5789   0.829   5.155   4.686 -0.2054 -0.2076  0.1826
   63CHL1  H16A 5790   0.904   5.079   4.717 -2.5345 -2.5058  0.4716
   63CHL1  H16B 5791   0.831   5.251   4.742  0.4186 -0.7308  1.0816
   63CHL1   C17 5792   0.690   5.079   4.690 -0.3298  0.3506 -0.3769
   63CHL1   H17 5793   0.615   5.161   4.694 -1.2097 -0.4269 -0.6964
   63CHL1   C13 5794   0.673   5.028   4.540 -0.9358 -0.6968  0.0079
   63CHL1   C18 5795   0.760   4.900   4.529 -0.4030  0.5812 -0.3776
   63CHL1  H18A 5796   0.708   4.823   4.590 -1.8248  0.7842 -1.2810
   63CHL1  H18B 5797   0.762   4.864   4.423 -0.5966  0.1584 -0.2378
   63CHL1  H18C 5798   0.859   4.900   4.579 -0.1445 -0.0425 -0.8712
   63CHL1   C12 5799   0.538   4.999   4.482  0.4707 -0.1252 -0.1424
   63CHL1  H12A 5800   0.508   4.902   4.528  1.0609 -0.7829 -1.0998
   63CHL1  H12B 5801   0.463   5.076   4.511  0.4292 -0.4371  0.5962
   63CHL1   C11 5802   0.537   4.978   4.329 -0.0508 -0.1135  0.2774
   63CHL1  H11A 5803   0.587   4.881   4.308 -0.3562 -0.1640 -0.2298
   63CHL1  H11B 5804   0.435   4.967   4.286  0.4456 -2.9085 -0.3650
   63CHL1    C9 5805   0.616   5.090   4.248  0.3274  0.5497 -0.3105
   63CHL1    H9 5806   0.546   5.174   4.266 -1.3390 -0.4974 -1.6612
   63CHL1   C10 5807   0.625   5.069   4.091  0.7985 -0.1008 -0.4292
   63CHL1   C19 5808   0.666   4.934   4.054 -0.2620 -0.2445 -0.2799
   63CHL1  H19A 5809   0.663   4.901   3.948 -1.8222 -1.8983  0.2379
   63CHL1  H19B 5810   0.764   4.905   4.098  0.0248 -2.3025 -2.1005
   63CHL1  H19C 5811   0.602   4.858   4.103  2.0364 -1.5040  0.9744
   63CHL1    C1 5812   0.484   5.096   4.029  0.0083  0.4385  0.4014
   63CHL1   H1A 5813   0.409   5.021   4.063 -0.3413  0.9869  0.8500
   63CHL1   H1B 5814   0.442   5.195   4.057 -0.5841  0.0764  0.8134
   63CHL1    C2 5815   0.488   5.105   3.874  0.3497 -0.2553 -0.0426
   63CHL1   H2A 5816   0.389   5.134   3.833  1.3368  0.4285 -2.0729
   63CHL1   H2B 5817   0.509   5.001   3.841  0.2011 -0.3942  0.2933
   63CHL1   C20 5818   0.666   4.975   4.798 -0.0932  0.6364  0.5337
   63CHL1   H20 5819   0.739   4.891   4.792  0.8608  1.2923  2.3352
   63CHL1   C21 5820   0.519   4.922   4.810 -0.3349 -0.2334  0.1492
   63CHL1  H21A 5821   0.475   4.930   4.911 -1.8303 -0.4762 -0.4507
   63CHL1  H21B 5822   0.526   4.817   4.775  0.0157  0.1626 -1.0256
   63CHL1  H21C 5823   0.455   4.979   4.739 -0.4514 -1.6458 -0.9128
   63CHL1   C22 5824   0.688   5.036   4.942  0.5888 -0.1369 -0.2578
   63CHL1  H22A 5825   0.784   5.092   4.941  0.4417  0.2454  1.6384
   63CHL1  H22B 5826   0.611   5.112   4.970  0.1538 -1.0833  1.2701
   63CHL1   C23 5827   0.703   4.932   5.052  0.3740  0.0395 -0.5309
   63CHL1  H23A 5828   0.679   4.829   5.019  0.6345 -0.4116  0.6515
   63CHL1  H23B 5829   0.802   4.928   5.101  0.4471 -0.7018 -0.7295
   63CHL1   C24 5830   0.608   4.959   5.181 -0.7374 -0.0539 -0.2628
   63CHL1  H24A 5831   0.626   5.064   5.215  0.2851 -0.5149  0.6853
   63CHL1  H24B 5832   0.503   4.955   5.145 -0.2384  1.8392 -2.1442
   63CHL1   C25 5833   0.608   4.854   5.293 -0.4714 -0.2718 -0.3178
   63CHL1   H25 5834   0.558   4.764   5.251  0.8121 -1.4493  0.5968
   63CHL1   C26 5835   0.752   4.805   5.339  0.4061 -0.3897 -0.8048
   63CHL1  H26A 5836   0.741   4.739   5.428  0.2185 -1.4129 -1.5780
   63CHL1  H26B 5837   0.808   4.748   5.262  2.2250 -0.2174  0.3220
   63CHL1  H26C 5838   0.809   4.895   5.371 -1.6435 -0.4960  4.1120
   63CHL1   C27 5839   0.532   4.911   5.415  0.4838  0.5559  0.0025
   63CHL1  H27A 5840   0.534   4.838   5.499 -0.2204  2.1549  1.4659
   63CHL1  H27B 5841   0.582   5.007   5.439 -0.5993  1.2052 -0.3256
   63CHL1  H27C 5842   0.424   4.922   5.391  0.3347  0.1681  0.4832
   64CHL1    C3 5843   5.457   2.766   3.032 -0.0741 -0.3947 -0.3533
   64CHL1    H3 5844   5.393   2.677   3.052  0.0526 -0.9513 -2.2438
   64CHL1    O3 5845   5.467   2.785   2.891 -0.0164  0.4520  0.4094
   64CHL1   H3' 5846   5.386   2.814   2.848  0.5147  0.9512 -0.2787
   64CHL1    C4 5847   5.377   2.885   3.100  0.1952  0.2775  0.6965
   64CHL1   H4A 5848   5.433   2.978   3.074 -1.4657  0.7435 -1.5543
   64CHL1   H4B 5849   5.279   2.886   3.046  0.2967  0.3136  0.5095
   64CHL1    C5 5850   5.358   2.870   3.252  0.0449  0.0905  0.6568
   64CHL1    C6 5851   5.233   2.854   3.309  0.5003 -0.4999 -0.2668
   64CHL1    H6 5852   5.147   2.844   3.240  0.4449 -0.4888 -0.1990
   64CHL1    C7 5853   5.217   2.854   3.453 -0.1469 -0.2226 -0.1882
   64CHL1   H7A 5854   5.135   2.926   3.473  0.5272  0.6583 -0.5032
   64CHL1   H7B 5855   5.184   2.756   3.494  0.6336 -0.0448  0.9300
   64CHL1    C8 5856   5.350   2.889   3.528  0.2508 -0.0398  0.6001
   64CHL1    H8 5857   5.350   3.000   3.526 -1.5785  0.0107  1.2199
   64CHL1   C14 5858   5.340   2.842   3.678 -0.3590  0.0195 -0.1570
   64CHL1   H14 5859   5.340   2.731   3.673  0.1158  0.0153 -0.1032
   64CHL1   C15 5860   5.216   2.883   3.753 -0.3907 -0.9613  0.1404
   64CHL1  H15A 5861   5.202   2.992   3.734  0.6922 -0.7158  0.6520
   64CHL1  H15B 5862   5.124   2.831   3.721 -1.0624  0.8923 -1.1428
   64CHL1   C16 5863   5.257   2.851   3.894  0.3541  0.4230  0.6860
   64CHL1  H16A 5864   5.234   2.938   3.960 -1.7563  1.0372 -0.7529
   64CHL1  H16B 5865   5.192   2.764   3.916  2.3597 -1.8605 -1.8282
   64CHL1   C17 5866   5.410   2.806   3.899 -0.0670 -0.1224 -0.7589
   64CHL1   H17 5867   5.425   2.696   3.889  1.2388 -0.0517  0.2472
   64CHL1   C13 5868   5.460   2.866   3.770 -0.3671 -0.2440  0.5257
   64CHL1   C18 5869   5.487   3.018   3.785  0.0202  0.4967  0.5680
   64CHL1  H18A 5870   5.393   3.061   3.827 -0.0117 -0.3931  1.4347
   64CHL1  H18B 5871   5.575   3.035   3.851 -1.4611  1.6136  2.3767
   64CHL1  H18C 5872   5.502   3.054   3.681  0.6306  1.5212  0.9842
   64CHL1   C12 5873   5.580   2.797   3.706  0.7290  0.2148  0.1498
   64CHL1  H12A 5874   5.672   2.819   3.763 -1.4102  2.2518  3.1210
   64CHL1  H12B 5875   5.583   2.686   3.693  2.5506  0.1466  0.8704
   64CHL1   C11 5876   5.601   2.852   3.562 -0.6469  0.4523  0.4037
   64CHL1  H11A 5877   5.633   2.959   3.559  2.3286 -0.3374  0.5535
   64CHL1  H11B 5878   5.681   2.788   3.519 -0.1330  1.5901 -0.4036
   64CHL1    C9 5879   5.476   2.833   3.470 -0.6015  0.5799  0.2127
   64CHL1    H9 5880   5.452   2.725   3.470  0.0563  0.4258  0.6449
   64CHL1   C10 5881   5.490   2.866   3.318 -0.9175  0.1249  0.5501
   64CHL1   C19 5882   5.576   3.000   3.306 -0.0343  0.0912  0.2298
   64CHL1  H19A 5883   5.677   2.989   3.351  0.5564 -1.4967 -1.3419
   64CHL1  H19B 5884   5.590   3.029   3.200 -3.0637  0.3515 -0.1940
   64CHL1  H19C 5885   5.525   3.086   3.353 -0.1210  1.2317 -1.8265
   64CHL1    C1 5886   5.572   2.752   3.249  0.5509  0.1827  0.3271
   64CHL1   H1A 5887   5.669   2.744   3.302 -1.3376  0.8545  4.2031
   64CHL1   H1B 5888   5.534   2.652   3.277  0.6432  0.0101 -0.1476
   64CHL1    C2 5889   5.591   2.753   3.102 -0.2193 -0.3879  0.0703
   64CHL1   H2A 5890   5.642   2.660   3.072 -0.4103  0.3659 -2.8311
   64CHL1   H2B 5891   5.662   2.833   3.072 -0.0575  0.0167  1.4448
   64CHL1   C20 5892   5.480   2.845   4.028 -0.2236 -0.1724  0.3643
   64CHL1   H20 5893   5.457   2.953   4.043 -2.7046 -0.4981 -0.6696
   64CHL1   C21 5894   5.636   2.804   4.026  0.0892 -0.1338 -0.3850
   64CHL1  H21A 5895   5.693   2.872   3.959  0.2641  2.7671  2.4061
   64CHL1  H21B 5896   5.645   2.700   3.989 -0.5265 -0.0266 -0.8539
   64CHL1  H21C 5897   5.675   2.800   4.131  1.2014  1.0001 -0.7270
   64CHL1   C22 5898   5.410   2.764   4.142 -0.2152  0.4943 -0.6197
   64CHL1  H22A 5899   5.304   2.737   4.120 -0.1418 -0.0235 -0.3547
   64CHL1  H22B 5900   5.469   2.672   4.163  0.4843  0.7901 -1.2321
   64CHL1   C23 5901   5.417   2.849   4.275  0.5339 -0.4459 -0.2568
   64CHL1  H23A 5902   5.523   2.879   4.293  0.3567 -0.9898  2.0854
   64CHL1  H23B 5903   5.340   2.923   4.248 -0.2631 -1.3588 -0.5334
   64CHL1   C24 5904   5.359   2.770   4.389  0.2046  0.8041 -0.2135
   64CHL1  H24A 5905   5.261   2.732   4.351 -0.8900  0.6718  2.5164
   64CHL1  H24B 5906   5.431   2.686   4.395  0.6564  1.0349 -1.8131
   64CHL1   C25 5907   5.344   2.837   4.519  0.3406 -0.4403 -0.4805
   64CHL1   H25 5908   5.255   2.903   4.514 -0.2995 -1.1370  1.0998
   64CHL1   C26 5909   5.303   2.730   4.618 -0.1069  0.4440  0.3106
   64CHL1  H26A 5910   5.393   2.665   4.630 -0.0683  0.2601 -0.8770
   64CHL1  H26B 5911   5.268   2.772   4.715 -1.8058  0.0510 -0.1024
   64CHL1  H26C 5912   5.224   2.671   4.567  1.3510  0.2963 -1.8873
   64CHL1   C27 5913   5.464   2.924   4.571  0.0005 -0.7824  0.6263
   64CHL1  H27A 5914   5.468   3.018   4.511  0.5436 -1.1330  0.1014
   64CHL1  H27B 5915   5.448   2.964   4.673 -1.0533 -0.0358  0.1847
   64CHL1  H27C 5916   5.560   2.868   4.563 -0.4124 -1.2692 -1.4403
   65CHL1    C3 5917   3.535   2.857   3.104  0.2829 -0.5666  0.2223
   65CHL1    H3 5918   3.572   2.958   3.133 -0.1185  0.4299 -2.4330
   65CHL1    O3 5919   3.508   2.851   2.961  0.1643 -0.6019 -0.0404
   65CHL1   H3' 5920   3.478   2.761   2.946 -0.0383 -0.4265 -0.7255
   65CHL1    C4 5921   3.642   2.753   3.134  0.3745 -0.0804  0.2827
   65CHL1   H4A 5922   3.600   2.655   3.101  0.4887  0.3099 -1.0520
   65CHL1   H4B 5923   3.739   2.773   3.084 -0.3341 -1.9552 -2.0148
   65CHL1    C5 5924   3.666   2.746   3.284 -0.4654 -0.0833 -0.5218
   65CHL1    C6 5925   3.787   2.767   3.343  0.3379  0.2710 -0.2667
   65CHL1    H6 5926   3.873   2.774   3.275 -0.3065  0.7177 -1.0669
   65CHL1    C7 5927   3.812   2.755   3.495 -0.1041 -0.0662  0.4417
   65CHL1   H7A 5928   3.898   2.685   3.507 -0.7795 -0.9609  0.2425
   65CHL1   H7B 5929   3.833   2.856   3.534  0.5436 -0.4188  1.0196
   65CHL1    C8 5930   3.701   2.688   3.573  0.1581 -0.4408 -0.0372
   65CHL1    H8 5931   3.712   2.579   3.552  2.9118 -0.3918  0.8598
   65CHL1   C14 5932   3.714   2.724   3.716  0.4310 -0.7721  0.3912
   65CHL1   H14 5933   3.708   2.835   3.724 -1.0292 -0.7248 -0.8282
   65CHL1   C15 5934   3.850   2.695   3.776  0.6665  0.0534 -0.7092
   65CHL1  H15A 5935   3.891   2.599   3.737  2.2561  0.8411 -1.0543
   65CHL1  H15B 5936   3.929   2.771   3.756  0.2829  0.1253 -2.1014
   65CHL1   C16 5937   3.820   2.678   3.927 -0.2376  0.6020  0.3645
   65CHL1  H16A 5938   3.874   2.586   3.961 -0.5847 -0.4252 -1.7300
   65CHL1  H16B 5939   3.854   2.769   3.980 -2.7643  2.6077 -1.2576
   65CHL1   C17 5940   3.664   2.694   3.946  0.1868  0.4180 -0.7892
   65CHL1   H17 5941   3.631   2.797   3.972 -1.4237 -0.7379  2.2449
   65CHL1   C13 5942   3.605   2.668   3.805  0.1297 -0.0385  0.2312
   65CHL1   C18 5943   3.591   2.515   3.783 -0.0283  0.0358  0.3533
   65CHL1  H18A 5944   3.697   2.481   3.786 -0.1595 -0.3199  3.1719
   65CHL1  H18B 5945   3.535   2.468   3.866  0.8919 -1.3593  0.2225
   65CHL1  H18C 5946   3.554   2.495   3.680  0.7442 -1.0899  0.2701
   65CHL1   C12 5947   3.473   2.738   3.761  0.0651 -0.1772 -0.8850
   65CHL1  H12A 5948   3.392   2.685   3.816  0.7104  0.9133  1.2242
   65CHL1  H12B 5949   3.476   2.845   3.791 -2.2224 -0.3012  0.0151
   65CHL1   C11 5950   3.439   2.718   3.608  0.3352 -0.5178 -0.5928
   65CHL1  H11A 5951   3.395   2.617   3.590 -1.4582  0.1261 -0.0679
   65CHL1  H11B 5952   3.364   2.799   3.588 -1.1150 -0.9132  2.6218
   65CHL1    C9 5953   3.567   2.739   3.517 -0.3912 -0.1182 -0.5791
   65CHL1    H9 5954   3.584   2.848   3.529 -0.4583 -0.1623 -0.0503
   65CHL1   C10 5955   3.541   2.713   3.365  0.2041  0.2314  0.1590
   65CHL1   C19 5956   3.489   2.573   3.339 -0.2071  0.0219  0.2055
   65CHL1  H19A 5957   3.459   2.560   3.232 -2.2494 -1.6642  0.9230
   65CHL1  H19B 5958   3.571   2.499   3.353 -0.2481 -0.3194 -1.1456
   65CHL1  H19C 5959   3.401   2.544   3.399  0.3393  2.2316  2.2162
   65CHL1    C1 5960   3.433   2.813   3.324  0.8890  0.2294 -0.4666
   65CHL1   H1A 5961   3.336   2.777   3.366  1.2478 -0.4377 -0.1993
   65CHL1   H1B 5962   3.453   2.918   3.356  2.8350 -0.4538  0.7564
   65CHL1    C2 5963   3.407   2.815   3.174  0.1714  0.1840  0.8633
   65CHL1   H2A 5964   3.328   2.892   3.159  1.1653  0.8771 -1.1788
   65CHL1   H2B 5965   3.378   2.714   3.135  3.2126 -0.2240 -0.6305
   65CHL1   C20 5966   3.615   2.608   4.065 -0.4386  0.2248  0.3028
   65CHL1   H20 5967   3.618   2.498   4.047  2.1380  0.1917  0.5300
   65CHL1   C21 5968   3.469   2.649   4.090 -0.2523  0.6353 -0.4127
   65CHL1  H21A 5969   3.461   2.760   4.098  0.4648  0.7927 -1.5701
   65CHL1  H21B 5970   3.413   2.617   4.180  0.6204  0.8111  0.2088
   65CHL1  H21C 5971   3.420   2.604   4.002  0.3574 -0.5840 -0.1425
   65CHL1   C22 5972   3.703   2.625   4.194  0.0089 -0.5588  0.7349
   65CHL1  H22A 5973   3.807   2.596   4.168 -1.0944 -3.7200 -0.6674
   65CHL1  H22B 5974   3.685   2.732   4.215 -0.9969 -0.8028  1.1954
   65CHL1   C23 5975   3.661   2.538   4.305 -0.0371 -0.0306 -0.1827
   65CHL1  H23A 5976   3.552   2.544   4.326  0.3576  3.0516  1.6388
   65CHL1  H23B 5977   3.677   2.439   4.258 -2.2448 -0.5971  0.1749
   65CHL1   C24 5978   3.729   2.560   4.441 -0.5009 -0.0699 -0.1630
   65CHL1  H24A 5979   3.721   2.474   4.511  2.5749 -0.0559  0.3493
   65CHL1  H24B 5980   3.837   2.563   4.414 -0.5368 -1.8964 -0.6724
   65CHL1   C25 5981   3.700   2.689   4.522  0.4139 -0.3663 -0.7457
   65CHL1   H25 5982   3.716   2.773   4.450 -0.2499  0.0938 -0.3755
   65CHL1   C26 5983   3.555   2.678   4.571 -0.2452  0.0448  1.1218
   65CHL1  H26A 5984   3.509   2.741   4.650 -1.2147  2.0212 -0.9002
   65CHL1  H26B 5985   3.489   2.676   4.481  0.7553 -1.6451  0.3735
   65CHL1  H26C 5986   3.552   2.576   4.615 -3.2233 -0.6549 -0.4135
   65CHL1   C27 5987   3.802   2.702   4.638 -0.3290 -0.0877 -0.8774
   65CHL1  H27A 5988   3.891   2.746   4.588 -1.3707  2.2495 -0.8177
   65CHL1  H27B 5989   3.759   2.771   4.714  2.0148  0.3946  0.0878
   65CHL1  H27C 5990   3.819   2.611   4.700  0.5016  0.4372 -0.3107
   66CHL1    C3 5991   3.036   1.109   3.049  0.5684 -0.4912  0.0572
   66CHL1    H3 5992   3.112   1.186   3.075 -0.7597 -0.2545  3.7474
   66CHL1    O3 5993   3.017   1.083   2.910 -0.2348 -0.0363 -0.1972
   66CHL1   H3' 5994   2.938   1.028   2.909  2.0662 -3.8507  2.2829
   66CHL1    C4 5995   3.087   0.980   3.122  0.1301 -0.2603  0.4035
   66CHL1   H4A 5996   3.019   0.894   3.104  1.9161 -1.5785 -0.3775
   66CHL1   H4B 5997   3.188   0.954   3.085  0.4157  0.1161  0.8983
   66CHL1    C5 5998   3.095   0.998   3.276 -0.6175  0.0595  0.3220
   66CHL1    C6 5999   3.210   0.974   3.345 -0.1326  0.0216  0.3278
   66CHL1    H6 6000   3.292   0.939   3.281  0.5530 -0.7738  1.5953
   66CHL1    C7 6001   3.238   1.006   3.490 -0.2901  0.4535 -0.4111
   66CHL1   H7A 6002   3.298   0.931   3.545 -1.1580  1.1454  1.6016
   66CHL1   H7B 6003   3.306   1.094   3.487 -1.1623  1.2515  1.5355
   66CHL1    C8 6004   3.109   1.035   3.566  0.0220 -0.1773  0.2369
   66CHL1    H8 6005   3.047   0.944   3.580 -0.7845  0.3131  0.0064
   66CHL1   C14 6006   3.145   1.096   3.696 -0.2231  0.8947  0.0337
   66CHL1   H14 6007   3.197   1.190   3.667 -1.2913  0.8155 -2.3408
   66CHL1   C15 6008   3.252   1.025   3.780  0.2862 -0.0354 -0.4515
   66CHL1  H15A 6009   3.242   0.915   3.768  1.1300 -0.1319 -0.3601
   66CHL1  H15B 6010   3.353   1.046   3.737  0.2275  0.5230 -0.3201
   66CHL1   C16 6011   3.226   1.076   3.920 -0.1088 -0.8140 -0.2954
   66CHL1  H16A 6012   3.197   0.992   3.987  0.1101 -0.6095  0.0582
   66CHL1  H16B 6013   3.321   1.120   3.958 -1.2558  1.4398  0.1307
   66CHL1   C17 6014   3.117   1.185   3.910  0.4829 -0.0136 -0.0888
   66CHL1   H17 6015   3.163   1.279   3.872  0.4886 -0.3327 -0.8964
   66CHL1   C13 6016   3.028   1.128   3.794  0.1676 -0.4620 -0.3123
   66CHL1   C18 6017   2.949   1.004   3.850  0.0125 -0.2643  0.6652
   66CHL1  H18A 6018   2.905   0.943   3.768  2.7887  1.2966 -2.2085
   66CHL1  H18B 6019   3.009   0.932   3.911  0.0894  0.5973  1.6412
   66CHL1  H18C 6020   2.872   1.032   3.926  0.6024  1.4098  0.6842
   66CHL1   C12 6021   2.933   1.221   3.715 -0.3709  0.3455 -0.2232
   66CHL1  H12A 6022   2.840   1.226   3.776 -0.3752 -0.3683 -0.1555
   66CHL1  H12B 6023   2.974   1.323   3.708 -0.2920  0.3516  0.2721
   66CHL1   C11 6024   2.895   1.158   3.580 -0.9573  0.3455 -0.2941
   66CHL1  H11A 6025   2.847   1.061   3.603  0.7963 -0.5810 -0.3939
   66CHL1  H11B 6026   2.823   1.223   3.524  0.7523  0.9924 -1.8364
   66CHL1    C9 6027   3.013   1.126   3.485 -0.8395 -0.1928  0.1496
   66CHL1    H9 6028   3.058   1.228   3.477  0.2530 -0.7205 -0.7188
   66CHL1   C10 6029   2.973   1.065   3.348 -0.3438  0.0762 -0.1979
   66CHL1   C19 6030   2.866   0.953   3.363 -0.6513  0.7822 -1.1833
   66CHL1  H19A 6031   2.838   0.914   3.262  0.2848 -2.7227 -0.2404
   66CHL1  H19B 6032   2.906   0.878   3.434  1.6865  2.0608 -1.0688
   66CHL1  H19C 6033   2.773   0.998   3.404 -1.0581 -0.3194 -0.8620
   66CHL1    C1 6034   2.915   1.178   3.269 -0.3633 -0.3851  0.8422
   66CHL1   H1A 6035   2.815   1.212   3.303  0.2236  0.0117  2.2773
   66CHL1   H1B 6036   2.985   1.264   3.281 -0.8177  0.2559 -0.8218
   66CHL1    C2 6037   2.903   1.145   3.114 -0.5566 -0.4486 -0.5156
   66CHL1   H2A 6038   2.863   1.238   3.068 -0.0154 -0.1483 -0.3855
   66CHL1   H2B 6039   2.821   1.070   3.105  1.6029 -3.4546  2.4586
   66CHL1   C20 6040   3.048   1.216   4.040  0.2361  0.0338 -0.4004
   66CHL1   H20 6041   2.966   1.148   4.071 -1.1362  1.5659 -0.4805
   66CHL1   C21 6042   2.978   1.358   4.024  0.4385  0.2590 -0.1020
   66CHL1  H21A 6043   2.938   1.371   4.127  2.5866  0.2709  0.7899
   66CHL1  H21B 6044   2.899   1.358   3.946 -1.4103 -1.2329  1.6418
   66CHL1  H21C 6045   3.057   1.433   4.004  0.2124  0.5760  0.1808
   66CHL1   C22 6046   3.143   1.222   4.161 -0.1197  0.5505  0.4518
   66CHL1  H22A 6047   3.084   1.246   4.252 -0.0275  2.2160  0.1071
   66CHL1  H22B 6048   3.188   1.123   4.183 -0.8142  0.3402  0.9449
   66CHL1   C23 6049   3.251   1.337   4.168  0.3526 -0.9129 -0.1108
   66CHL1  H23A 6050   3.297   1.316   4.069 -0.1898  0.1988 -0.6229
   66CHL1  H23B 6051   3.194   1.432   4.160  2.2278  0.1870 -0.9966
   66CHL1   C24 6052   3.322   1.336   4.302  0.4152  0.0192  0.2758
   66CHL1  H24A 6053   3.269   1.369   4.394  3.8760  2.1468  1.7420
   66CHL1  H24B 6054   3.357   1.233   4.327  3.4771  1.4870  2.7937
   66CHL1   C25 6055   3.435   1.442   4.300  0.2591 -0.1915  0.1276
   66CHL1   H25 6056   3.383   1.530   4.257  0.1190 -0.7103 -0.8056
   66CHL1   C26 6057   3.492   1.475   4.438 -0.3593  0.1015 -0.3612
   66CHL1  H26A 6058   3.423   1.522   4.511  2.0702 -1.2283  3.0480
   66CHL1  H26B 6059   3.547   1.391   4.484  0.5149  0.5948 -0.4830
   66CHL1  H26C 6060   3.572   1.552   4.433  0.3978 -0.6380  0.1130
   66CHL1   C27 6061   3.543   1.408   4.197  0.1893 -0.3639 -0.0492
   66CHL1  H27A 6062   3.571   1.302   4.214  1.6986  0.0350  0.0939
   66CHL1  H27B 6063   3.628   1.479   4.206  0.2716  0.0065 -2.8467
   66CHL1  H27C 6064   3.502   1.426   4.095  0.5870 -0.6357 -0.2577
   67CHL1    C3 6065   2.057   5.476   3.781 -0.7364  0.5661  1.1613
   67CHL1    H3 6066   2.046   5.368   3.802 -0.4421  0.4484  0.7379
   67CHL1    O3 6067   2.099   5.490   3.642 -0.4935  0.4234 -0.5252
   67CHL1   H3' 6068   2.119   5.583   3.632  1.3473  0.5159  2.7029
   67CHL1    C4 6069   1.915   5.534   3.811  0.5343 -0.4255 -0.1937
   67CHL1   H4A 6070   1.904   5.631   3.759 -3.2110 -0.4044  0.3733
   67CHL1   H4B 6071   1.842   5.476   3.751  2.1844  1.8345 -4.8604
   67CHL1    C5 6072   1.876   5.533   3.956 -1.0213  0.2353  0.1440
   67CHL1    C6 6073   1.757   5.487   4.000  0.0376  0.4477 -0.5955
   67CHL1    H6 6074   1.677   5.463   3.929 -0.2712  1.5655 -0.6394
   67CHL1    C7 6075   1.718   5.491   4.152 -1.0668 -0.2818  0.5146
   67CHL1   H7A 6076   1.613   5.525   4.165 -0.7018  1.3808 -0.5691
   67CHL1   H7B 6077   1.724   5.386   4.188 -1.1919 -1.1858 -1.9399
   67CHL1    C8 6078   1.815   5.574   4.246  0.8656  0.4254 -0.3319
   67CHL1    H8 6079   1.789   5.682   4.238  0.2034  0.3638  0.7390
   67CHL1   C14 6080   1.787   5.539   4.397 -0.0605 -0.1520  0.1286
   67CHL1   H14 6081   1.809   5.430   4.394 -1.2974 -0.4098 -0.1484
   67CHL1   C15 6082   1.637   5.539   4.450  0.6289  0.0853  0.1195
   67CHL1  H15A 6083   1.588   5.634   4.421 -0.5260 -0.6490 -0.3755
   67CHL1  H15B 6084   1.589   5.447   4.410  1.4841 -1.2716  2.0406
   67CHL1   C16 6085   1.665   5.529   4.598 -0.1969 -0.3679  0.1798
   67CHL1  H16A 6086   1.613   5.611   4.652 -2.2505 -1.8149  0.5038
   67CHL1  H16B 6087   1.618   5.435   4.635 -0.2860 -0.5993 -0.5134
   67CHL1   C17 6088   1.824   5.537   4.623  0.3144 -0.1279  0.4466
   67CHL1   H17 6089   1.851   5.430   4.614 -2.6015 -0.9400  0.6134
   67CHL1   C13 6090   1.882   5.606   4.493 -0.1949 -0.2023 -0.4138
   67CHL1   C18 6091   1.860   5.758   4.500  0.6188  0.0825 -0.1398
   67CHL1  H18A 6092   1.884   5.799   4.399 -1.2881  0.9768 -0.2867
   67CHL1  H18B 6093   1.754   5.777   4.528  0.1661 -1.5010 -0.6906
   67CHL1  H18C 6094   1.929   5.803   4.574 -0.5022 -0.6077  1.3599
   67CHL1   C12 6095   2.026   5.577   4.457  0.7709 -0.0752  0.3123
   67CHL1  H12A 6096   2.102   5.628   4.520  1.6237  0.5644 -1.2010
   67CHL1  H12B 6097   2.042   5.470   4.483 -1.6786  0.1267  3.2567
   67CHL1   C11 6098   2.052   5.613   4.310  0.6518  0.0477 -0.1237
   67CHL1  H11A 6099   2.043   5.724   4.309 -1.5043 -0.0324  1.9582
   67CHL1  H11B 6100   2.154   5.574   4.292  0.1169 -1.0250 -0.9536
   67CHL1    C9 6101   1.954   5.549   4.205 -0.6968  0.3668  0.1254
   67CHL1    H9 6102   1.981   5.441   4.214 -0.4495  0.2671 -1.6313
   67CHL1   C10 6103   1.982   5.585   4.055 -0.8337  0.5308  0.1265
   67CHL1   C19 6104   2.006   5.738   4.032 -0.2430 -0.1929  0.5259
   67CHL1  H19A 6105   2.044   5.765   3.931 -0.7823 -2.3100 -0.3045
   67CHL1  H19B 6106   1.911   5.788   4.060  0.1698  0.0755  1.4819
   67CHL1  H19C 6107   2.083   5.779   4.101 -0.0902 -0.4832  0.5302
   67CHL1    C1 6108   2.118   5.517   4.015  0.9715  0.5017 -0.2696
   67CHL1   H1A 6109   2.206   5.542   4.077  1.3834 -3.2607  0.9043
   67CHL1   H1B 6110   2.094   5.409   4.024  0.4303  0.5638 -0.8776
   67CHL1    C2 6111   2.156   5.533   3.874  0.1657  0.3874  0.5229
   67CHL1   H2A 6112   2.247   5.473   3.853 -0.1441 -0.6618  2.0467
   67CHL1   H2B 6113   2.177   5.637   3.840 -0.2234  0.8436  1.6274
   67CHL1   C20 6114   1.851   5.592   4.765 -0.3768 -0.3951 -0.2421
   67CHL1   H20 6115   1.827   5.701   4.758 -0.4453 -0.2252  1.9710
   67CHL1   C21 6116   2.003   5.574   4.805  0.0657  0.1950  0.1619
   67CHL1  H21A 6117   2.036   5.469   4.816  0.0958  0.2037  0.1539
   67CHL1  H21B 6118   2.021   5.629   4.900  1.3370 -1.5090  0.9678
   67CHL1  H21C 6119   2.069   5.625   4.732 -0.6346  0.4354 -0.3170
   67CHL1   C22 6120   1.760   5.535   4.877 -0.1468  0.2130 -0.1069
   67CHL1  H22A 6121   1.782   5.596   4.967  1.7985 -2.7401  1.5994
   67CHL1  H22B 6122   1.654   5.539   4.845  0.0665 -1.0082 -1.0448
   67CHL1   C23 6123   1.787   5.393   4.925  0.5916  0.0548  0.3490
   67CHL1  H23A 6124   1.760   5.320   4.845 -0.2360 -1.4106  1.8990
   67CHL1  H23B 6125   1.891   5.378   4.960  1.3913  0.7299 -1.6134
   67CHL1   C24 6126   1.705   5.354   5.046 -0.4142 -0.4453  0.2323
   67CHL1  H24A 6127   1.702   5.243   5.053 -2.7751 -0.4078  0.6281
   67CHL1  H24B 6128   1.744   5.405   5.137 -0.8794  0.9824 -0.3393
   67CHL1   C25 6129   1.559   5.377   5.040  0.3086  0.5980 -0.2178
   67CHL1   H25 6130   1.541   5.486   5.053 -3.9312 -0.1975  3.0273
   67CHL1   C26 6131   1.506   5.314   4.916  0.1319 -0.9073  0.2496
   67CHL1  H26A 6132   1.401   5.283   4.937 -0.3293 -1.0221 -1.9996
   67CHL1  H26B 6133   1.521   5.363   4.818  2.4585  1.0003  1.4661
   67CHL1  H26C 6134   1.558   5.217   4.904  0.9925 -0.4598  0.3296
   67CHL1   C27 6135   1.499   5.315   5.163  0.6592 -0.2159 -0.1443
   67CHL1  H27A 6136   1.390   5.339   5.161  0.6849 -0.1451 -1.0183
   67CHL1  H27B 6137   1.510   5.204   5.169  1.7210 -0.1593 -0.8546
   67CHL1  H27C 6138   1.546   5.360   5.253 -0.5686  0.0464  0.3939
   68CHL1    C3 6139   5.378   5.708   3.429 -0.2011 -0.1604  0.1294
   68CHL1    H3 6140   5.282   5.726   3.481  1.0032 -0.6931  2.6924
   68CHL1    O3 6141   5.357   5.663   3.291  0.0391 -0.3909  0.0707
   68CHL1   H3' 6142   5.351   5.745   3.242  0.2087 -0.5032 -0.1399
   68CHL1    C4 6143   5.442   5.850   3.420 -0.3881  0.4311 -0.1449
   68CHL1   H4A 6144   5.530   5.841   3.353 -0.5243  1.6545 -0.5043
   68CHL1   H4B 6145   5.366   5.913   3.369 -1.8497 -1.6276 -0.6230
   68CHL1    C5 6146   5.488   5.898   3.552  0.0098 -0.2151  0.0780
   68CHL1    C6 6147   5.453   6.021   3.603 -1.0436  0.2680  0.5068
   68CHL1    H6 6148   5.378   6.073   3.541 -0.2049 -0.5773 -1.2976
   68CHL1    C7 6149   5.470   6.080   3.738 -0.9480  0.3144 -0.1869
   68CHL1   H7A 6150   5.508   6.185   3.733 -2.7253  1.0336  0.5624
   68CHL1   H7B 6151   5.370   6.082   3.787 -0.8135  0.2314  0.0897
   68CHL1    C8 6152   5.577   5.995   3.818 -0.0992 -0.1761  0.5329
   68CHL1    H8 6153   5.679   6.025   3.786 -0.5549  1.1761  0.2784
   68CHL1   C14 6154   5.563   6.024   3.968 -0.4338  0.1523 -0.2338
   68CHL1   H14 6155   5.468   5.975   3.997 -0.6052 -1.3394 -3.0266
   68CHL1   C15 6156   5.543   6.174   4.011 -0.6475  0.6689 -0.5764
   68CHL1  H15A 6157   5.612   6.239   3.954 -1.1866  2.3827  0.6386
   68CHL1  H15B 6158   5.439   6.211   3.998  0.5871  3.9137 -2.0223
   68CHL1   C16 6159   5.592   6.166   4.161 -0.3606 -0.8161 -0.0679
   68CHL1  H16A 6160   5.681   6.230   4.176 -2.0886  1.5122  0.7400
   68CHL1  H16B 6161   5.520   6.199   4.239  0.2292 -2.1643  1.1150
   68CHL1   C17 6162   5.623   6.017   4.195  0.0819 -0.3286  0.7049
   68CHL1   H17 6163   5.527   5.966   4.215 -0.3613 -1.3070 -3.1142
   68CHL1   C13 6164   5.668   5.960   4.064 -0.3254  0.3690  1.0135
   68CHL1   C18 6165   5.812   6.006   4.031  0.4167 -0.1603  0.1386
   68CHL1  H18A 6166   5.873   5.977   4.119  1.0533  1.5692  0.3173
   68CHL1  H18B 6167   5.844   5.960   3.935 -0.9230  1.6019 -1.2129
   68CHL1  H18C 6168   5.811   6.117   4.028 -0.1404 -0.1631  0.2121
   68CHL1   C12 6169   5.647   5.808   4.049 -0.2301 -0.2021 -0.6074
   68CHL1  H12A 6170   5.736   5.770   4.105  0.1899  0.8238 -0.5623
   68CHL1  H12B 6171   5.546   5.780   4.084  0.5758 -4.4246 -1.0764
   68CHL1   C11 6172   5.660   5.762   3.896 -0.3891 -0.4602  0.6189
   68CHL1  H11A 6173   5.768   5.763   3.873 -0.0585 -0.5138  2.1081
   68CHL1  H11B 6174   5.616   5.661   3.882 -2.7539  0.7532 -1.5271
   68CHL1    C9 6175   5.564   5.846   3.796  0.0977  0.4355 -0.4502
   68CHL1    H9 6176   5.461   5.826   3.832  0.2991 -0.5598 -0.4125
   68CHL1   C10 6177   5.565   5.804   3.646  0.8073 -0.3289 -0.4458
   68CHL1   C19 6178   5.712   5.786   3.606  0.0825 -0.3801 -0.1463
   68CHL1  H19A 6179   5.767   5.701   3.651 -3.4368 -1.5320  2.3519
   68CHL1  H19B 6180   5.719   5.777   3.495 -1.0015 -0.7289 -0.1882
   68CHL1  H19C 6181   5.767   5.881   3.629  1.1958 -1.1729  0.5629
   68CHL1    C1 6182   5.499   5.654   3.641  0.6597  0.1188 -0.2941
   68CHL1   H1A 6183   5.566   5.581   3.690 -0.0024  0.0875  0.5723
   68CHL1   H1B 6184   5.403   5.655   3.695  0.2358  0.2787 -1.0321
   68CHL1    C2 6185   5.472   5.610   3.494 -0.2334 -0.0202 -0.2313
   68CHL1   H2A 6186   5.425   5.510   3.506  1.8591 -0.8301  1.9625
   68CHL1   H2B 6187   5.557   5.596   3.424 -0.6665  1.4584 -1.0913
   68CHL1   C20 6188   5.707   5.993   4.324 -0.1253  0.3920 -0.3358
   68CHL1   H20 6189   5.801   5.944   4.292 -0.6936 -1.8807  1.2412
   68CHL1   C21 6190   5.646   5.875   4.397 -0.1545 -0.1911  0.4722
   68CHL1  H21A 6191   5.622   5.793   4.326  0.7229 -0.8827  0.9465
   68CHL1  H21B 6192   5.552   5.899   4.451 -1.2448  1.0970 -1.8454
   68CHL1  H21C 6193   5.722   5.836   4.468  0.1417  0.9101  0.7666
   68CHL1   C22 6194   5.740   6.119   4.410  0.1657  0.4143  0.2293
   68CHL1  H22A 6195   5.803   6.193   4.355 -0.0446  1.0400  0.8211
   68CHL1  H22B 6196   5.643   6.164   4.440 -0.7006 -0.6572 -0.8211
   68CHL1   C23 6197   5.806   6.086   4.548 -0.9419 -0.1858  0.0711
   68CHL1  H23A 6198   5.749   6.005   4.599  1.3705  0.0556  3.3698
   68CHL1  H23B 6199   5.909   6.045   4.549 -0.5856  0.6792  0.8025
   68CHL1   C24 6200   5.807   6.208   4.647  0.0733  0.3265 -0.1934
   68CHL1  H24A 6201   5.853   6.293   4.592  0.7445 -0.5552 -1.0337
   68CHL1  H24B 6202   5.702   6.238   4.666  0.9757  2.4822  1.8228
   68CHL1   C25 6203   5.883   6.170   4.772 -0.2994 -0.0973  0.3301
   68CHL1   H25 6204   5.990   6.152   4.748 -0.8045 -1.2222 -1.2577
   68CHL1   C26 6205   5.872   6.282   4.873 -0.0755 -0.4095 -0.3447
   68CHL1  H26A 6206   5.764   6.306   4.882 -0.3720 -0.3301 -3.1987
   68CHL1  H26B 6207   5.915   6.246   4.970 -1.1888  0.1693  0.3795
   68CHL1  H26C 6208   5.911   6.384   4.853  1.7613 -0.3088  3.0028
   68CHL1   C27 6209   5.853   6.031   4.832 -0.9763  0.3324  0.0183
   68CHL1  H27A 6210   5.874   5.948   4.762  0.7970  0.2328  0.6189
   68CHL1  H27B 6211   5.923   6.010   4.916 -1.3936  0.4388  0.3950
   68CHL1  H27C 6212   5.747   6.025   4.864 -1.4756 -2.7225 -1.8763
   69CHL1    C3 6213   2.919   4.270   3.172  0.7912 -0.4249 -0.7993
   69CHL1    H3 6214   3.023   4.234   3.155  0.6038 -1.0414 -0.6858
   69CHL1    O3 6215   2.853   4.284   3.052  0.6513  0.4516 -0.2338
   69CHL1   H3' 6216   2.875   4.203   3.006 -0.1827  0.3187 -0.4127
   69CHL1    C4 6217   2.838   4.159   3.243 -0.3631 -0.3146 -0.5869
   69CHL1   H4A 6218   2.731   4.186   3.236 -0.9415 -2.3485 -0.4787
   69CHL1   H4B 6219   2.843   4.065   3.183  0.3805  0.3230 -1.5731
   69CHL1    C5 6220   2.893   4.140   3.386  0.4350 -0.1704 -0.1835
   69CHL1    C6 6221   2.935   4.020   3.429 -0.0511  0.3795  0.3755
   69CHL1    H6 6222   2.943   3.945   3.350  2.4249  0.4236  0.4978
   69CHL1    C7 6223   2.984   3.980   3.576 -0.2474 -0.6898  0.0829
   69CHL1   H7A 6224   2.952   3.880   3.613 -0.9365 -0.2437  0.7349
   69CHL1   H7B 6225   3.094   3.993   3.576 -0.2378 -0.6649 -1.0684
   69CHL1    C8 6226   2.917   4.088   3.669 -0.3128  0.0654 -0.1292
   69CHL1    H8 6227   2.808   4.073   3.680 -0.5500  1.5346 -0.2458
   69CHL1   C14 6228   2.969   4.073   3.818  0.1276 -0.3029 -0.0610
   69CHL1   H14 6229   3.078   4.095   3.812  0.4864 -1.3915  1.8290
   69CHL1   C15 6230   2.943   3.933   3.885 -0.0279 -0.6084 -0.2366
   69CHL1  H15A 6231   2.839   3.895   3.880  0.2636 -1.4424 -0.0329
   69CHL1  H15B 6232   3.008   3.848   3.856 -1.1308 -1.5326 -0.0672
   69CHL1   C16 6233   2.953   3.968   4.036 -0.4204  0.3455 -0.2157
   69CHL1  H16A 6234   2.865   3.921   4.084 -0.8616 -0.0954 -1.4037
   69CHL1  H16B 6235   3.047   3.925   4.078  0.9341  0.8085 -2.6020
   69CHL1   C17 6236   2.965   4.119   4.045 -0.1357 -0.7668 -0.0297
   69CHL1   H17 6237   3.073   4.141   4.058 -0.2776 -1.0983  2.2056
   69CHL1   C13 6238   2.917   4.177   3.912  0.2758  0.6664  0.2687
   69CHL1   C18 6239   2.761   4.176   3.916 -0.0358  0.0352 -0.3009
   69CHL1  H18A 6240   2.723   4.074   3.941  0.8207 -0.0444  0.7547
   69CHL1  H18B 6241   2.729   4.255   3.987 -3.9484  1.6109 -3.4354
   69CHL1  H18C 6242   2.708   4.204   3.823 -1.1496 -0.3350  0.2023
   69CHL1   C12 6243   2.968   4.312   3.856  0.2376 -0.5340 -0.3299
   69CHL1  H12A 6244   2.915   4.386   3.920 -0.4405 -0.8883 -0.4744
   69CHL1  H12B 6245   3.078   4.322   3.867  0.1326  2.2299 -1.0122
   69CHL1   C11 6246   2.919   4.343   3.715 -0.4260 -0.2542 -0.2794
   69CHL1  H11A 6247   2.814   4.377   3.725  0.6536  3.2467  0.7969
   69CHL1  H11B 6248   2.986   4.426   3.682  2.1816 -0.8944  2.8239
   69CHL1    C9 6249   2.945   4.229   3.608  0.1885 -0.3442 -0.4696
   69CHL1    H9 6250   3.055   4.236   3.594 -0.0171  1.5856 -1.5112
   69CHL1   C10 6251   2.885   4.261   3.473  0.8218 -0.4469  0.4183
   69CHL1   C19 6252   2.734   4.290   3.491  0.3727 -0.1392 -0.3153
   69CHL1  H19A 6253   2.673   4.290   3.399  2.0222  0.3100 -1.4580
   69CHL1  H19B 6254   2.678   4.219   3.555 -0.0250  0.1908 -0.2916
   69CHL1  H19C 6255   2.708   4.389   3.535 -0.6822 -1.2298  1.6428
   69CHL1    C1 6256   2.961   4.377   3.401  0.0394  0.2001  0.3977
   69CHL1   H1A 6257   2.948   4.471   3.459 -2.6326 -0.2573  0.6379
   69CHL1   H1B 6258   3.068   4.348   3.391 -0.1899 -1.2608  1.8268
   69CHL1    C2 6259   2.916   4.400   3.261 -0.3770 -0.6794 -0.8285
   69CHL1   H2A 6260   2.970   4.486   3.217 -2.0429  0.6222 -0.4442
   69CHL1   H2B 6261   2.818   4.452   3.266 -0.4022 -0.8394  1.9431
   69CHL1   C20 6262   2.911   4.178   4.184  0.0748 -0.1461  0.1249
   69CHL1   H20 6263   2.800   4.188   4.182  0.0108 -0.7935  0.1064
   69CHL1   C21 6264   2.962   4.326   4.212 -0.1181  0.8281  0.0138
   69CHL1  H21A 6265   2.960   4.360   4.318  1.0768 -0.0665  0.3492
   69CHL1  H21B 6266   2.920   4.404   4.146 -0.2705  0.6227 -0.1349
   69CHL1  H21C 6267   3.071   4.312   4.191  0.2958 -3.0510  3.3963
   69CHL1   C22 6268   2.943   4.091   4.312  0.1153 -0.9468 -0.3776
   69CHL1  H22A 6269   2.902   3.988   4.305 -2.8964  0.2036 -0.9547
   69CHL1  H22B 6270   3.053   4.085   4.324  0.1659 -0.1522 -0.4134
   69CHL1   C23 6271   2.893   4.140   4.454 -0.1023 -0.2224 -0.3339
   69CHL1  H23A 6272   2.954   4.222   4.497  1.0155 -0.2809 -1.7263
   69CHL1  H23B 6273   2.789   4.174   4.434  0.1875  1.1033  0.3425
   69CHL1   C24 6274   2.880   4.016   4.544 -0.3634 -0.6591 -0.4130
   69CHL1  H24A 6275   2.782   3.970   4.517 -1.0946  0.3921  0.3514
   69CHL1  H24B 6276   2.972   3.953   4.540  0.7919  0.8340  1.1549
   69CHL1   C25 6277   2.869   4.066   4.691 -0.1284  0.1029  0.0477
   69CHL1   H25 6278   2.802   4.154   4.685 -1.3047 -0.8506 -1.9276
   69CHL1   C26 6279   2.816   3.953   4.778  0.4013 -0.1882  0.3753
   69CHL1  H26A 6280   2.787   3.971   4.883 -0.6456 -1.1867  0.2775
   69CHL1  H26B 6281   2.722   3.911   4.737 -1.4017  2.3885  1.5868
   69CHL1  H26C 6282   2.891   3.873   4.760  2.4203  1.8977 -1.1198
   69CHL1   C27 6283   3.007   4.112   4.737 -0.1284 -0.5640  0.5762
   69CHL1  H27A 6284   3.085   4.033   4.732  0.1417 -0.3519  1.2862
   69CHL1  H27B 6285   3.048   4.195   4.676  0.0969  0.7913  2.4913
   69CHL1  H27C 6286   2.991   4.140   4.844  1.0078  1.0437  0.3526
   70CHL1    C3 6287   5.013   5.095   3.547 -0.9842  0.4525  0.0672
   70CHL1    H3 6288   4.903   5.086   3.538 -1.1884  2.5438 -0.1064
   70CHL1    O3 6289   5.071   5.087   3.416  0.7635  0.0309  0.6493
   70CHL1   H3' 6290   5.087   5.178   3.393 -0.3438 -0.0863 -0.7371
   70CHL1    C4 6291   5.053   5.229   3.617 -0.7670 -0.6091  0.1584
   70CHL1   H4A 6292   5.161   5.242   3.598 -0.7953 -0.3891  0.1490
   70CHL1   H4B 6293   5.011   5.311   3.555  2.5937  0.9746 -0.2269
   70CHL1    C5 6294   5.018   5.241   3.765 -1.2995 -0.1234 -0.3465
   70CHL1    C6 6295   4.944   5.341   3.812  0.2186  0.0009  0.4290
   70CHL1    H6 6296   4.898   5.408   3.738 -0.5399  0.1645  1.0285
   70CHL1    C7 6297   4.906   5.368   3.959 -0.8727  0.4630  0.4735
   70CHL1   H7A 6298   4.958   5.462   3.989 -1.6228  0.3889  2.1132
   70CHL1   H7B 6299   4.798   5.390   3.970 -0.5594  1.9034  0.9103
   70CHL1    C8 6300   4.960   5.258   4.054  1.0097 -1.3795  0.6216
   70CHL1    H8 6301   5.060   5.295   4.086 -0.1106  1.3688  1.2906
   70CHL1   C14 6302   4.870   5.247   4.180 -0.4489  0.0591 -0.9710
   70CHL1   H14 6303   4.771   5.213   4.142 -1.3310  0.6303  0.7134
   70CHL1   C15 6304   4.834   5.382   4.252 -0.3498  0.0144 -0.1128
   70CHL1  H15A 6305   4.925   5.445   4.241 -0.0338 -0.5676 -0.8536
   70CHL1  H15B 6306   4.747   5.431   4.203 -0.6189  0.3046  0.6348
   70CHL1   C16 6307   4.790   5.340   4.389 -0.4704 -0.0722 -0.2972
   70CHL1  H16A 6308   4.852   5.381   4.472 -0.8392 -2.1927  1.1016
   70CHL1  H16B 6309   4.685   5.370   4.406 -0.1753  0.8620 -0.0527
   70CHL1   C17 6310   4.807   5.180   4.392 -0.3061  0.3404 -0.0463
   70CHL1   H17 6311   4.711   5.136   4.355  0.2844 -1.5881  0.5735
   70CHL1   C13 6312   4.915   5.147   4.286  0.4905 -0.2972  0.2519
   70CHL1   C18 6313   5.055   5.186   4.348 -0.4488 -0.9378 -0.0964
   70CHL1  H18A 6314   5.086   5.100   4.410  1.5607  1.6088  2.7328
   70CHL1  H18B 6315   5.136   5.193   4.272  0.1463  0.1351  0.5959
   70CHL1  H18C 6316   5.050   5.281   4.407 -0.5810  0.0178 -1.5974
   70CHL1   C12 6317   4.917   5.011   4.222 -0.2939 -0.3602 -0.0317
   70CHL1  H12A 6318   4.963   4.938   4.292  1.1416  1.8439  1.4646
   70CHL1  H12B 6319   4.815   4.976   4.197 -0.9421  0.1470  1.6984
   70CHL1   C11 6320   5.006   5.013   4.095  0.6229  0.1404  0.5017
   70CHL1  H11A 6321   5.109   5.024   4.134  0.9350  0.4269 -0.3803
   70CHL1  H11B 6322   5.004   4.910   4.053 -1.3256 -1.5947  4.3691
   70CHL1    C9 6323   4.968   5.120   3.989 -0.7594 -0.4587  0.2128
   70CHL1    H9 6324   4.861   5.100   3.970 -0.5812 -1.8271  0.5481
   70CHL1   C10 6325   5.044   5.115   3.854 -0.6483  0.2608  0.1008
   70CHL1   C19 6326   5.192   5.097   3.895 -0.0833  0.2829 -0.5144
   70CHL1  H19A 6327   5.262   5.105   3.809 -2.6307 -2.7307 -3.1243
   70CHL1  H19B 6328   5.225   5.179   3.963 -0.0018 -0.7026  0.6564
   70CHL1  H19C 6329   5.216   4.997   3.935  2.5683  0.8091 -0.6034
   70CHL1    C1 6330   5.005   4.984   3.773 -0.7761  0.7834  0.2657
   70CHL1   H1A 6331   5.046   4.891   3.820  2.5467  1.6236 -0.7161
   70CHL1   H1B 6332   4.894   4.979   3.770 -0.7310 -1.8854  0.3539
   70CHL1    C2 6333   5.058   4.973   3.626 -0.2111 -0.1463 -0.3359
   70CHL1   H2A 6334   5.039   4.875   3.578  2.2059 -0.7348 -0.2360
   70CHL1   H2B 6335   5.167   4.990   3.638 -0.4896  0.7104  1.3225
   70CHL1   C20 6336   4.823   5.130   4.537 -0.6498 -0.7887 -0.5377
   70CHL1   H20 6337   4.922   5.166   4.572 -0.5411 -1.3873 -0.2129
   70CHL1   C21 6338   4.820   4.972   4.544  0.3435 -0.2400  0.2140
   70CHL1  H21A 6339   4.748   4.939   4.465  1.6522 -0.2739 -0.9994
   70CHL1  H21B 6340   4.796   4.933   4.645 -1.0376 -0.9665 -0.3486
   70CHL1  H21C 6341   4.917   4.925   4.517 -0.6354 -2.4834  0.3814
   70CHL1   C22 6342   4.705   5.187   4.628  0.4565 -0.6968 -0.2068
   70CHL1  H22A 6343   4.711   5.297   4.614 -0.5573 -0.3585  1.6779
   70CHL1  H22B 6344   4.605   5.156   4.592  0.4749 -0.3752 -0.5389
   70CHL1   C23 6345   4.722   5.161   4.779  0.4428 -0.5848  0.4768
   70CHL1  H23A 6346   4.734   5.051   4.793 -0.3935 -0.8837 -0.9590
   70CHL1  H23B 6347   4.812   5.219   4.808  0.2625  0.4188 -0.8629
   70CHL1   C24 6348   4.595   5.213   4.858  0.5546 -0.0232  0.7267
   70CHL1  H24A 6349   4.593   5.324   4.850 -2.6237  0.0087  0.5469
   70CHL1  H24B 6350   4.495   5.184   4.819  0.5015  1.6529 -0.4982
   70CHL1   C25 6351   4.588   5.163   5.012 -0.7434  0.3389 -0.4655
   70CHL1   H25 6352   4.593   5.052   5.019  0.0887  0.3811 -0.1949
   70CHL1   C26 6353   4.709   5.226   5.091  0.2348 -0.0804 -0.1461
   70CHL1  H26A 6354   4.799   5.193   5.036  1.1311 -1.1433  1.8291
   70CHL1  H26B 6355   4.703   5.337   5.099  3.5773  0.1781  0.2729
   70CHL1  H26C 6356   4.697   5.177   5.190 -2.1358 -1.7845 -1.1782
   70CHL1   C27 6357   4.456   5.201   5.071 -0.1151 -0.5423 -0.0179
   70CHL1  H27A 6358   4.438   5.177   5.178  0.4891 -0.4829  0.0969
   70CHL1  H27B 6359   4.439   5.311   5.074  1.2222 -0.2835 -0.9831
   70CHL1  H27C 6360   4.376   5.150   5.014 -1.3149  0.3318  0.8165
   71CHL1    C3 6361   3.220   6.524   3.096  0.0664  0.1412 -0.2680
   71CHL1    H3 6362   3.235   6.634   3.090 -1.6369  0.5788  2.0672
   71CHL1    O3 6363   3.220   6.448   2.978  0.4097 -0.5720  0.1335
   71CHL1   H3' 6364   3.276   6.372   2.995  0.9214 -0.0561  0.8394
   71CHL1    C4 6365   3.337   6.470   3.184  0.1169  0.1809  0.6492
   71CHL1   H4A 6366   3.342   6.359   3.180 -1.2674  0.1444 -1.1295
   71CHL1   H4B 6367   3.426   6.507   3.128  0.1549  1.5517  1.5891
   71CHL1    C5 6368   3.344   6.521   3.328 -0.6197  0.0007 -0.0498
   71CHL1    C6 6369   3.461   6.582   3.368  0.3414  0.1935  0.6981
   71CHL1    H6 6370   3.544   6.595   3.297 -1.0157  1.0050 -0.8210
   71CHL1    C7 6371   3.478   6.652   3.497 -0.4063 -0.5114 -0.2598
   71CHL1   H7A 6372   3.573   6.624   3.547 -0.7242 -1.3260 -0.0980
   71CHL1   H7B 6373   3.475   6.761   3.480 -0.4103 -0.4286  0.2653
   71CHL1    C8 6374   3.358   6.614   3.594  0.2686  0.6457  0.1657
   71CHL1    H8 6375   3.379   6.515   3.640 -1.0049  1.2443  2.1661
   71CHL1   C14 6376   3.353   6.713   3.711  0.1765  0.5887  0.8171
   71CHL1   H14 6377   3.331   6.811   3.666 -2.4378  0.2648  1.2491
   71CHL1   C15 6378   3.472   6.738   3.790 -0.1407 -0.2503 -0.8978
   71CHL1  H15A 6379   3.540   6.650   3.795 -0.9107 -0.8844 -1.3776
   71CHL1  H15B 6380   3.537   6.817   3.747  0.7999 -0.6987 -0.3300
   71CHL1   C16 6381   3.411   6.799   3.919  0.1061 -0.4940  0.0716
   71CHL1  H16A 6382   3.436   6.734   4.006 -2.0403 -1.2419  0.1717
   71CHL1  H16B 6383   3.457   6.899   3.931  0.8750 -0.8521  0.1850
   71CHL1   C17 6384   3.263   6.805   3.900  0.5583  0.1451  0.6826
   71CHL1   H17 6385   3.233   6.887   3.832  0.2455 -0.0719  0.5598
   71CHL1   C13 6386   3.234   6.688   3.807 -0.0882 -0.2504  0.2075
   71CHL1   C18 6387   3.247   6.550   3.890  0.0886  0.1844 -0.0496
   71CHL1  H18A 6388   3.335   6.561   3.956  2.0398 -0.0440 -2.4879
   71CHL1  H18B 6389   3.150   6.539   3.944 -0.4878 -0.0862 -1.1103
   71CHL1  H18C 6390   3.251   6.459   3.828  2.4814  1.1921 -1.4979
   71CHL1   C12 6391   3.101   6.686   3.732  0.3522 -0.3703 -0.7833
   71CHL1  H12A 6392   3.022   6.663   3.807  1.3811 -1.8196 -0.1092
   71CHL1  H12B 6393   3.080   6.787   3.690  0.6665  0.3868  0.7716
   71CHL1   C11 6394   3.104   6.585   3.621 -0.3258  0.4879 -0.3665
   71CHL1  H11A 6395   3.130   6.483   3.658 -0.2573 -0.4680 -2.8583
   71CHL1  H11B 6396   3.006   6.582   3.569 -0.3502  0.5306 -0.3224
   71CHL1    C9 6397   3.221   6.608   3.523  0.0121 -1.3715 -0.0190
   71CHL1    H9 6398   3.219   6.713   3.488  2.4088 -1.9088 -2.0556
   71CHL1   C10 6399   3.218   6.504   3.407 -0.2603  0.1637  0.1126
   71CHL1   C19 6400   3.206   6.358   3.459 -0.4974  0.0973  0.0997
   71CHL1  H19A 6401   3.110   6.345   3.513  0.9001 -2.2547  2.2791
   71CHL1  H19B 6402   3.203   6.287   3.373  0.8559 -0.1541  0.2392
   71CHL1  H19C 6403   3.280   6.343   3.540  1.2612  0.6464 -1.3320
   71CHL1    C1 6404   3.100   6.539   3.322  0.8259 -0.0804  0.3087
   71CHL1   H1A 6405   3.001   6.516   3.368 -0.2613 -1.0884 -2.3552
   71CHL1   H1B 6406   3.091   6.650   3.315 -1.3424  0.0375  2.9691
   71CHL1    C2 6407   3.097   6.482   3.177  0.2422 -0.4497 -0.2295
   71CHL1   H2A 6408   3.008   6.520   3.121  1.4778  0.1485 -1.8696
   71CHL1   H2B 6409   3.083   6.372   3.178 -1.0544 -0.3377 -1.5112
   71CHL1   C20 6410   3.183   6.831   4.028 -0.4825  0.0196  0.6656
   71CHL1   H20 6411   3.077   6.815   4.001 -0.6289  0.7708  0.7725
   71CHL1   C21 6412   3.192   6.983   4.052 -0.1575  0.0412  0.2481
   71CHL1  H21A 6413   3.297   7.008   4.077 -0.0975  0.8658 -0.7773
   71CHL1  H21B 6414   3.123   7.028   4.127  0.3263  2.4326 -0.6817
   71CHL1  H21C 6415   3.174   7.038   3.958  0.4226  0.6266  0.4691
   71CHL1   C22 6416   3.231   6.745   4.154  0.2938  0.1714  0.1776
   71CHL1  H22A 6417   3.239   6.637   4.130 -0.6469 -0.2798  1.7552
   71CHL1  H22B 6418   3.335   6.780   4.172 -0.0678  1.6852 -0.5170
   71CHL1   C23 6419   3.156   6.782   4.283  0.0284 -0.9535  0.3799
   71CHL1  H23A 6420   3.167   6.891   4.301  0.5405 -0.6447 -1.5310
   71CHL1  H23B 6421   3.046   6.767   4.278 -0.1094  0.3392 -0.9198
   71CHL1   C24 6422   3.195   6.691   4.403 -0.4075 -0.3611  0.0904
   71CHL1  H24A 6423   3.203   6.585   4.373  1.4731 -0.8570  2.0805
   71CHL1  H24B 6424   3.298   6.723   4.430 -0.7892  0.1617  0.9821
   71CHL1   C25 6425   3.103   6.704   4.528  0.0207 -0.6576 -1.2166
   71CHL1   H25 6426   3.003   6.718   4.482 -0.4050 -2.8701 -1.0627
   71CHL1   C26 6427   3.103   6.583   4.623  0.4260 -0.0337 -0.1819
   71CHL1  H26A 6428   3.013   6.586   4.688  1.6068  0.4851  1.4954
   71CHL1  H26B 6429   3.118   6.486   4.571  2.7293  0.7300 -1.1014
   71CHL1  H26C 6430   3.180   6.585   4.704  0.7029  0.1523 -0.4461
   71CHL1   C27 6431   3.130   6.842   4.595 -0.0198  0.0494 -0.0733
   71CHL1  H27A 6432   3.122   6.922   4.519 -3.2802 -1.4396 -1.4943
   71CHL1  H27B 6433   3.059   6.871   4.674 -0.1831 -2.3277  0.7438
   71CHL1  H27C 6434   3.230   6.845   4.643  0.0316  1.8431 -0.2361
   72CHL1    C3 6435   1.642   3.976   3.246 -0.1750  0.1244 -0.1387
   72CHL1    H3 6436   1.534   3.989   3.270 -0.4558 -2.0845  0.0376
   72CHL1    O3 6437   1.656   3.946   3.109 -0.3281 -0.3990 -0.3582
   72CHL1   H3' 6438   1.752   3.943   3.099 -0.4243 -1.3930 -1.1628
   72CHL1    C4 6439   1.701   4.124   3.263  0.2774  0.6000 -0.4565
   72CHL1   H4A 6440   1.808   4.114   3.235  0.4103  0.9040 -0.0704
   72CHL1   H4B 6441   1.646   4.190   3.193  0.9707  1.1323 -0.5028
   72CHL1    C5 6442   1.695   4.166   3.407 -0.0277 -0.2252 -0.3336
   72CHL1    C6 6443   1.634   4.279   3.442 -0.4170 -0.5725 -0.3329
   72CHL1    H6 6444   1.587   4.345   3.368  2.4834  1.5521 -0.4510
   72CHL1    C7 6445   1.622   4.333   3.585  0.1553  0.6122  0.5988
   72CHL1   H7A 6446   1.641   4.442   3.595  0.9560  0.5758 -0.2552
   72CHL1   H7B 6447   1.518   4.314   3.619  0.1663 -1.1373 -0.2211
   72CHL1    C8 6448   1.720   4.257   3.681  0.0228 -0.6230 -0.5083
   72CHL1    H8 6449   1.821   4.304   3.673 -1.1454  2.4213  0.8733
   72CHL1   C14 6450   1.687   4.301   3.822 -0.0788  0.0102 -0.1178
   72CHL1   H14 6451   1.581   4.271   3.836  0.5374 -2.4361 -0.2768
   72CHL1   C15 6452   1.699   4.452   3.861  0.2406  0.3265 -0.7445
   72CHL1  H15A 6453   1.786   4.505   3.817  2.2521 -2.7976 -0.8198
   72CHL1  H15B 6454   1.602   4.501   3.838 -1.1901 -1.5169  1.0617
   72CHL1   C16 6455   1.712   4.444   4.017  0.0411 -0.0105 -1.0188
   72CHL1  H16A 6456   1.813   4.485   4.041  0.4189 -2.0917  1.3438
   72CHL1  H16B 6457   1.641   4.510   4.072  0.3713 -0.2853 -0.2495
   72CHL1   C17 6458   1.714   4.298   4.065  0.4684  0.1915 -0.0992
   72CHL1   H17 6459   1.613   4.262   4.095 -0.0572  0.3268 -1.6430
   72CHL1   C13 6460   1.760   4.221   3.935  0.6970  0.7206 -0.3831
   72CHL1   C18 6461   1.907   4.248   3.918 -0.4061 -0.0033 -0.1696
   72CHL1  H18A 6462   1.949   4.222   3.819 -0.9335  1.7188 -0.8824
   72CHL1  H18B 6463   1.927   4.358   3.927 -1.7649  0.2235  0.1991
   72CHL1  H18C 6464   1.969   4.191   3.991 -1.0939 -0.5051  0.0342
   72CHL1   C12 6465   1.723   4.072   3.913 -0.5400  0.2127 -0.1566
   72CHL1  H12A 6466   1.790   4.015   3.982  3.6634  3.7031 -0.9272
   72CHL1  H12B 6467   1.617   4.042   3.928 -1.0587  1.5712 -1.0221
   72CHL1   C11 6468   1.764   4.020   3.769  0.0068  0.0813  0.1672
   72CHL1  H11A 6469   1.871   3.994   3.752  0.0316  0.6975 -0.6815
   72CHL1  H11B 6470   1.719   3.919   3.774  0.5960 -0.1554  0.9731
   72CHL1    C9 6471   1.704   4.107   3.660  0.0160 -0.4277  0.0958
   72CHL1    H9 6472   1.595   4.087   3.662 -0.5141  2.1681  0.2898
   72CHL1   C10 6473   1.749   4.072   3.512 -0.7556  0.8078 -0.0293
   72CHL1   C19 6474   1.907   4.084   3.509  0.2894 -0.1842  0.8013
   72CHL1  H19A 6475   1.951   4.003   3.570  0.6783 -1.2917 -0.8985
   72CHL1  H19B 6476   1.938   4.071   3.403  2.9238 -3.3795  1.8376
   72CHL1  H19C 6477   1.942   4.181   3.549  0.6737 -0.6867  1.6951
   72CHL1    C1 6478   1.704   3.925   3.480 -0.1476  0.1006 -0.2241
   72CHL1   H1A 6479   1.765   3.851   3.536  1.0763  0.4544 -1.0653
   72CHL1   H1B 6480   1.596   3.925   3.509 -0.3535  3.4947 -0.5785
   72CHL1    C2 6481   1.701   3.870   3.336 -0.4316 -0.2233  0.1645
   72CHL1   H2A 6482   1.637   3.779   3.329 -1.5106  0.4773  0.6749
   72CHL1   H2B 6483   1.809   3.857   3.312 -0.3847 -1.1052  0.8150
   72CHL1   C20 6484   1.795   4.267   4.193 -0.4240 -0.1902  0.1657
   72CHL1   H20 6485   1.899   4.250   4.160 -0.7279 -0.1709 -0.8375
   72CHL1   C21 6486   1.740   4.144   4.262  0.0330  0.6719  0.2142
   72CHL1  H21A 6487   1.631   4.148   4.284 -0.4475 -2.1178 -1.1834
   72CHL1  H21B 6488   1.796   4.112   4.352 -1.4660  0.7714  1.2294
   72CHL1  H21C 6489   1.757   4.052   4.202  0.5807  0.1050  1.2075
   72CHL1   C22 6490   1.797   4.382   4.296  0.2808 -0.4783  0.2049
   72CHL1  H22A 6491   1.872   4.449   4.249  0.5123 -1.1253 -0.3647
   72CHL1  H22B 6492   1.697   4.425   4.315  0.1186 -1.8038  2.6511
   72CHL1   C23 6493   1.848   4.363   4.438 -0.3014 -1.2108 -0.4173
   72CHL1  H23A 6494   1.777   4.302   4.498 -1.0567  0.8267  0.8306
   72CHL1  H23B 6495   1.947   4.315   4.426 -0.1454 -1.0393  0.1685
   72CHL1   C24 6496   1.852   4.494   4.512 -0.3035  0.2472  0.0317
   72CHL1  H24A 6497   1.924   4.559   4.457  1.0790 -1.0421  0.2748
   72CHL1  H24B 6498   1.748   4.530   4.530  0.1641  0.7126  2.0739
   72CHL1   C25 6499   1.914   4.482   4.647 -0.1897 -1.1881 -0.2660
   72CHL1   H25 6500   1.998   4.409   4.641  0.3853 -0.8891  2.5979
   72CHL1   C26 6501   1.972   4.625   4.688  0.5320  0.3108 -0.9941
   72CHL1  H26A 6502   2.037   4.629   4.778  1.3262  1.1528 -1.5833
   72CHL1  H26B 6503   2.047   4.654   4.611  2.2927  2.4575  1.3942
   72CHL1  H26C 6504   1.904   4.709   4.709  0.8839  0.1231  1.1178
   72CHL1   C27 6505   1.818   4.425   4.752 -0.0550 -0.2270 -0.4921
   72CHL1  H27A 6506   1.812   4.317   4.725  2.5672 -0.9916  1.5853
   72CHL1  H27B 6507   1.866   4.419   4.852  1.3287  1.2175 -1.0327
   72CHL1  H27C 6508   1.722   4.478   4.768  0.2421 -0.4515  2.6704
   73CHL1    C3 6509   4.566   5.602   3.666  0.2820 -0.0539 -0.6081
   73CHL1    H3 6510   4.552   5.492   3.671 -1.2961  0.1282 -0.3974
   73CHL1    O3 6511   4.607   5.638   3.535  0.2910  0.4938 -0.1279
   73CHL1   H3' 6512   4.699   5.662   3.536 -0.3601  3.3309 -0.3774
   73CHL1    C4 6513   4.429   5.675   3.700  0.0866  0.6199 -0.5889
   73CHL1   H4A 6514   4.460   5.780   3.682 -0.0992  1.1834  1.9350
   73CHL1   H4B 6515   4.356   5.635   3.627  0.2082  0.0889 -0.4218
   73CHL1    C5 6516   4.393   5.649   3.847 -0.6955  0.0269 -0.6697
   73CHL1    C6 6517   4.279   5.582   3.875 -0.4303  0.0321 -0.6722
   73CHL1    H6 6518   4.215   5.552   3.790 -0.6901 -0.1990 -0.3976
   73CHL1    C7 6519   4.225   5.548   4.015 -0.2168 -0.6430  0.3090
   73CHL1   H7A 6520   4.114   5.548   4.021 -0.3971 -4.0709 -1.1581
   73CHL1   H7B 6521   4.248   5.442   4.039  0.6757 -0.2432  1.3316
   73CHL1    C8 6522   4.297   5.630   4.127 -1.3393 -0.7441  0.6424
   73CHL1    H8 6523   4.266   5.737   4.124  0.0332 -0.3288  0.5006
   73CHL1   C14 6524   4.266   5.570   4.261 -0.5913 -0.1699 -0.2608
   73CHL1   H14 6525   4.295   5.463   4.246 -2.8913 -0.6145 -2.1184
   73CHL1   C15 6526   4.121   5.552   4.310  0.1808  0.2305 -0.1326
   73CHL1  H15A 6527   4.072   5.651   4.300  0.0697  0.0821 -1.2001
   73CHL1  H15B 6528   4.077   5.468   4.254 -0.6923 -0.7798  1.9735
   73CHL1   C16 6529   4.144   5.509   4.455  0.1130  0.2066 -0.7021
   73CHL1  H16A 6530   4.069   5.563   4.517  1.9698  0.1056  1.8227
   73CHL1  H16B 6531   4.138   5.398   4.457  1.6102  0.1095  0.8299
   73CHL1   C17 6532   4.294   5.537   4.493  0.1725  0.0532  0.1373
   73CHL1   H17 6533   4.347   5.440   4.475 -0.0742 -0.0989  0.2265
   73CHL1   C13 6534   4.344   5.626   4.380 -0.1992  0.7089  0.3103
   73CHL1   C18 6535   4.300   5.772   4.406 -0.6081  0.1207  0.4301
   73CHL1  H18A 6536   4.307   5.825   4.308  0.8663  1.1798  1.0901
   73CHL1  H18B 6537   4.194   5.786   4.437 -1.0715  0.7088 -1.3054
   73CHL1  H18C 6538   4.372   5.825   4.471 -0.8641  0.3873  0.4999
   73CHL1   C12 6539   4.493   5.610   4.349 -0.0920 -0.1190 -0.1840
   73CHL1  H12A 6540   4.556   5.659   4.426 -1.4506 -0.4980  1.2029
   73CHL1  H12B 6541   4.511   5.500   4.342 -0.0289 -0.1327  0.1859
   73CHL1   C11 6542   4.532   5.667   4.214  0.0430 -0.4333  0.1475
   73CHL1  H11A 6543   4.513   5.777   4.219  1.1674 -0.1276 -1.6945
   73CHL1  H11B 6544   4.640   5.650   4.199  0.3037 -0.9795  2.3289
   73CHL1    C9 6545   4.448   5.617   4.094  0.1717 -0.0810  0.9410
   73CHL1    H9 6546   4.464   5.507   4.083 -0.7929 -0.3347  1.8315
   73CHL1   C10 6547   4.499   5.682   3.958 -0.5494 -0.2782  0.1957
   73CHL1   C19 6548   4.494   5.837   3.966 -0.1228 -0.3479  0.4193
   73CHL1  H19A 6549   4.406   5.877   4.021  0.9907 -0.1678  2.1362
   73CHL1  H19B 6550   4.591   5.873   4.005  0.1338 -0.1999 -0.3232
   73CHL1  H19C 6551   4.472   5.889   3.870 -1.5830  0.2313  1.0465
   73CHL1    C1 6552   4.635   5.627   3.917 -0.0631 -0.9334 -0.3677
   73CHL1   H1A 6553   4.720   5.661   3.981  1.2598  0.5982 -2.8025
   73CHL1   H1B 6554   4.616   5.517   3.909 -0.9530 -0.7250 -1.2879
   73CHL1    C2 6555   4.674   5.655   3.766  0.3975  0.6921 -0.1283
   73CHL1   H2A 6556   4.769   5.603   3.740  1.3082  2.9464 -1.6865
   73CHL1   H2B 6557   4.697   5.764   3.758  1.5288  0.5671  1.0989
   73CHL1   C20 6558   4.324   5.569   4.636  0.2078  0.0449 -1.0635
   73CHL1   H20 6559   4.264   5.657   4.667 -1.0685 -0.1149 -2.8844
   73CHL1   C21 6560   4.473   5.596   4.659  0.5375  0.2252 -0.8180
   73CHL1  H21A 6561   4.533   5.514   4.614  0.1570 -1.1613  1.0369
   73CHL1  H21B 6562   4.498   5.588   4.767  0.2733  0.4912 -0.7355
   73CHL1  H21C 6563   4.507   5.697   4.628  0.6764  0.6288  0.5542
   73CHL1   C22 6564   4.278   5.453   4.727  0.3022 -0.0364 -0.1583
   73CHL1  H22A 6565   4.189   5.400   4.685  0.9227 -0.3880 -1.0508
   73CHL1  H22B 6566   4.357   5.376   4.717  0.9112  0.4292  0.8968
   73CHL1   C23 6567   4.270   5.488   4.880  0.1897  0.3369 -0.5865
   73CHL1  H23A 6568   4.228   5.399   4.932  0.7241 -0.8546 -2.1027
   73CHL1  H23B 6569   4.377   5.498   4.910  0.9666 -1.4867 -2.4853
   73CHL1   C24 6570   4.190   5.609   4.931 -0.3426 -0.4686  0.2727
   73CHL1  H24A 6571   4.178   5.615   5.041 -1.7401  2.3650  0.0630
   73CHL1  H24B 6572   4.237   5.708   4.909  1.3484 -0.7825  2.2606
   73CHL1   C25 6573   4.046   5.615   4.871  0.1805 -0.0422  0.7844
   73CHL1   H25 6574   4.052   5.584   4.765  2.9457 -0.4470  0.9820
   73CHL1   C26 6575   3.949   5.517   4.937 -0.9267 -0.2738 -0.2064
   73CHL1  H26A 6576   3.999   5.420   4.959 -1.8624 -0.0657  3.5485
   73CHL1  H26B 6577   3.904   5.561   5.029 -0.1568  0.5303 -0.1963
   73CHL1  H26C 6578   3.863   5.490   4.872  1.0045 -3.8423 -1.5419
   73CHL1   C27 6579   3.984   5.759   4.876  0.2222  0.3119  0.3933
   73CHL1  H27A 6580   3.877   5.760   4.849 -0.0197 -0.9286  1.2009
   73CHL1  H27B 6581   3.994   5.814   4.972 -0.9303  2.2483 -0.5458
   73CHL1  H27C 6582   4.034   5.827   4.804  1.6128 -0.8035  0.2390
   74CHL1    C3 6583   3.798   4.746   3.544 -0.5483  0.4421  0.2754
   74CHL1    H3 6584   3.805   4.648   3.491  3.4209 -0.0567  1.4221
   74CHL1    O3 6585   3.790   4.846   3.446  0.3756 -0.0545 -0.7918
   74CHL1   H3' 6586   3.801   4.927   3.496  0.1446 -0.3023 -0.3272
   74CHL1    C4 6587   3.672   4.756   3.626 -0.3281 -0.2056  0.1056
   74CHL1   H4A 6588   3.671   4.861   3.661  1.2855 -0.3198  0.5716
   74CHL1   H4B 6589   3.581   4.736   3.566  0.7579 -1.6737 -1.1474
   74CHL1    C5 6590   3.670   4.670   3.750  0.2105 -0.1738 -0.0230
   74CHL1    C6 6591   3.578   4.577   3.777 -0.0258  0.0860 -0.7572
   74CHL1    H6 6592   3.497   4.553   3.706 -1.2578 -0.7964  0.8812
   74CHL1    C7 6593   3.570   4.497   3.907 -0.1127 -0.6068 -0.0768
   74CHL1   H7A 6594   3.474   4.504   3.962 -0.1932 -1.9273  0.0022
   74CHL1   H7B 6595   3.602   4.392   3.885  0.8883 -0.3784  0.2430
   74CHL1    C8 6596   3.672   4.555   4.011 -0.5970 -0.7656 -0.5953
   74CHL1    H8 6597   3.633   4.651   4.051 -0.3766 -1.1316  0.5571
   74CHL1   C14 6598   3.687   4.453   4.117 -0.5538 -0.1478  0.0944
   74CHL1   H14 6599   3.730   4.363   4.068 -0.9917 -1.2477  1.6546
   74CHL1   C15 6600   3.563   4.394   4.188  0.3983  0.3797 -0.5043
   74CHL1  H15A 6601   3.486   4.474   4.194 -0.7524 -0.7465  0.1404
   74CHL1  H15B 6602   3.522   4.310   4.129 -0.4357  0.0515  0.5236
   74CHL1   C16 6603   3.616   4.351   4.324  0.1909  0.7224 -0.0671
   74CHL1  H16A 6604   3.568   4.403   4.409  0.0381 -1.4926  1.2892
   74CHL1  H16B 6605   3.589   4.244   4.339 -2.0425  0.9303 -1.9400
   74CHL1   C17 6606   3.767   4.376   4.318 -0.2383 -0.4104 -0.2450
   74CHL1   H17 6607   3.795   4.286   4.260 -2.2024 -0.9869 -0.3748
   74CHL1   C13 6608   3.780   4.501   4.231 -0.2006 -0.0597  0.4173
   74CHL1   C18 6609   3.722   4.631   4.300 -1.0498  0.6101  0.4138
   74CHL1  H18A 6610   3.631   4.607   4.359 -1.3067 -1.2409 -0.6776
   74CHL1  H18B 6611   3.796   4.666   4.375 -0.2076  0.9660 -0.5555
   74CHL1  H18C 6612   3.710   4.716   4.230  2.2508  0.0268 -1.0480
   74CHL1   C12 6613   3.920   4.520   4.174 -0.0640 -0.5432  0.5833
   74CHL1  H12A 6614   3.982   4.562   4.256  1.2522 -0.1800 -0.5620
   74CHL1  H12B 6615   3.957   4.427   4.125 -0.6157 -0.0674 -0.7818
   74CHL1   C11 6616   3.927   4.618   4.053  0.5851 -0.2566  0.8094
   74CHL1  H11A 6617   3.899   4.714   4.103  0.4899  1.1010 -1.6853
   74CHL1  H11B 6618   4.032   4.610   4.016  0.4608 -0.4188  0.4937
   74CHL1    C9 6619   3.811   4.581   3.952  0.0331  0.6379 -0.1526
   74CHL1    H9 6620   3.839   4.484   3.907 -1.1277 -0.0241  0.4942
   74CHL1   C10 6621   3.796   4.685   3.834  0.1026  0.2734  0.1632
   74CHL1   C19 6622   3.802   4.826   3.889 -0.4685 -0.0492 -0.9167
   74CHL1  H19A 6623   3.733   4.832   3.976  1.0573 -2.0763  0.5372
   74CHL1  H19B 6624   3.907   4.850   3.918  0.0746 -2.2303 -0.9289
   74CHL1  H19C 6625   3.766   4.905   3.820 -0.0366 -0.1818 -1.3021
   74CHL1    C1 6626   3.920   4.667   3.741 -0.0602 -0.7969  0.3199
   74CHL1   H1A 6627   4.011   4.676   3.803  0.1718 -0.6261 -0.0403
   74CHL1   H1B 6628   3.916   4.566   3.696 -0.6326 -1.6119  2.1098
   74CHL1    C2 6629   3.925   4.770   3.629 -0.6153  0.4680  0.3911
   74CHL1   H2A 6630   4.001   4.737   3.556 -1.7116 -0.5810 -0.3211
   74CHL1   H2B 6631   3.951   4.871   3.665  1.6537  0.3983 -0.8946
   74CHL1   C20 6632   3.845   4.379   4.450  0.3271  0.0698  0.4396
   74CHL1   H20 6633   3.945   4.420   4.424  1.8031 -3.5127 -0.1397
   74CHL1   C21 6634   3.864   4.229   4.489  0.3062  0.1893 -0.0982
   74CHL1  H21A 6635   3.768   4.196   4.534  0.3964 -0.5178 -0.4137
   74CHL1  H21B 6636   3.954   4.231   4.554 -0.0779 -0.6751  0.4847
   74CHL1  H21C 6637   3.877   4.163   4.401 -3.8517  0.4112 -1.0835
   74CHL1   C22 6638   3.792   4.464   4.577  0.0907 -0.2303 -0.4316
   74CHL1  H22A 6639   3.735   4.554   4.546  1.3092  1.5496  2.0907
   74CHL1  H22B 6640   3.727   4.392   4.632  1.0225 -2.3336 -1.9309
   74CHL1   C23 6641   3.907   4.527   4.661 -0.7643  0.2989  0.0226
   74CHL1  H23A 6642   3.994   4.460   4.654 -1.1979 -0.2490 -0.2131
   74CHL1  H23B 6643   3.944   4.622   4.616 -2.0228  0.1600 -1.3826
   74CHL1   C24 6644   3.873   4.566   4.800  0.3050  0.1609  0.1112
   74CHL1  H24A 6645   3.838   4.477   4.856 -1.4570  0.5067 -0.3788
   74CHL1  H24B 6646   3.968   4.591   4.852 -0.0328 -1.2764  1.4973
   74CHL1   C25 6647   3.774   4.681   4.796 -0.7232  0.3197  0.1771
   74CHL1   H25 6648   3.672   4.655   4.762  0.0472 -1.7745 -0.6495
   74CHL1   C26 6649   3.747   4.718   4.944 -0.1919 -0.2545 -0.9178
   74CHL1  H26A 6650   3.842   4.747   4.994 -0.1057 -3.2374  0.8550
   74CHL1  H26B 6651   3.669   4.796   4.946  0.5135  0.4637 -0.6434
   74CHL1  H26C 6652   3.709   4.643   5.017 -0.6534  2.2413  1.5989
   74CHL1   C27 6653   3.815   4.804   4.725 -0.0312  0.6781  0.1640
   74CHL1  H27A 6654   3.780   4.814   4.620 -0.6383  0.3242  0.3262
   74CHL1  H27B 6655   3.771   4.890   4.781  1.3831  1.3401  0.3108
   74CHL1  H27C 6656   3.925   4.814   4.723 -0.0902  1.4506 -1.9792
   75CHL1    C3 6657   6.284   3.978   3.550 -0.1514 -0.1172 -0.4761
   75CHL1    H3 6658   6.275   4.089   3.551  0.1980 -0.0865 -0.4323
   75CHL1    O3 6659   6.341   3.944   3.425 -0.3718  0.2266 -0.6118
   75CHL1   H3' 6660   6.293   3.870   3.388 -0.0744  0.0184 -0.5892
   75CHL1    C4 6661   6.386   3.929   3.654  0.3364  0.0135 -0.0220
   75CHL1   H4A 6662   6.390   3.818   3.644  0.6494  0.0136  0.0888
   75CHL1   H4B 6663   6.488   3.968   3.635 -0.3594  1.6554 -0.5608
   75CHL1    C5 6664   6.338   3.973   3.785 -0.5014 -0.3955 -0.9529
   75CHL1    C6 6665   6.412   4.048   3.866 -0.3638 -0.1954 -0.1646
   75CHL1    H6 6666   6.513   4.078   3.836 -0.1270  1.5845  2.1192
   75CHL1    C7 6667   6.372   4.115   3.995  0.2469  0.1580 -0.1275
   75CHL1   H7A 6668   6.458   4.144   4.059  0.6601  0.1456 -0.6647
   75CHL1   H7B 6669   6.325   4.213   3.972 -1.4615 -0.4331  0.6567
   75CHL1    C8 6670   6.253   4.034   4.057 -0.3979 -0.4848  0.0589
   75CHL1    H8 6671   6.302   3.946   4.103  1.3458  0.3163 -0.2089
   75CHL1   C14 6672   6.196   4.109   4.175  0.0640  0.0737 -0.1874
   75CHL1   H14 6673   6.130   4.190   4.137  0.2903 -0.6568 -2.2138
   75CHL1   C15 6674   6.293   4.168   4.278 -0.2860  0.1923  0.1516
   75CHL1  H15A 6675   6.377   4.097   4.292  1.1538  2.0483  1.5128
   75CHL1  H15B 6676   6.320   4.264   4.229 -0.5428 -0.2230 -0.8336
   75CHL1   C16 6677   6.204   4.184   4.400 -0.3889  0.5306 -0.3070
   75CHL1  H16A 6678   6.251   4.125   4.482  2.4352  2.8924 -0.0537
   75CHL1  H16B 6679   6.205   4.288   4.441  0.0670  0.8613 -1.1358
   75CHL1   C17 6680   6.063   4.130   4.368  0.8675 -0.6430  0.0084
   75CHL1   H17 6681   6.008   4.216   4.324  0.3379 -0.1616  1.5596
   75CHL1   C13 6682   6.087   4.028   4.253 -0.1948  0.0540  0.2451
   75CHL1   C18 6683   6.141   3.891   4.308 -0.8856 -0.0378 -0.4312
   75CHL1  H18A 6684   6.213   3.898   4.392 -2.8905 -1.7775  1.5318
   75CHL1  H18B 6685   6.059   3.831   4.353  0.6116 -1.2490  0.7860
   75CHL1  H18C 6686   6.180   3.826   4.227 -0.3598 -0.5457  0.2195
   75CHL1   C12 6687   5.973   4.005   4.150 -0.1926  0.3223  0.0989
   75CHL1  H12A 6688   5.890   3.946   4.193 -1.2524  2.7201  1.5268
   75CHL1  H12B 6689   5.930   4.105   4.129  1.2754  0.6766 -1.4914
   75CHL1   C11 6690   6.023   3.930   4.019  0.9636 -0.2838  0.3201
   75CHL1  H11A 6691   6.062   3.832   4.053 -0.7705 -1.4043 -0.7853
   75CHL1  H11B 6692   5.938   3.910   3.952  1.7705 -0.9779 -0.5105
   75CHL1    C9 6693   6.146   3.996   3.956  0.2869  0.3464 -0.2481
   75CHL1    H9 6694   6.114   4.098   3.927  0.7022  0.2784 -0.9775
   75CHL1   C10 6695   6.194   3.927   3.827  0.4045  0.0381  0.9744
   75CHL1   C19 6696   6.213   3.774   3.845  0.0219  0.5187 -0.1990
   75CHL1  H19A 6697   6.246   3.726   3.750 -0.2540 -0.9303  0.4100
   75CHL1  H19B 6698   6.298   3.754   3.914  0.4812 -0.0244 -0.8993
   75CHL1  H19C 6699   6.121   3.721   3.875 -0.4027  0.9291 -0.7400
   75CHL1    C1 6700   6.096   3.965   3.705  0.5192  0.4360 -0.0634
   75CHL1   H1A 6701   6.003   3.910   3.732  1.5273 -0.2307  2.2944
   75CHL1   H1B 6702   6.082   4.075   3.717 -0.0742  0.5583 -1.6851
   75CHL1    C2 6703   6.142   3.918   3.571  0.8893 -0.6695  0.1724
   75CHL1   H2A 6704   6.074   3.949   3.489 -0.1209 -2.7776  0.1418
   75CHL1   H2B 6705   6.168   3.810   3.564 -2.6256 -1.6155 -0.3556
   75CHL1   C20 6706   5.992   4.086   4.485  0.3816  0.2923 -0.3189
   75CHL1   H20 6707   6.046   4.002   4.532  2.6331  2.8566  2.0299
   75CHL1   C21 6708   5.851   4.035   4.447  0.1001  0.6288  0.2356
   75CHL1  H21A 6709   5.805   4.111   4.381 -1.8453  1.7714  2.7175
   75CHL1  H21B 6710   5.790   4.010   4.537  0.4258  0.9053  0.5393
   75CHL1  H21C 6711   5.873   3.944   4.387  0.8125  1.2892 -0.5242
   75CHL1   C22 6712   5.979   4.202   4.592  0.2590 -0.1468 -0.3582
   75CHL1  H22A 6713   6.070   4.264   4.599 -1.8465  3.8893 -3.8654
   75CHL1  H22B 6714   5.899   4.276   4.571  0.0828  0.3144  1.7794
   75CHL1   C23 6715   5.956   4.145   4.733  0.0589 -0.2125 -0.6345
   75CHL1  H23A 6716   5.871   4.074   4.740 -2.0904  2.3142  1.9141
   75CHL1  H23B 6717   6.042   4.084   4.768 -0.4183 -1.1049 -0.9982
   75CHL1   C24 6718   5.909   4.247   4.834  0.6563 -0.5652 -0.5337
   75CHL1  H24A 6719   5.811   4.285   4.799  0.4470  0.6769  1.2391
   75CHL1  H24B 6720   5.882   4.209   4.934  2.4049  2.1578  1.1379
   75CHL1   C25 6721   6.018   4.357   4.862  0.2823  0.1026 -0.2203
   75CHL1   H25 6722   6.044   4.415   4.771 -0.1219  4.0004  1.9319
   75CHL1   C26 6723   5.950   4.458   4.959  0.4975  0.6898 -0.1927
   75CHL1  H26A 6724   6.032   4.523   4.996  2.9171 -1.0367 -2.1793
   75CHL1  H26B 6725   5.867   4.509   4.905  1.1107  0.7294 -1.1079
   75CHL1  H26C 6726   5.917   4.390   5.041 -0.0360 -2.0898 -2.5555
   75CHL1   C27 6727   6.145   4.303   4.923  0.6258  0.8358 -0.1359
   75CHL1  H27A 6728   6.201   4.240   4.851 -0.4017  1.2516 -1.3177
   75CHL1  H27B 6729   6.209   4.393   4.939 -0.4494  1.7216 -0.6441
   75CHL1  H27C 6730   6.125   4.250   5.018 -1.7990  1.5812 -0.1542
   76CHL1    C3 6731   1.656   5.090   3.459 -0.7420 -0.1145 -0.2017
   76CHL1    H3 6732   1.590   5.174   3.491  1.2401  0.5480  2.4883
   76CHL1    O3 6733   1.689   5.106   3.320  0.1543  0.3217  0.1330
   76CHL1   H3' 6734   1.756   5.175   3.314  0.6091 -0.1331 -0.0290
   76CHL1    C4 6735   1.784   5.086   3.544 -0.2570 -0.0633 -0.8184
   76CHL1   H4A 6736   1.860   5.011   3.513 -0.4946  0.3233 -2.4283
   76CHL1   H4B 6737   1.821   5.189   3.527 -0.6559  0.3748  0.7524
   76CHL1    C5 6738   1.752   5.067   3.690 -0.1816  0.5099  0.3024
   76CHL1    C6 6739   1.784   5.157   3.778  0.3876  0.2534 -0.2579
   76CHL1    H6 6740   1.851   5.239   3.750  2.0780 -1.0862 -0.2453
   76CHL1    C7 6741   1.746   5.153   3.923 -0.1791 -0.3293  0.2061
   76CHL1   H7A 6742   1.828   5.183   3.992 -1.8637 -0.0537  2.1853
   76CHL1   H7B 6743   1.658   5.219   3.938 -1.1240 -0.9025 -2.2715
   76CHL1    C8 6744   1.705   5.013   3.965 -0.3917 -0.1865 -0.5798
   76CHL1    H8 6745   1.794   4.948   3.974 -0.6629 -0.3274  1.4133
   76CHL1   C14 6746   1.640   5.017   4.099 -0.3162  0.3184  0.1463
   76CHL1   H14 6747   1.544   5.066   4.073  0.0558  2.0147  1.7608
   76CHL1   C15 6748   1.715   5.089   4.208  0.1530 -0.3313  0.0195
   76CHL1  H15A 6749   1.824   5.063   4.206  0.6205  1.5177 -0.3493
   76CHL1  H15B 6750   1.694   5.198   4.204 -1.2299 -0.5938 -0.2817
   76CHL1   C16 6751   1.664   5.034   4.342 -0.1738  0.7407  0.0163
   76CHL1  H16A 6752   1.744   5.019   4.417  0.8842  1.7246 -0.8871
   76CHL1  H16B 6753   1.587   5.103   4.384 -0.4752 -0.4110  1.4317
   76CHL1   C17 6754   1.577   4.915   4.314  0.3788  0.1940 -0.5161
   76CHL1   H17 6755   1.476   4.960   4.304  0.7767  1.5860  1.2730
   76CHL1   C13 6756   1.610   4.881   4.164 -0.7007 -0.2844  0.2687
   76CHL1   C18 6757   1.726   4.775   4.162 -0.1832 -0.7640  1.2555
   76CHL1  H18A 6758   1.760   4.770   4.057 -0.4752  1.8997  0.9608
   76CHL1  H18B 6759   1.819   4.804   4.215  0.8080 -2.5484  0.5422
   76CHL1  H18C 6760   1.691   4.672   4.185 -1.2111 -1.2019 -1.8342
   76CHL1   C12 6761   1.495   4.824   4.076 -0.4382 -0.8785  0.6415
   76CHL1  H12A 6762   1.450   4.730   4.116 -0.2976  0.0440  3.1579
   76CHL1  H12B 6763   1.415   4.901   4.074  0.4877  0.1024 -1.5047
   76CHL1   C11 6764   1.545   4.819   3.930 -0.2022 -0.0248 -0.2276
   76CHL1  H11A 6765   1.610   4.729   3.920 -0.8155 -0.5947  0.7374
   76CHL1  H11B 6766   1.452   4.803   3.871 -1.3143  0.5713  1.2911
   76CHL1    C9 6767   1.616   4.950   3.868  0.5489  0.5717 -0.0043
   76CHL1    H9 6768   1.526   5.015   3.863 -0.1034 -0.3885 -1.1807
   76CHL1   C10 6769   1.667   4.944   3.726  0.2071 -0.1291  0.7329
   76CHL1   C19 6770   1.760   4.826   3.709  0.0981  0.3996 -0.1704
   76CHL1  H19A 6771   1.799   4.819   3.606 -3.3718  1.5379 -1.7429
   76CHL1  H19B 6772   1.855   4.841   3.765 -0.3333  0.3279  0.6043
   76CHL1  H19C 6773   1.710   4.728   3.725 -0.2562  0.3206 -1.6064
   76CHL1    C1 6774   1.549   4.938   3.624  1.2560 -0.0461 -0.3986
   76CHL1   H1A 6775   1.504   4.836   3.632  1.4966 -0.1857 -0.8105
   76CHL1   H1B 6776   1.482   5.023   3.649  1.0389 -0.0175 -1.0553
   76CHL1    C2 6777   1.575   4.969   3.476 -0.7263 -0.3071  0.0649
   76CHL1   H2A 6778   1.479   4.981   3.421  0.0303 -0.0831 -1.2340
   76CHL1   H2B 6779   1.639   4.888   3.436  1.0854 -0.3181  2.7308
   76CHL1   C20 6780   1.584   4.812   4.428 -0.1842 -0.1210  0.5024
   76CHL1   H20 6781   1.689   4.779   4.448  0.7660  2.8807  0.9806
   76CHL1   C21 6782   1.497   4.691   4.396 -0.0980  0.2164  0.1983
   76CHL1  H21A 6783   1.486   4.613   4.474  0.1642  1.2688  1.3086
   76CHL1  H21B 6784   1.528   4.635   4.305  0.5103  1.5704 -0.4479
   76CHL1  H21C 6785   1.397   4.728   4.364  0.0992  0.0356 -0.6475
   76CHL1   C22 6786   1.532   4.888   4.560  0.1267  0.2614 -0.2750
   76CHL1  H22A 6787   1.584   4.981   4.588 -3.5702  2.5320 -0.2521
   76CHL1  H22B 6788   1.423   4.907   4.542 -0.2890 -1.7037 -0.0704
   76CHL1   C23 6789   1.530   4.796   4.687  0.0403  0.0979 -1.1063
   76CHL1  H23A 6790   1.480   4.702   4.655  1.2782 -1.0681  0.2329
   76CHL1  H23B 6791   1.632   4.770   4.720  0.7733 -1.5420 -4.2617
   76CHL1   C24 6792   1.458   4.870   4.800 -0.4382  0.2888 -0.4818
   76CHL1  H24A 6793   1.495   4.975   4.804 -1.4879  0.8196 -3.0582
   76CHL1  H24B 6794   1.354   4.889   4.765 -1.6609  0.9173  3.0196
   76CHL1   C25 6795   1.462   4.805   4.941  0.1838 -0.4057 -0.6536
   76CHL1   H25 6796   1.424   4.701   4.933  0.2867 -0.6960  1.8052
   76CHL1   C26 6797   1.604   4.791   4.992 -0.6473  0.4317  0.9466
   76CHL1  H26A 6798   1.606   4.757   5.098  3.6770 -1.6960  0.3903
   76CHL1  H26B 6799   1.648   4.709   4.931 -1.8959 -0.4517  1.1723
   76CHL1  H26C 6800   1.656   4.889   4.989 -2.1791  1.3690  2.7616
   76CHL1   C27 6801   1.362   4.870   5.039  0.3290 -0.6540 -0.1316
   76CHL1  H27A 6802   1.267   4.884   4.984  0.1493 -3.3861 -0.6593
   76CHL1  H27B 6803   1.346   4.816   5.135  1.9621  0.3783  0.7708
   76CHL1  H27C 6804   1.395   4.972   5.067 -1.3300  0.3439 -1.6138
   77SOPE     N 6805   5.825   2.070   6.804  0.1739 -0.0951  0.7466
   77SOPE   HN1 6806   5.907   2.113   6.755 -1.2742  0.2602 -1.4887
   77SOPE   HN2 6807   5.839   2.096   6.904  0.8185 -0.3236  0.7253
   77SOPE   HN3 6808   5.823   1.967   6.792  1.3414 -0.0318 -0.1880
   77SOPE   C12 6809   5.706   2.136   6.740 -0.0135 -0.1034 -0.8764
   77SOPE  H12A 6810   5.696   2.095   6.637  1.7007  1.2636 -1.6441
   77SOPE  H12B 6811   5.731   2.244   6.732  1.0923 -0.3100 -0.3626
   77SOPE   C11 6812   5.586   2.131   6.836 -0.6790  0.0226 -0.4695
   77SOPE  H11A 6813   5.499   2.164   6.776 -0.6107  1.3617  0.1434
   77SOPE  H11B 6814   5.596   2.202   6.921  0.0958  1.1720 -1.4830
   77SOPE     P 6815   5.424   1.943   6.921  0.2181 -0.3114 -0.4352
   77SOPE   O13 6816   5.356   2.053   6.997  0.9171  0.7012  0.5802
   77SOPE   O14 6817   5.436   1.807   6.982  0.1794  0.4542  0.7212
   77SOPE   O12 6818   5.566   1.996   6.893 -0.1406 -0.0947  0.4009
   77SOPE   O11 6819   5.371   1.940   6.773  0.3357 -0.9651  0.1255
   77SOPE    C1 6820   5.412   1.831   6.694  0.0027  0.8109  0.1577
   77SOPE    HA 6821   5.324   1.765   6.695 -1.0713  2.1724  1.5072
   77SOPE    HB 6822   5.503   1.783   6.737 -0.4313  1.1641  1.5192
   77SOPE    C2 6823   5.461   1.882   6.552  0.2105 -0.4082  0.0229
   77SOPE    HS 6824   5.561   1.925   6.570 -0.3437  0.3597  1.3992
   77SOPE   O21 6825   5.372   1.989   6.514 -0.6744 -0.3590 -0.1676
   77SOPE   C21 6826   5.430   2.080   6.435 -0.4462 -0.0447  0.9463
   77SOPE   O22 6827   5.543   2.083   6.393 -0.3834 -0.5133 -0.8673
   77SOPE   C22 6828   5.324   2.177   6.381  0.6059  0.2341 -0.1592
   77SOPE   H2R 6829   5.363   2.281   6.375 -0.3794  0.6460  0.2918
   77SOPE   H2S 6830   5.239   2.174   6.453  0.5096 -0.1402 -0.2886
   77SOPE    C3 6831   5.466   1.759   6.448  0.0922 -0.1850  0.2729
   77SOPE    HX 6832   5.358   1.735   6.437  0.2647 -1.5711  1.2775
   77SOPE    HY 6833   5.522   1.673   6.490 -1.8069 -1.3326  0.5634
   77SOPE   O31 6834   5.522   1.784   6.320 -1.2166  0.3975  0.2502
   77SOPE   C31 6835   5.657   1.813   6.322 -0.2028  0.4499 -0.4378
   77SOPE   O32 6836   5.722   1.830   6.424 -0.0163 -0.2655 -0.2763
   77SOPE   C32 6837   5.707   1.817   6.179 -0.2255 -0.7188 -0.2274
   77SOPE   H2X 6838   5.645   1.745   6.121  0.5086 -1.9095  0.4192
   77SOPE   H2Y 6839   5.813   1.787   6.186 -0.0147  0.3719  2.3237
   77SOPE   C23 6840   5.266   2.132   6.243 -0.4904 -0.4244  0.3992
   77SOPE   H3R 6841   5.156   2.147   6.246 -1.1273 -3.5971 -1.8306
   77SOPE   H3S 6842   5.270   2.022   6.228  1.6472 -0.3035 -0.3366
   77SOPE   C24 6843   5.342   2.196   6.124  0.3517 -0.7247  0.8108
   77SOPE   H4R 6844   5.317   2.305   6.127 -0.0208 -0.6682 -1.7569
   77SOPE   H4S 6845   5.451   2.177   6.125  0.8483  1.3834 -1.7903
   77SOPE   C25 6846   5.278   2.145   5.990  0.1614 -0.2730 -0.2298
   77SOPE   H5R 6847   5.267   2.034   5.988  1.4527 -0.5027  2.1264
   77SOPE   H5S 6848   5.180   2.193   5.970 -0.0363 -0.2258  0.7603
   77SOPE   C26 6849   5.375   2.192   5.878  0.3559  0.1774  0.2873
   77SOPE   H6R 6850   5.381   2.303   5.877 -1.1710  0.2803  0.0701
   77SOPE   H6S 6851   5.476   2.163   5.914  0.2979 -1.8901 -1.0434
   77SOPE   C27 6852   5.346   2.125   5.745 -0.1671 -0.0629  0.1735
   77SOPE   H7R 6853   5.432   2.134   5.674  0.2838 -0.3080  0.6815
   77SOPE   H7S 6854   5.334   2.016   5.765 -1.0897  0.2537  1.4291
   77SOPE   C28 6855   5.224   2.177   5.661  0.5137  0.2720 -0.1639
   77SOPE   H8R 6856   5.141   2.164   5.734  0.5759 -0.6963 -0.2532
   77SOPE   H8S 6857   5.237   2.283   5.632 -1.0557  0.4979 -0.1550
   77SOPE   C29 6858   5.201   2.091   5.541  0.0662  0.4572  0.4496
   77SOPE   H91 6859   5.162   1.992   5.568  0.7082  0.0556 -0.0496
   77SOPE  C210 6860   5.257   2.113   5.424  1.0600 -0.0143  0.0975
   77SOPE  H101 6861   5.252   2.032   5.349  1.6779  0.1537 -0.1356
   77SOPE  C211 6862   5.338   2.239   5.383  0.7288 -0.2585  0.4654
   77SOPE  H11R 6863   5.324   2.318   5.460  0.2161  0.2514 -0.1326
   77SOPE  H11S 6864   5.307   2.263   5.279  0.4265 -4.0500 -0.4535
   77SOPE  C212 6865   5.488   2.213   5.390 -0.2672 -0.0865  0.5215
   77SOPE  H12R 6866   5.510   2.162   5.486 -1.3157 -2.5159 -0.4415
   77SOPE  H12S 6867   5.535   2.313   5.391 -1.1626  0.3632  2.3102
   77SOPE  C213 6868   5.550   2.112   5.289  0.3092 -0.3626 -0.5032
   77SOPE  H13R 6869   5.486   2.021   5.278 -0.0975 -0.3291  1.2233
   77SOPE  H13S 6870   5.653   2.087   5.320  0.8976  3.6646  1.3840
   77SOPE  C214 6871   5.579   2.169   5.150 -0.6361  0.2304  0.1830
   77SOPE  H14R 6872   5.640   2.261   5.151 -0.7026  0.3000  1.8675
   77SOPE  H14S 6873   5.486   2.208   5.103 -1.0708 -0.2533  0.6149
   77SOPE  C215 6874   5.643   2.061   5.061 -0.6517 -0.3426  0.1611
   77SOPE  H15R 6875   5.566   1.985   5.035  0.1117 -0.9288 -0.4593
   77SOPE  H15S 6876   5.730   2.015   5.113 -1.1867  2.2854  3.7245
   77SOPE  C216 6877   5.678   2.130   4.927  1.0136 -0.0701  0.4607
   77SOPE  H16R 6878   5.771   2.188   4.944  2.7675 -2.7332  0.5674
   77SOPE  H16S 6879   5.589   2.189   4.896  0.9391 -1.2866 -1.8509
   77SOPE  C217 6880   5.718   2.032   4.812 -0.0667 -0.2995  0.6295
   77SOPE  H17R 6881   5.734   2.087   4.717 -1.2254 -1.5273 -0.3177
   77SOPE  H17S 6882   5.637   1.957   4.803 -0.9994  0.9142 -2.5785
   77SOPE  C218 6883   5.843   1.950   4.850 -0.2233 -0.4588  0.6296
   77SOPE  H18R 6884   5.871   1.863   4.786  2.4086  0.2269  0.7446
   77SOPE  H18S 6885   5.825   1.906   4.951 -0.5671 -0.9195  0.3709
   77SOPE  H18T 6886   5.930   2.018   4.862  0.4370 -1.2820  0.6390
   77SOPE   C33 6887   5.700   1.964   6.122  0.1001  0.8318  0.3780
   77SOPE   H3X 6888   5.759   2.039   6.179 -0.5252  1.0049  0.8161
   77SOPE   H3Y 6889   5.596   2.003   6.130 -0.5129 -0.6049 -0.2792
   77SOPE   C34 6890   5.742   1.976   5.974  0.2752 -0.2603 -0.1069
   77SOPE   H4X 6891   5.850   1.949   5.973  0.6919  1.0340 -3.1667
   77SOPE   H4Y 6892   5.729   2.082   5.943 -0.2887 -0.9071 -2.3263
   77SOPE   C35 6893   5.666   1.879   5.885  0.6515 -0.9363 -0.5253
   77SOPE   H5X 6894   5.560   1.914   5.893  0.9546 -0.5310  4.8782
   77SOPE   H5Y 6895   5.665   1.774   5.922 -2.5853 -0.9239 -0.2456
   77SOPE   C36 6896   5.715   1.874   5.745 -0.6502  0.1646 -0.2632
   77SOPE   H6X 6897   5.825   1.860   5.742 -0.3017  1.8155  1.8869
   77SOPE   H6Y 6898   5.698   1.967   5.685 -2.4976 -1.1480 -1.9023
   77SOPE   C37 6899   5.648   1.765   5.653 -0.0827  0.3307  0.2881
   77SOPE   H7X 6900   5.657   1.665   5.700 -1.5821  0.3864  0.7377
   77SOPE   H7Y 6901   5.699   1.766   5.554 -2.9991 -0.8442 -1.3386
   77SOPE   C38 6902   5.505   1.801   5.628 -0.4134  0.2320  1.0032
   77SOPE   H8X 6903   5.485   1.907   5.654  0.4637  0.1040  2.2584
   77SOPE   H8Y 6904   5.447   1.736   5.697  1.7594 -1.0845  1.6640
   77SOPE   C39 6905   5.471   1.787   5.480  0.1147 -0.1461  0.2684
   77SOPE   H9X 6906   5.538   1.856   5.424 -0.5659 -0.5833 -1.1282
   77SOPE   H9Y 6907   5.371   1.833   5.465  0.2662 -0.7042 -3.2538
   77SOPE  C310 6908   5.471   1.646   5.417  0.2575 -0.3317  0.0482
   77SOPE  H10X 6909   5.388   1.580   5.450  0.0589  0.2804  0.7863
   77SOPE  H10Y 6910   5.570   1.602   5.440  1.0437  0.9490 -0.7448
   77SOPE  C311 6911   5.461   1.651   5.260  0.1134  1.1951 -0.0628
   77SOPE  H11X 6912   5.438   1.545   5.236  0.2381  1.2866 -0.6020
   77SOPE  H11Y 6913   5.552   1.681   5.204  0.1115  0.1923 -0.6363
   77SOPE  C312 6914   5.348   1.724   5.186 -0.4302  0.8931 -0.2263
   77SOPE  H12X 6915   5.366   1.832   5.204  0.0396  0.6324  0.9126
   77SOPE  H12Y 6916   5.254   1.698   5.240 -0.1075 -2.2074 -0.9871
   77SOPE  C313 6917   5.337   1.707   5.038  0.0823  0.2797  0.3911
   77SOPE  H13X 6918   5.328   1.601   5.007 -3.2428  0.4200  0.4414
   77SOPE  H13Y 6919   5.430   1.747   4.993 -0.8979  1.4322 -0.6993
   77SOPE  C314 6920   5.217   1.780   4.985  0.1725 -0.5242 -0.3120
   77SOPE  H14X 6921   5.232   1.782   4.875 -3.7857  1.6576 -1.0337
   77SOPE  H14Y 6922   5.209   1.887   5.014 -0.0626 -0.5656 -0.2167
   77SOPE  C315 6923   5.087   1.711   5.025  0.1103 -0.0587 -0.5207
   77SOPE  H15X 6924   5.060   1.751   5.125  0.0253  0.9124 -0.9155
   77SOPE  H15Y 6925   5.102   1.601   5.032 -1.5030 -0.1942  1.6423
   77SOPE  C316 6926   4.964   1.737   4.938  0.3319 -0.1950 -0.2853
   77SOPE  H16X 6927   4.986   1.703   4.835  1.1703 -1.2180  0.2215
   77SOPE  H16Y 6928   4.950   1.848   4.936 -0.6405 -0.3163 -1.9071
   77SOPE  C317 6929   4.844   1.663   4.984  0.1510 -0.1083 -0.1242
   77SOPE  H17X 6930   4.838   1.689   5.092 -0.2839 -0.8515  0.0405
   77SOPE  H17Y 6931   4.854   1.556   4.955  2.0696  0.4920 -1.8741
   77SOPE  C318 6932   4.712   1.715   4.925  0.2949  0.5849 -0.3380
   77SOPE  H18X 6933   4.625   1.656   4.961 -0.0059 -0.6158 -2.8322
   77SOPE  H18Y 6934   4.718   1.693   4.817  0.0322 -1.7961  0.0723
   77SOPE  H18Z 6935   4.693   1.820   4.955 -0.0649  0.1322  1.1263
   78SOPE     N 6936   3.798   1.106   7.610  0.1196  0.0507  0.8357
   78SOPE   HN1 6937   3.707   1.124   7.658  0.2099  1.0620  0.6645
   78SOPE   HN2 6938   3.827   1.008   7.630 -0.0812 -0.5616 -1.5888
   78SOPE   HN3 6939   3.862   1.169   7.662  1.1135 -1.4611  1.5175
   78SOPE   C12 6940   3.793   1.125   7.458 -0.1558 -0.6281  0.3895
   78SOPE  H12A 6941   3.894   1.119   7.414 -0.3044 -1.6739  0.1589
   78SOPE  H12B 6942   3.749   1.222   7.426  1.9071 -0.9287 -4.0651
   78SOPE   C11 6943   3.708   1.013   7.390  0.5164 -0.4389  0.0472
   78SOPE  H11A 6944   3.757   0.913   7.397 -0.3147 -0.7465  2.4539
   78SOPE  H11B 6945   3.701   1.040   7.282 -1.1504  2.4802  0.7980
   78SOPE     P 6946   3.455   1.078   7.383 -0.3258  0.5559 -0.2473
   78SOPE   O13 6947   3.459   1.212   7.446 -0.2071  0.4122 -0.2966
   78SOPE   O14 6948   3.334   0.992   7.399 -0.1790  0.4393 -0.0718
   78SOPE   O12 6949   3.582   1.001   7.447 -0.2627 -0.7682  0.2286
   78SOPE   O11 6950   3.490   1.088   7.236 -0.5749 -0.7322  0.3123
   78SOPE    C1 6951   3.531   1.203   7.165  0.0020  0.3081  0.5164
   78SOPE    HA 6952   3.638   1.211   7.135 -0.5011  1.9290 -1.0767
   78SOPE    HB 6953   3.532   1.296   7.226  0.8023 -0.0910  1.1225
   78SOPE    C2 6954   3.468   1.220   7.028  0.2305 -0.7622 -0.1760
   78SOPE    HS 6955   3.360   1.236   7.048  0.0903 -0.6810 -0.9611
   78SOPE   O21 6956   3.489   1.095   6.952  0.3490 -0.3593 -0.2013
   78SOPE   C21 6957   3.393   1.028   6.895 -0.0431 -0.0122 -0.0913
   78SOPE   O22 6958   3.274   1.064   6.883 -0.4803 -0.8770  0.6076
   78SOPE   C22 6959   3.442   0.892   6.854  0.3034  0.5748  0.0760
   78SOPE   H2R 6960   3.453   0.825   6.943  1.6422  0.9720  0.2358
   78SOPE   H2S 6961   3.544   0.882   6.811  0.4949 -1.2807  0.8523
   78SOPE    C3 6962   3.530   1.335   6.948  0.0312  0.1826  0.5517
   78SOPE    HX 6963   3.640   1.322   6.957  0.1407  1.5096  1.3357
   78SOPE    HY 6964   3.521   1.431   7.003  0.9092  0.9678 -0.6356
   78SOPE   O31 6965   3.485   1.339   6.812  0.1355 -0.2563  0.2153
   78SOPE   C31 6966   3.354   1.380   6.790  0.1708  0.2740  0.1533
   78SOPE   O32 6967   3.284   1.426   6.876  0.1195  0.6204  0.2281
   78SOPE   C32 6968   3.322   1.365   6.642 -0.2982  0.2398 -0.2531
   78SOPE   H2X 6969   3.335   1.257   6.620 -0.4039  0.2022 -0.1355
   78SOPE   H2Y 6970   3.393   1.431   6.589  1.6491 -1.0452  0.6654
   78SOPE   C23 6971   3.347   0.822   6.762  0.3503  0.3231  1.5427
   78SOPE   H3R 6972   3.240   0.841   6.781  0.5620  0.4644  2.6516
   78SOPE   H3S 6973   3.356   0.712   6.764 -2.3637 -0.1028 -1.7310
   78SOPE   C24 6974   3.382   0.841   6.614  0.2207  0.5942 -0.2480
   78SOPE   H4R 6975   3.489   0.812   6.603  0.8800  1.4725  2.8506
   78SOPE   H4S 6976   3.315   0.769   6.562 -0.9684  1.0737  0.5690
   78SOPE   C25 6977   3.342   0.980   6.562  0.5525  1.1750  0.6169
   78SOPE   H5R 6978   3.232   0.983   6.546  0.6751 -1.3401 -1.3505
   78SOPE   H5S 6979   3.375   1.059   6.632  1.4899 -0.1886  1.7630
   78SOPE   C26 6980   3.383   1.006   6.410 -0.0377  0.5815 -0.3161
   78SOPE   H6R 6981   3.358   1.105   6.364 -0.2335  1.1778  1.0201
   78SOPE   H6S 6982   3.493   0.997   6.401 -0.0568 -1.9365  0.9770
   78SOPE   C27 6983   3.323   0.893   6.318 -0.0010  0.2858  0.1273
   78SOPE   H7R 6984   3.375   0.804   6.359  0.7402 -0.1518 -1.6781
   78SOPE   H7S 6985   3.213   0.879   6.332 -0.1105  0.4852 -0.4714
   78SOPE   C28 6986   3.358   0.910   6.166 -0.3239  0.1031 -0.3864
   78SOPE   H8R 6987   3.341   0.815   6.112 -0.7740 -0.2054  0.2753
   78SOPE   H8S 6988   3.280   0.972   6.118 -0.7053  0.3621  0.5455
   78SOPE   C29 6989   3.491   0.971   6.136 -0.5192  0.5004  0.4985
   78SOPE   H91 6990   3.575   0.926   6.190  2.8367  3.3533 -1.8410
   78SOPE  C210 6991   3.525   1.070   6.053 -0.2512  0.6473 -0.1985
   78SOPE  H101 6992   3.631   1.096   6.045 -0.0089  0.1559  1.2195
   78SOPE  C211 6993   3.436   1.143   5.954  0.1377  0.1937 -0.7517
   78SOPE  H11R 6994   3.435   1.252   5.978 -1.4218 -0.2924  1.7525
   78SOPE  H11S 6995   3.332   1.107   5.946  0.3153 -0.1229 -1.7399
   78SOPE  C212 6996   3.495   1.111   5.817  0.7720  0.2487 -0.5759
   78SOPE  H12R 6997   3.512   1.001   5.816  0.6690  0.1544  2.2417
   78SOPE  H12S 6998   3.589   1.170   5.817  0.9070  0.0356 -0.3931
   78SOPE  C213 6999   3.382   1.151   5.722 -0.6422 -0.2147  0.5161
   78SOPE  H13R 7000   3.349   1.255   5.742  0.1339  0.3058 -0.7782
   78SOPE  H13S 7001   3.301   1.076   5.727 -0.5702 -0.3006  0.4144
   78SOPE  C214 7002   3.422   1.156   5.576  0.5345 -0.3095  0.2398
   78SOPE  H14R 7003   3.328   1.186   5.525  0.0881  1.2854  1.8990
   78SOPE  H14S 7004   3.452   1.055   5.541  0.0941 -1.5043  3.0503
   78SOPE  C215 7005   3.529   1.261   5.540 -0.2196 -0.3142  0.6049
   78SOPE  H15R 7006   3.628   1.221   5.568  0.2922  0.1121 -0.5491
   78SOPE  H15S 7007   3.513   1.349   5.606 -1.0751 -1.0028  1.3493
   78SOPE  C216 7008   3.534   1.310   5.391 -0.6458  0.5680  0.3230
   78SOPE  H16R 7009   3.603   1.394   5.370 -1.0369  0.5525 -1.0874
   78SOPE  H16S 7010   3.435   1.352   5.361 -0.6039  0.6862  0.3481
   78SOPE  C217 7011   3.571   1.205   5.299 -0.8446  0.5592 -0.8622
   78SOPE  H17R 7012   3.488   1.134   5.278 -0.3609 -0.0814 -0.6570
   78SOPE  H17S 7013   3.656   1.147   5.342  0.1042  0.6578 -2.5043
   78SOPE  C218 7014   3.610   1.267   5.164 -0.0253 -0.1648  0.6515
   78SOPE  H18R 7015   3.653   1.194   5.093  0.2131  1.7179 -1.2665
   78SOPE  H18S 7016   3.687   1.345   5.184  0.3984 -0.7350  1.2767
   78SOPE  H18T 7017   3.525   1.324   5.121  1.2328  0.8235 -0.6472
   78SOPE   C33 7018   3.178   1.401   6.593 -0.1574  0.4996 -0.5673
   78SOPE   H3X 7019   3.175   1.512   6.597 -0.1061  0.4833  0.3373
   78SOPE   H3Y 7020   3.097   1.361   6.659  0.1247  0.9237  0.0486
   78SOPE   C34 7021   3.149   1.352   6.451 -0.6285 -0.3050 -0.3348
   78SOPE   H4X 7022   3.041   1.339   6.429 -0.5483 -1.5069 -0.0829
   78SOPE   H4Y 7023   3.186   1.248   6.447 -2.9390 -1.2050  0.0843
   78SOPE   C35 7024   3.210   1.442   6.352 -0.4382  0.5182  0.4024
   78SOPE   H5X 7025   3.318   1.461   6.366 -0.3931  0.0889  0.6727
   78SOPE   H5Y 7026   3.166   1.541   6.376 -3.0788 -1.1724  3.4288
   78SOPE   C36 7027   3.182   1.409   6.203 -0.6697  0.4167  0.1969
   78SOPE   H6X 7028   3.073   1.394   6.192 -0.4867 -1.7599  0.9357
   78SOPE   H6Y 7029   3.237   1.320   6.166  1.1554  1.9314 -0.9912
   78SOPE   C37 7030   3.224   1.521   6.096  0.6573  0.1855 -0.0469
   78SOPE   H7X 7031   3.331   1.549   6.109  0.5317  1.2836 -1.1921
   78SOPE   H7Y 7032   3.157   1.608   6.113  0.6512  0.3067 -0.6810
   78SOPE   C38 7033   3.217   1.473   5.953 -0.6858  0.0328 -0.1631
   78SOPE   H8X 7034   3.117   1.443   5.915  0.1398 -0.9601 -1.6585
   78SOPE   H8Y 7035   3.271   1.376   5.950  0.0469  0.4416 -0.7426
   78SOPE   C39 7036   3.279   1.567   5.848  0.1364 -0.3816 -0.1211
   78SOPE   H9X 7037   3.388   1.580   5.870 -0.0278 -1.7105  1.6974
   78SOPE   H9Y 7038   3.235   1.668   5.855  1.6703  0.4895 -2.0624
   78SOPE  C310 7039   3.237   1.529   5.710 -0.0418 -0.3657  0.9799
   78SOPE  H10X 7040   3.127   1.524   5.699 -0.1079  2.2696 -0.2282
   78SOPE  H10Y 7041   3.277   1.429   5.684 -0.1636 -0.6861  1.9581
   78SOPE  C311 7042   3.289   1.632   5.601  0.3386 -0.4279 -0.5300
   78SOPE  H11X 7043   3.400   1.641   5.608  0.4037 -1.7755  0.7376
   78SOPE  H11Y 7044   3.256   1.736   5.620  1.5616 -0.4102  1.8504
   78SOPE  C312 7045   3.254   1.598   5.455 -0.2611 -0.2032  0.4866
   78SOPE  H12X 7046   3.145   1.608   5.437 -0.8191 -1.5096  2.7178
   78SOPE  H12Y 7047   3.281   1.493   5.432 -0.2570  0.0758 -0.8601
   78SOPE  C313 7048   3.321   1.683   5.346  0.5172  0.2481  0.0889
   78SOPE  H13X 7049   3.430   1.661   5.350  0.4031 -0.2532  0.5630
   78SOPE  H13Y 7050   3.305   1.791   5.367 -0.2170  0.5499 -1.7516
   78SOPE  C314 7051   3.258   1.655   5.205  0.2825 -0.3166 -0.7708
   78SOPE  H14X 7052   3.277   1.739   5.136 -2.7800  2.3714  1.3731
   78SOPE  H14Y 7053   3.148   1.662   5.217  0.2748 -0.2404 -0.8855
   78SOPE  C315 7054   3.286   1.514   5.153  0.3081  0.3109  0.2093
   78SOPE  H15X 7055   3.257   1.427   5.216  3.1240 -0.4022  0.6487
   78SOPE  H15Y 7056   3.396   1.520   5.137  0.3678  1.3943  0.8594
   78SOPE  C316 7057   3.200   1.497   5.022 -0.2258  0.2417 -0.4933
   78SOPE  H16X 7058   3.240   1.581   4.960 -0.5362 -0.6476 -1.9381
   78SOPE  H16Y 7059   3.096   1.523   5.052  0.4055  1.4361  0.7692
   78SOPE  C317 7060   3.200   1.370   4.926  0.6662  0.2137 -0.3135
   78SOPE  H17X 7061   3.125   1.390   4.847  0.3180  1.8890  0.3930
   78SOPE  H17Y 7062   3.148   1.293   4.987 -0.6631  1.7561  0.5883
   78SOPE  C318 7063   3.339   1.316   4.881  0.6342 -0.2294  0.7417
   78SOPE  H18X 7064   3.402   1.384   4.819 -0.2495 -1.1371 -1.2654
   78SOPE  H18Y 7065   3.311   1.243   4.802  1.0522  1.4419 -1.0307
   78SOPE  H18Z 7066   3.399   1.270   4.962 -1.0120  0.3688  2.3499
   79SOPE     N 7067   1.284   0.419   7.313 -0.2849  0.1137 -0.2543
   79SOPE   HN1 7068   1.268   0.522   7.307 -0.2081  0.3423  2.2961
   79SOPE   HN2 7069   1.372   0.397   7.261 -0.2040  0.3431 -0.2181
   79SOPE   HN3 7070   1.203   0.380   7.261  0.4862 -0.7101 -0.8597
   79SOPE   C12 7071   1.273   0.364   7.457  0.5395  0.2126 -0.7537
   79SOPE  H12A 7072   1.264   0.452   7.524 -1.4318 -1.7802  1.7940
   79SOPE  H12B 7073   1.361   0.299   7.475  0.5630 -0.2247 -2.2895
   79SOPE   C11 7074   1.135   0.293   7.476  0.3344 -0.4761  0.0300
   79SOPE  H11A 7075   1.056   0.368   7.454  1.1958  0.6343  0.6313
   79SOPE  H11B 7076   1.130   0.261   7.582 -1.0672  3.0334  1.1565
   79SOPE     P 7077   1.008   0.180   7.280  0.2707 -0.1326  0.3795
   79SOPE   O13 7078   0.880   0.223   7.346  0.8723 -0.4847  0.5113
   79SOPE   O14 7079   1.022   0.042   7.224 -0.3128 -0.0669 -0.5805
   79SOPE   O12 7080   1.128   0.184   7.385 -0.1617  0.0312 -0.3162
   79SOPE   O11 7081   1.059   0.288   7.177  0.2643 -0.0623  0.0361
   79SOPE    C1 7082   0.979   0.384   7.117  0.8489  0.0729  0.4360
   79SOPE    HA 7083   1.048   0.456   7.066  2.1464 -0.7116  1.0328
   79SOPE    HB 7084   0.923   0.440   7.194  0.2124 -0.0628  0.0769
   79SOPE    C2 7085   0.876   0.331   7.011  0.1631 -0.6499 -0.0094
   79SOPE    HS 7086   0.812   0.256   7.061  0.8565 -1.5604 -0.4582
   79SOPE   O21 7087   0.945   0.262   6.907  0.5418 -0.5335 -0.1002
   79SOPE   C21 7088   0.890   0.174   6.824  0.3353  0.2357 -0.4002
   79SOPE   O22 7089   0.786   0.123   6.848 -0.2141 -0.0004 -0.0574
   79SOPE   C22 7090   0.967   0.153   6.696  1.1580  0.1414 -0.3942
   79SOPE   H2R 7091   1.061   0.105   6.730  0.2355 -0.6434  1.1632
   79SOPE   H2S 7092   0.994   0.253   6.656  2.6464 -0.7717 -1.8049
   79SOPE    C3 7093   0.786   0.445   6.948 -0.2883  0.0710 -0.1993
   79SOPE    HX 7094   0.869   0.503   6.902  0.4349 -1.3368 -0.7114
   79SOPE    HY 7095   0.738   0.501   7.031  0.2731  2.2847 -1.2738
   79SOPE   O31 7096   0.696   0.395   6.845 -0.1171  0.0207 -0.3269
   79SOPE   C31 7097   0.589   0.473   6.827 -0.7676 -0.5249 -0.1094
   79SOPE   O32 7098   0.553   0.554   6.914  0.2803 -0.9101  0.1069
   79SOPE   C32 7099   0.516   0.447   6.698  0.0887  0.0825  0.5384
   79SOPE   H2X 7100   0.470   0.538   6.654 -0.2629 -0.2448  0.2237
   79SOPE   H2Y 7101   0.432   0.379   6.721 -1.3955  1.7357  0.2327
   79SOPE   C23 7102   0.896   0.072   6.587  0.5294  0.2817  0.6508
   79SOPE   H3R 7103   0.800   0.126   6.579  1.4679  2.2333  1.8323
   79SOPE   H3S 7104   0.889  -0.035   6.619 -2.5896 -0.3300 -1.5676
   79SOPE   C24 7105   0.988   0.085   6.468 -0.2795  0.8858  0.0251
   79SOPE   H4R 7106   0.988   0.194   6.446  1.5033  1.0694  0.7389
   79SOPE   H4S 7107   1.090   0.047   6.493 -0.3778  1.0720  0.7510
   79SOPE   C25 7108   0.927   0.020   6.346  1.1847  0.6299  0.2318
   79SOPE   H5R 7109   0.933  -0.091   6.345 -1.2281  0.3961 -2.1925
   79SOPE   H5S 7110   0.819   0.046   6.345  0.8182 -0.8124 -0.2459
   79SOPE   C26 7111   0.984   0.078   6.212  0.0293 -0.2478 -0.6251
   79SOPE   H6R 7112   0.961   0.186   6.200 -0.9216 -0.5464 -1.6119
   79SOPE   H6S 7113   1.094   0.070   6.227  0.0596 -0.6327 -1.0570
   79SOPE   C27 7114   0.928   0.001   6.097  0.1551 -0.3732  0.1214
   79SOPE   H7R 7115   0.954  -0.107   6.089 -1.2133 -0.8164  1.2515
   79SOPE   H7S 7116   0.817   0.006   6.098  0.2095  1.3507  1.0492
   79SOPE   C28 7117   0.952   0.052   5.957  0.1296 -0.8943 -0.2907
   79SOPE   H8R 7118   0.887  -0.010   5.893  0.4088 -3.3870  1.6606
   79SOPE   H8S 7119   0.913   0.155   5.944 -0.2443 -0.7925  1.3726
   79SOPE   C29 7120   1.100   0.061   5.909 -0.3603 -0.0067  0.0165
   79SOPE   H91 7121   1.162   0.143   5.949 -0.8659  1.5181 -2.1403
   79SOPE  C210 7122   1.159  -0.022   5.824 -0.1511 -0.0898  0.5844
   79SOPE  H101 7123   1.262  -0.005   5.788  0.0841 -0.5226  1.0458
   79SOPE  C211 7124   1.098  -0.137   5.749 -0.4061  0.0695  0.3455
   79SOPE  H11R 7125   1.008  -0.179   5.800 -0.2352  0.4057  0.9311
   79SOPE  H11S 7126   1.173  -0.217   5.735 -1.0402 -0.5629  0.5041
   79SOPE  C212 7127   1.055  -0.102   5.612 -0.6460  0.2160  0.0275
   79SOPE  H12R 7128   1.009  -0.182   5.551 -2.1661  2.3084 -1.7030
   79SOPE  H12S 7129   1.142  -0.060   5.558 -0.6470 -3.2109 -3.0500
   79SOPE  C213 7130   0.936  -0.005   5.593  0.7257 -0.4446 -0.4678
   79SOPE  H13R 7131   0.943   0.078   5.666  0.1345 -1.1721  0.4385
   79SOPE  H13S 7132   0.851  -0.064   5.634 -0.0305  2.6766  2.9800
   79SOPE  C214 7133   0.911   0.051   5.451 -0.5535  0.0503 -0.7300
   79SOPE  H14R 7134   0.901  -0.023   5.369  0.2673 -0.0991 -0.7001
   79SOPE  H14S 7135   1.009   0.099   5.429 -0.5236  0.8754  1.0357
   79SOPE  C215 7136   0.799   0.150   5.459  0.3504 -0.1192 -0.3024
   79SOPE  H15R 7137   0.808   0.196   5.559 -0.6833 -0.8149  0.1216
   79SOPE  H15S 7138   0.698   0.103   5.456 -0.0212  0.6230  0.3813
   79SOPE  C216 7139   0.808   0.254   5.341 -0.3168  1.0952  0.6844
   79SOPE  H16R 7140   0.716   0.315   5.344 -1.0274  0.1147 -0.2111
   79SOPE  H16S 7141   0.799   0.197   5.245 -1.8161 -0.2242  1.5627
   79SOPE  C217 7142   0.932   0.340   5.344 -0.2554  0.3413 -0.9013
   79SOPE  H17R 7143   1.025   0.278   5.343 -1.5516 -1.7094 -0.9796
   79SOPE  H17S 7144   0.928   0.406   5.433  2.5182 -0.0894 -0.3314
   79SOPE  C218 7145   0.937   0.436   5.225  0.6332 -0.0628 -0.0811
   79SOPE  H18R 7146   1.010   0.516   5.251 -0.8026  0.9760  0.9389
   79SOPE  H18S 7147   0.839   0.488   5.223  0.6268 -0.0993 -1.4716
   79SOPE  H18T 7148   0.934   0.389   5.125 -1.1676  1.3766 -0.7459
   79SOPE   C33 7149   0.599   0.374   6.591  0.0934 -0.4885  0.2748
   79SOPE   H3X 7150   0.615   0.269   6.625 -0.0953  0.0821  2.2092
   79SOPE   H3Y 7151   0.701   0.413   6.576  0.0822 -0.9253 -1.0828
   79SOPE   C34 7152   0.529   0.372   6.454 -0.4822  0.2745  0.5590
   79SOPE   H4X 7153   0.425   0.410   6.462  0.1759  1.8663  2.2255
   79SOPE   H4Y 7154   0.528   0.268   6.413  0.8671  1.6256 -3.3709
   79SOPE   C35 7155   0.608   0.462   6.348  0.6118 -0.0944  0.1116
   79SOPE   H5X 7156   0.715   0.434   6.357  0.8137  0.3191 -0.8604
   79SOPE   H5Y 7157   0.599   0.567   6.384 -1.5995  0.9771 -3.1104
   79SOPE   C36 7158   0.559   0.448   6.204  0.1218  0.4956  0.0482
   79SOPE   H6X 7159   0.590   0.533   6.140  2.4864 -0.8932 -0.7722
   79SOPE   H6Y 7160   0.449   0.446   6.188  0.0942 -1.7880  0.1009
   79SOPE   C37 7161   0.634   0.330   6.127  0.3517 -0.0612  0.0596
   79SOPE   H7X 7162   0.630   0.240   6.193 -1.1056  0.5810  0.9148
   79SOPE   H7Y 7163   0.741   0.358   6.135  0.1800  0.2243  1.8559
   79SOPE   C38 7164   0.582   0.310   5.984 -0.7308 -0.1322 -0.9179
   79SOPE   H8X 7165   0.472   0.326   5.987 -0.8329 -0.9010 -0.0696
   79SOPE   H8Y 7166   0.583   0.203   5.952 -0.2283 -0.7885  1.1420
   79SOPE   C39 7167   0.657   0.390   5.875  0.4864  0.3667 -0.4005
   79SOPE   H9X 7168   0.755   0.341   5.858  1.2665  0.5438  2.8534
   79SOPE   H9Y 7169   0.680   0.494   5.907  2.1522  0.8289 -2.7875
   79SOPE  C310 7170   0.572   0.402   5.753  0.4992 -0.5527  0.3199
   79SOPE  H10X 7171   0.481   0.461   5.779  1.6142  1.1877  0.4082
   79SOPE  H10Y 7172   0.518   0.310   5.720 -1.7411  0.5381  0.7335
   79SOPE  C311 7173   0.651   0.464   5.636  0.2643 -0.0893 -0.2727
   79SOPE  H11X 7174   0.588   0.454   5.545 -0.6574  1.4529  0.1631
   79SOPE  H11Y 7175   0.746   0.408   5.629 -0.1609 -0.7872 -0.6114
   79SOPE  C312 7176   0.673   0.613   5.650 -0.7122 -0.2294  0.5726
   79SOPE  H12X 7177   0.773   0.621   5.698 -1.2683 -0.4686  1.7914
   79SOPE  H12Y 7178   0.607   0.651   5.731  0.2684 -0.5655  1.5544
   79SOPE  C313 7179   0.632   0.671   5.517  0.7056 -0.1191 -0.3319
   79SOPE  H13X 7180   0.523   0.649   5.514  0.9221 -1.9671  2.0991
   79SOPE  H13Y 7181   0.685   0.619   5.434  0.4584 -1.4849  0.3363
   79SOPE  C314 7182   0.648   0.817   5.500 -0.0843  0.3428  0.7141
   79SOPE  H14X 7183   0.603   0.869   5.588  0.0707 -0.4012  1.2383
   79SOPE  H14Y 7184   0.613   0.859   5.404 -0.9986 -0.6674  0.6018
   79SOPE  C315 7185   0.803   0.858   5.499 -0.4533  0.9810  0.0367
   79SOPE  H15X 7186   0.847   0.832   5.400  0.3710  1.2434  0.3324
   79SOPE  H15Y 7187   0.848   0.796   5.579  1.9813  1.3619 -0.9426
   79SOPE  C316 7188   0.828   1.003   5.542  0.5444  0.3828 -0.0088
   79SOPE  H16X 7189   0.746   1.033   5.610  0.6624  1.2081 -0.2176
   79SOPE  H16Y 7190   0.806   1.059   5.449  0.0678 -1.6338 -1.1572
   79SOPE  C317 7191   0.971   1.033   5.593 -0.0670 -0.5560  0.2764
   79SOPE  H17X 7192   1.031   1.005   5.503  1.2501  2.1041  0.2331
   79SOPE  H17Y 7193   1.011   0.969   5.674 -0.2193  1.0063  1.6178
   79SOPE  C318 7194   0.982   1.180   5.636 -0.2363 -0.2305 -0.0257
   79SOPE  H18X 7195   0.948   1.245   5.553 -0.1136 -0.5076 -0.2945
   79SOPE  H18Y 7196   1.084   1.207   5.671 -0.5240  2.5573 -1.1025
   79SOPE  H18Z 7197   0.918   1.198   5.725 -0.5666 -2.1038  0.1554
   80SOPE     N 7198   4.115   2.560   7.156 -0.6967 -1.0841 -0.1298
   80SOPE   HN1 7199   4.062   2.647   7.137  2.5540  0.8115 -1.1944
   80SOPE   HN2 7200   4.148   2.559   7.255  1.7238  0.3980 -0.8366
   80SOPE   HN3 7201   4.202   2.571   7.101 -0.5208 -0.8924  0.1846
   80SOPE   C12 7202   4.050   2.434   7.113  0.2561  0.2422  0.3474
   80SOPE  H12A 7203   4.023   2.432   7.005  0.3532 -2.1021  0.3289
   80SOPE  H12B 7204   3.958   2.432   7.174  0.7360  2.0674  1.1984
   80SOPE   C11 7205   4.143   2.315   7.145 -0.1000  0.3539  0.4581
   80SOPE  H11A 7206   4.077   2.227   7.133  0.0237  0.6453 -4.0742
   80SOPE  H11B 7207   4.173   2.301   7.251 -0.9125 -1.2623  0.5056
   80SOPE     P 7208   4.291   2.192   6.984 -0.5732 -0.0156  0.2767
   80SOPE   O13 7209   4.284   2.083   7.081  0.0896 -0.4788  0.5026
   80SOPE   O14 7210   4.414   2.199   6.899  0.2161  0.0132  0.4863
   80SOPE   O12 7211   4.258   2.332   7.058  0.3310  0.3028  0.0241
   80SOPE   O11 7212   4.169   2.165   6.881 -0.2803  0.2983 -0.1892
   80SOPE    C1 7213   4.163   2.275   6.786 -0.2387  0.3561 -0.5574
   80SOPE    HA 7214   4.211   2.371   6.815  0.5234 -0.2118  0.1167
   80SOPE    HB 7215   4.056   2.297   6.765 -0.3853 -1.4924 -2.0406
   80SOPE    C2 7216   4.228   2.229   6.652 -0.1289 -0.2235  0.4794
   80SOPE    HS 7217   4.326   2.178   6.662 -1.2864 -2.1945  2.9542
   80SOPE   O21 7218   4.221   2.341   6.563 -0.1047 -0.0056  0.1020
   80SOPE   C21 7219   4.334   2.413   6.551  0.1742 -0.0757  0.0445
   80SOPE   O22 7220   4.437   2.397   6.615 -0.4214 -0.2103  0.2534
   80SOPE   C22 7221   4.319   2.497   6.430  0.2989  0.2527  0.0841
   80SOPE   H2R 7222   4.423   2.529   6.408  0.5859 -1.0686 -0.5985
   80SOPE   H2S 7223   4.263   2.591   6.445 -1.0059 -0.7100  1.5443
   80SOPE    C3 7224   4.141   2.115   6.600  0.3689  0.0382  0.6326
   80SOPE    HX 7225   4.042   2.165   6.595  0.4369  0.2925  1.5863
   80SOPE    HY 7226   4.140   2.025   6.665  2.3654  0.2076  0.9644
   80SOPE   O31 7227   4.174   2.084   6.468 -0.2182 -0.3214  0.5869
   80SOPE   C31 7228   4.085   2.000   6.408  1.1095  0.0523  0.0428
   80SOPE   O32 7229   3.992   1.946   6.471  0.4143  0.4747  0.3314
   80SOPE   C32 7230   4.097   2.003   6.254 -0.1088 -0.5099 -0.2042
   80SOPE   H2X 7231   4.164   1.921   6.222 -0.3488 -0.3421 -1.1553
   80SOPE   H2Y 7232   4.135   2.103   6.224 -1.1888  0.4605  1.4689
   80SOPE   C23 7233   4.249   2.439   6.303 -0.1973 -0.6393  0.1122
   80SOPE   H3R 7234   4.144   2.433   6.338 -0.2600 -1.1604 -0.1428
   80SOPE   H3S 7235   4.286   2.338   6.275  0.6517 -0.4122  0.4004
   80SOPE   C24 7236   4.277   2.526   6.181  0.4674  0.0300  0.3687
   80SOPE   H4R 7237   4.233   2.628   6.188 -0.7777 -0.2197 -2.3561
   80SOPE   H4S 7238   4.388   2.531   6.173  0.4326 -1.1935 -1.7402
   80SOPE   C25 7239   4.229   2.463   6.047  0.1761 -0.2646 -0.3909
   80SOPE   H5R 7240   4.275   2.362   6.035  2.0662  0.1921  2.2269
   80SOPE   H5S 7241   4.119   2.452   6.047  0.3279 -2.2792  1.1499
   80SOPE   C26 7242   4.271   2.544   5.925  0.2741  0.6680 -0.0208
   80SOPE   H6R 7243   4.243   2.652   5.929 -1.7630  0.1319  2.8298
   80SOPE   H6S 7244   4.381   2.553   5.910  0.2692  1.1574  0.2162
   80SOPE   C27 7245   4.225   2.481   5.797 -0.1700  0.4564 -0.1471
   80SOPE   H7R 7246   4.257   2.375   5.803 -3.3158 -0.5487  1.2479
   80SOPE   H7S 7247   4.114   2.487   5.800 -0.2423 -0.7694  0.1013
   80SOPE   C28 7248   4.291   2.534   5.675  0.8941 -0.1322  0.5986
   80SOPE   H8R 7249   4.310   2.643   5.683  0.4628  0.2482 -2.2582
   80SOPE   H8S 7250   4.390   2.487   5.657  1.6833  0.3861  3.2091
   80SOPE   C29 7251   4.211   2.519   5.551 -0.1979 -0.0055  0.0952
   80SOPE   H91 7252   4.216   2.422   5.499 -0.4049  1.0362 -1.9947
   80SOPE  C210 7253   4.136   2.613   5.493 -0.0162  0.5138 -0.1392
   80SOPE  H101 7254   4.092   2.588   5.396  0.5126 -1.5530  0.1025
   80SOPE  C211 7255   4.118   2.758   5.540 -0.4068 -0.3820 -0.7081
   80SOPE  H11R 7256   4.145   2.756   5.648 -1.5898 -1.6790 -0.4104
   80SOPE  H11S 7257   4.012   2.787   5.525 -0.4922 -1.0653 -1.4980
   80SOPE  C212 7258   4.213   2.844   5.455 -0.6032  0.2620 -0.1654
   80SOPE  H12R 7259   4.313   2.796   5.456 -1.2319 -1.1428  1.5332
   80SOPE  H12S 7260   4.213   2.950   5.490  1.6813 -0.4737  2.4228
   80SOPE  C213 7261   4.165   2.849   5.307  0.1846  0.5637 -0.5925
   80SOPE  H13R 7262   4.167   2.750   5.256 -3.3085  0.4061 -0.6791
   80SOPE  H13S 7263   4.251   2.908   5.269  1.3770  1.0825  2.5512
   80SOPE  C214 7264   4.038   2.924   5.267 -0.6197  0.3445 -0.6851
   80SOPE  H14R 7265   4.047   3.020   5.322  0.4836 -0.2711  0.2666
   80SOPE  H14S 7266   3.947   2.869   5.301 -0.8771 -0.6456 -2.8453
   80SOPE  C215 7267   4.034   2.946   5.117  0.2144  0.3194  0.2805
   80SOPE  H15R 7268   4.022   2.848   5.067 -0.8199  0.2451  0.6493
   80SOPE  H15S 7269   4.130   2.995   5.087 -0.0122  0.4841 -0.1954
   80SOPE  C216 7270   3.928   3.041   5.081 -0.6369 -0.2476  0.2607
   80SOPE  H16R 7271   3.941   3.141   5.127 -0.2054  0.3969 -1.2166
   80SOPE  H16S 7272   3.834   2.992   5.113 -1.0512  0.3281 -0.0743
   80SOPE  C217 7273   3.914   3.055   4.929  0.5822 -0.4812 -0.0945
   80SOPE  H17R 7274   3.826   3.122   4.927  0.5156 -0.5751 -2.1933
   80SOPE  H17S 7275   3.881   2.967   4.869 -1.8331 -0.3726  0.9782
   80SOPE  C218 7276   4.028   3.121   4.864 -0.1857 -0.0315  0.3397
   80SOPE  H18R 7277   4.117   3.064   4.833 -0.2318  0.7580 -1.3884
   80SOPE  H18S 7278   4.058   3.206   4.929 -1.5438 -0.0878  1.0837
   80SOPE  H18T 7279   3.994   3.152   4.763 -1.2994 -1.0628  0.3820
   80SOPE   C33 7280   3.972   1.980   6.180 -0.4747  0.4172  0.3242
   80SOPE   H3X 7281   3.891   2.046   6.217  0.4996  0.5493  2.3593
   80SOPE   H3Y 7282   3.941   1.875   6.200  0.8499 -0.1203 -0.2825
   80SOPE   C34 7283   3.978   1.993   6.029  0.0121 -0.8400  0.2660
   80SOPE   H4X 7284   3.880   1.964   5.985  0.4424  0.1377 -1.4544
   80SOPE   H4Y 7285   4.054   1.923   5.988  0.2894  0.4059 -1.4408
   80SOPE   C35 7286   4.007   2.141   5.974  0.2025  0.3021  0.5981
   80SOPE   H5X 7287   4.117   2.154   5.985  0.4220 -1.2748  0.5795
   80SOPE   H5Y 7288   3.961   2.204   6.052  0.2242  1.4975 -0.3306
   80SOPE   C36 7289   3.959   2.177   5.839 -0.2426 -0.2182 -0.2862
   80SOPE   H6X 7290   4.001   2.278   5.820 -0.7775  0.2628  0.9470
   80SOPE   H6Y 7291   3.849   2.192   5.850 -0.5366  0.7198 -3.4380
   80SOPE   C37 7292   4.003   2.077   5.729  0.5806 -0.3822  0.2081
   80SOPE   H7X 7293   3.940   1.985   5.738  0.1571 -0.1126  0.0629
   80SOPE   H7Y 7294   4.109   2.051   5.750 -0.2368 -2.0954  2.6456
   80SOPE   C38 7295   3.991   2.144   5.595  0.2694  1.2026 -0.1666
   80SOPE   H8X 7296   4.068   2.224   5.593  0.8569  0.6505 -0.0782
   80SOPE   H8Y 7297   3.892   2.188   5.573  0.1471  2.0153  1.7640
   80SOPE   C39 7298   4.031   2.045   5.485  0.7134 -0.5406  0.6080
   80SOPE   H9X 7299   3.938   1.993   5.455 -0.8692  1.6764  1.3529
   80SOPE   H9Y 7300   4.114   1.977   5.515  1.6952  0.2621 -0.2355
   80SOPE  C310 7301   4.082   2.121   5.357  0.4057  0.2051 -0.4301
   80SOPE  H10X 7302   4.086   2.045   5.276  0.5843  0.0136 -0.2435
   80SOPE  H10Y 7303   4.190   2.132   5.381  0.9122 -3.3929 -0.4771
   80SOPE  C311 7304   3.998   2.242   5.316 -0.2082  0.7348 -0.2705
   80SOPE  H11X 7305   4.021   2.312   5.400 -1.8447  3.2433 -1.7815
   80SOPE  H11Y 7306   3.892   2.209   5.307  0.0619  0.0660 -1.1742
   80SOPE  C312 7307   4.041   2.326   5.197  0.7679  0.5095 -0.6120
   80SOPE  H12X 7308   4.151   2.337   5.203  0.6922  0.6216  1.9443
   80SOPE  H12Y 7309   3.990   2.424   5.216 -1.5432 -0.7223 -0.0940
   80SOPE  C313 7310   3.983   2.267   5.067  0.0623 -0.8431 -1.1283
   80SOPE  H13X 7311   3.872   2.267   5.064  0.0661 -1.7389 -1.4708
   80SOPE  H13Y 7312   4.021   2.162   5.063  0.5672 -0.6385 -2.0922
   80SOPE  C314 7313   4.041   2.345   4.952  0.0811 -0.2522  1.1436
   80SOPE  H14X 7314   4.151   2.354   4.965  0.3687 -0.0318 -0.9759
   80SOPE  H14Y 7315   3.994   2.446   4.952  1.1041  0.2565 -0.0523
   80SOPE  C315 7316   4.029   2.286   4.809  0.1892  1.2201  0.0268
   80SOPE  H15X 7317   4.060   2.179   4.813 -2.2811  0.4187 -0.3865
   80SOPE  H15Y 7318   4.099   2.334   4.737 -0.2525  0.8884 -0.6433
   80SOPE  C316 7319   3.889   2.289   4.740  0.7806 -0.3987  0.2670
   80SOPE  H16X 7320   3.851   2.391   4.716  3.1629  0.2721 -1.0203
   80SOPE  H16Y 7321   3.827   2.243   4.820  3.3306 -1.4125  1.7775
   80SOPE  C317 7322   3.870   2.210   4.612  0.1560  0.3115  0.4522
   80SOPE  H17X 7323   3.763   2.223   4.584  0.0917 -0.8694  0.1163
   80SOPE  H17Y 7324   3.876   2.101   4.631  0.5502  0.4040  0.8555
   80SOPE  C318 7325   3.958   2.260   4.496  0.2856  0.2126  0.5763
   80SOPE  H18X 7326   3.928   2.365   4.474  1.3987  0.2063 -1.0915
   80SOPE  H18Y 7327   3.934   2.209   4.401  0.4149  3.4313 -1.3245
   80SOPE  H18Z 7328   4.064   2.245   4.525  0.8710  0.5368 -1.3045
   81SOPE     N 7329   2.518   0.931   7.122 -0.0183 -0.2387 -0.2776
   81SOPE   HN1 7330   2.619   0.906   7.111 -0.0346 -1.8537  2.3229
   81SOPE   HN2 7331   2.473   0.857   7.065 -0.0091  0.1292 -0.7661
   81SOPE   HN3 7332   2.499   1.029   7.094  0.8012  0.5800  1.7672
   81SOPE   C12 7333   2.471   0.914   7.262 -0.8067  0.6785 -0.3074
   81SOPE  H12A 7334   2.492   1.011   7.312  2.9752  0.9857 -2.0588
   81SOPE  H12B 7335   2.549   0.840   7.290 -1.7373  0.1777  1.0228
   81SOPE   C11 7336   2.323   0.865   7.273 -1.2276 -0.3682  0.5522
   81SOPE  H11A 7337   2.311   0.849   7.382 -1.9451  0.2684  0.5775
   81SOPE  H11B 7338   2.323   0.769   7.218 -0.2606 -1.5317  2.4723
   81SOPE     P 7339   2.176   1.082   7.249  0.2203  0.7251  0.1455
   81SOPE   O13 7340   2.293   1.127   7.328 -0.4521 -0.3489  0.4310
   81SOPE   O14 7341   2.045   1.077   7.318 -0.0889  0.5962 -0.1910
   81SOPE   O12 7342   2.220   0.942   7.203 -0.3134  0.0360  0.0938
   81SOPE   O11 7343   2.158   1.149   7.110 -0.0905  0.8185 -0.2873
   81SOPE    C1 7344   2.051   1.092   7.023 -0.3743 -0.1568 -0.6775
   81SOPE    HA 7345   2.006   1.178   6.968  1.6536  0.8695 -0.8140
   81SOPE    HB 7346   1.973   1.037   7.080 -0.0391  0.8844  0.8546
   81SOPE    C2 7347   2.114   0.996   6.915 -0.5850  0.2688  0.4399
   81SOPE    HS 7348   2.177   0.925   6.973  0.3950  1.9394  1.5114
   81SOPE   O21 7349   2.190   1.078   6.824  0.3574  0.1920  0.4120
   81SOPE   C21 7350   2.301   1.020   6.776 -0.2155 -0.2030 -0.7908
   81SOPE   O22 7351   2.349   0.916   6.809  0.4264 -0.2897 -0.1498
   81SOPE   C22 7352   2.377   1.127   6.697  0.0354  0.4305  0.1873
   81SOPE   H2R 7353   2.466   1.151   6.759  0.1520  0.6524 -0.0647
   81SOPE   H2S 7354   2.313   1.217   6.693 -1.1192 -0.3910 -0.2137
   81SOPE    C3 7355   2.001   0.925   6.837 -0.6505 -0.1802 -0.4271
   81SOPE    HX 7356   1.930   1.002   6.800 -1.0023 -0.9784 -1.4568
   81SOPE    HY 7357   1.950   0.855   6.906  0.6324 -0.5114  0.2177
   81SOPE   O31 7358   2.063   0.844   6.735 -0.5884  0.3875 -0.0763
   81SOPE   C31 7359   2.109   0.725   6.762  0.8207  0.0413  0.1752
   81SOPE   O32 7360   2.142   0.683   6.872 -0.0525 -0.0638  0.1706
   81SOPE   C32 7361   2.135   0.653   6.624 -0.1583  0.6139 -0.0565
   81SOPE   H2X 7362   2.224   0.590   6.645  1.0091  2.3860  0.4336
   81SOPE   H2Y 7363   2.159   0.731   6.549  0.6561  1.2250  0.8165
   81SOPE   C23 7364   2.416   1.093   6.551 -0.1315 -0.5015  0.0281
   81SOPE   H3R 7365   2.322   1.066   6.497 -0.6785 -1.3897  1.3667
   81SOPE   H3S 7366   2.478   1.001   6.562 -2.0340 -1.5746  3.3375
   81SOPE   C24 7367   2.495   1.206   6.477 -0.8735 -0.5088  1.1513
   81SOPE   H4R 7368   2.437   1.300   6.488 -1.4184 -0.6473 -0.2852
   81SOPE   H4S 7369   2.592   1.231   6.524 -0.6621  4.4029 -1.3239
   81SOPE   C25 7370   2.526   1.172   6.331 -0.3217 -0.3496 -0.1220
   81SOPE   H5R 7371   2.618   1.228   6.304 -0.9971  0.4587 -0.7806
   81SOPE   H5S 7372   2.545   1.062   6.334  0.1098 -0.2908 -0.5531
   81SOPE   C26 7373   2.406   1.207   6.242  0.3537  1.1036 -0.1210
   81SOPE   H6R 7374   2.319   1.158   6.290  0.7418 -0.8326 -1.2616
   81SOPE   H6S 7375   2.403   1.318   6.243  0.8116  1.1421  1.7328
   81SOPE   C27 7376   2.440   1.153   6.103  0.6966 -0.2871  0.0898
   81SOPE   H7R 7377   2.550   1.157   6.086  0.9584 -2.3623  1.0803
   81SOPE   H7S 7378   2.407   1.048   6.093  1.8677 -0.6022 -0.6639
   81SOPE   C28 7379   2.391   1.234   5.988  0.2176 -0.1213 -0.2067
   81SOPE   H8R 7380   2.431   1.335   6.013  1.3678 -0.9174  1.3148
   81SOPE   H8S 7381   2.444   1.201   5.897  1.6189 -0.0562  0.5660
   81SOPE   C29 7382   2.251   1.229   5.962  0.1658 -0.4630 -0.0110
   81SOPE   H91 7383   2.187   1.293   6.025  0.3373 -0.1124 -0.1908
   81SOPE  C210 7384   2.188   1.158   5.869 -0.4254 -0.0089 -0.1396
   81SOPE  H101 7385   2.079   1.164   5.856 -0.9181 -1.5951  2.4365
   81SOPE  C211 7386   2.244   1.072   5.763 -0.8102  0.9541 -0.2608
   81SOPE  H11R 7387   2.235   0.965   5.793  1.2190  1.1730  1.3013
   81SOPE  H11S 7388   2.353   1.093   5.754 -0.6463  0.2429 -0.0437
   81SOPE  C212 7389   2.188   1.097   5.631 -0.2135 -0.0822  0.1249
   81SOPE  H12R 7390   2.079   1.073   5.638 -0.6419  1.8917  1.0359
   81SOPE  H12S 7391   2.241   1.029   5.562  3.6426  2.5472  0.2152
   81SOPE  C213 7392   2.197   1.243   5.579 -0.1660 -0.3491  0.7455
   81SOPE  H13R 7393   2.299   1.282   5.602 -0.0423 -0.3370  0.2037
   81SOPE  H13S 7394   2.123   1.312   5.623 -0.3696  1.1642 -1.7457
   81SOPE  C214 7395   2.176   1.261   5.427  0.5522 -0.6583 -0.6033
   81SOPE  H14R 7396   2.079   1.211   5.403 -0.6528 -0.3234  2.9789
   81SOPE  H14S 7397   2.250   1.201   5.370  0.6867 -0.0284 -1.0943
   81SOPE  C215 7398   2.169   1.407   5.374  0.8159  0.2234 -0.2421
   81SOPE  H15R 7399   2.273   1.444   5.379  0.4406  1.4540 -0.9025
   81SOPE  H15S 7400   2.103   1.465   5.442  3.1852  1.9940  0.6546
   81SOPE  C216 7401   2.107   1.412   5.231 -0.6014  0.0044 -0.1679
   81SOPE  H16R 7402   1.999   1.388   5.229 -0.4817 -1.2860  2.7303
   81SOPE  H16S 7403   2.167   1.353   5.158  0.2116  0.0391  0.4461
   81SOPE  C217 7404   2.110   1.553   5.166 -0.0503  0.3306 -0.6676
   81SOPE  H17R 7405   2.073   1.550   5.061 -0.2128 -1.0557 -0.5881
   81SOPE  H17S 7406   2.218   1.582   5.163  0.8926 -2.8396 -1.6513
   81SOPE  C218 7407   2.037   1.658   5.242  0.4733  0.0306  0.5470
   81SOPE  H18R 7408   2.098   1.702   5.324  1.3348  2.5333 -1.3222
   81SOPE  H18S 7409   1.939   1.626   5.283  0.6618  1.7265  2.4931
   81SOPE  H18T 7410   2.011   1.749   5.183 -3.1724 -0.2893  1.3860
   81SOPE   C33 7411   2.007   0.559   6.580 -0.3564  0.2022  0.7527
   81SOPE   H3X 7412   1.927   0.627   6.544 -0.2097 -0.0021  0.0228
   81SOPE   H3Y 7413   1.976   0.503   6.671 -1.4967  0.3702  0.4909
   81SOPE   C34 7414   2.030   0.469   6.465 -0.6423  0.0525  0.2665
   81SOPE   H4X 7415   2.128   0.418   6.476 -0.1625  0.0289 -3.1003
   81SOPE   H4Y 7416   2.040   0.537   6.377 -0.6406 -0.7110 -0.3357
   81SOPE   C35 7417   1.924   0.361   6.457 -0.2470  0.1648  0.6061
   81SOPE   H5X 7418   1.826   0.408   6.433  0.6781  1.9058  0.0492
   81SOPE   H5Y 7419   1.904   0.306   6.552  0.5515  0.8267  1.1813
   81SOPE   C36 7420   1.960   0.261   6.344 -0.2011 -0.8807  0.6248
   81SOPE   H6X 7421   1.875   0.191   6.330 -0.5383 -0.4006  0.1999
   81SOPE   H6Y 7422   2.044   0.198   6.380 -0.4123 -1.5226  0.0281
   81SOPE   C37 7423   1.989   0.321   6.203 -0.2197 -0.2432 -0.5266
   81SOPE   H7X 7424   2.092   0.363   6.210 -0.5428  0.5174 -0.3496
   81SOPE   H7Y 7425   1.913   0.397   6.177 -2.2459 -2.5752 -1.8418
   81SOPE   C38 7426   1.973   0.218   6.090 -0.1013 -0.5816  0.4753
   81SOPE   H8X 7427   1.883   0.157   6.115 -0.6069  0.5431  1.5033
   81SOPE   H8Y 7428   2.065   0.156   6.090 -0.0378 -0.5418 -1.4506
   81SOPE   C39 7429   1.967   0.298   5.951  0.0497  0.3094  0.0663
   81SOPE   H9X 7430   2.057   0.363   5.950  0.6181 -0.4024  1.4385
   81SOPE   H9Y 7431   1.876   0.362   5.948 -0.5181 -0.3824  1.4793
   81SOPE  C310 7432   1.966   0.204   5.829 -0.6016  0.4503 -0.4033
   81SOPE  H10X 7433   1.872   0.144   5.832  0.4188 -1.2857 -1.5633
   81SOPE  H10Y 7434   2.045   0.127   5.828 -0.6270  0.3709  1.4296
   81SOPE  C311 7435   1.970   0.279   5.698 -0.2389 -0.0945  0.6566
   81SOPE  H11X 7436   2.065   0.332   5.677 -0.2826 -0.7307 -1.3725
   81SOPE  H11Y 7437   1.892   0.357   5.684 -0.8247 -0.6190  0.9166
   81SOPE  C312 7438   1.946   0.197   5.570 -0.7468 -0.1992  0.0940
   81SOPE  H12X 7439   1.844   0.153   5.569 -0.2839 -1.3501  0.7751
   81SOPE  H12Y 7440   2.018   0.112   5.568 -0.1473  0.3190 -1.4578
   81SOPE  C313 7441   1.968   0.278   5.438 -0.3546 -0.8278  0.4257
   81SOPE  H13X 7442   2.064   0.334   5.443 -0.4040 -0.7044 -0.0059
   81SOPE  H13Y 7443   1.892   0.359   5.434 -0.5244 -0.8412  2.4123
   81SOPE  C314 7444   1.978   0.192   5.309 -0.2141 -0.2626 -0.6879
   81SOPE  H14X 7445   1.883   0.134   5.303 -0.0378 -1.0428  2.5053
   81SOPE  H14Y 7446   2.062   0.120   5.318 -0.0347 -0.2527 -1.9777
   81SOPE  C315 7447   1.985   0.282   5.182  0.3150 -0.4260  0.1779
   81SOPE  H15X 7448   2.068   0.355   5.187  0.3661 -0.5340  1.2061
   81SOPE  H15Y 7449   1.891   0.341   5.194 -0.2684 -1.3833  0.3819
   81SOPE  C316 7450   1.963   0.201   5.054 -0.0246 -0.4405 -0.2136
   81SOPE  H16X 7451   1.941   0.279   4.977 -1.1760 -1.1060 -0.5878
   81SOPE  H16Y 7452   1.872   0.138   5.065  0.1311 -0.5626  0.4268
   81SOPE  C317 7453   2.085   0.124   5.007  0.2188  0.1721 -0.7657
   81SOPE  H17X 7454   2.070   0.084   4.904 -0.6359 -0.9252 -0.2288
   81SOPE  H17Y 7455   2.100   0.036   5.072 -0.6539  0.9910  0.5999
   81SOPE  C318 7456   2.219   0.195   5.010  0.4593  0.2200  0.7737
   81SOPE  H18X 7457   2.212   0.279   4.939 -2.6493 -0.3683  0.2155
   81SOPE  H18Y 7458   2.298   0.125   4.976 -0.1727 -0.5632  0.8904
   81SOPE  H18Z 7459   2.240   0.235   5.111 -0.2694  0.5497  0.8057
   82SOPE     N 7460   4.274   3.392   7.353  0.6851 -0.3534  0.0883
   82SOPE   HN1 7461   4.193   3.456   7.344  0.4226 -0.4383  1.6307
   82SOPE   HN2 7462   4.303   3.346   7.264  0.8392  1.3865 -0.8168
   82SOPE   HN3 7463   4.254   3.320   7.425 -0.2594  0.2021  0.3967
   82SOPE   C12 7464   4.393   3.477   7.380  0.4876  0.3587  0.0879
   82SOPE  H12A 7465   4.482   3.413   7.399  0.9274 -0.1532 -3.1287
   82SOPE  H12B 7466   4.381   3.529   7.478 -0.4614 -1.3181  0.9105
   82SOPE   C11 7467   4.424   3.585   7.269  0.3519  0.4540  0.1878
   82SOPE  H11A 7468   4.523   3.633   7.282  0.4010  0.6891 -0.9324
   82SOPE  H11B 7469   4.351   3.669   7.277 -0.1327 -0.0227  0.8854
   82SOPE     P 7470   4.535   3.488   7.054 -0.0214 -0.0599 -0.1415
   82SOPE   O13 7471   4.491   3.398   6.946 -0.1798 -0.6374 -0.1255
   82SOPE   O14 7472   4.641   3.439   7.146  0.2562  0.4068 -0.1603
   82SOPE   O12 7473   4.406   3.530   7.138  0.3864  0.4236  0.2431
   82SOPE   O11 7474   4.582   3.633   6.995 -0.1251 -0.5802  0.3856
   82SOPE    C1 7475   4.498   3.747   6.987  0.5685 -0.0536  0.3595
   82SOPE    HA 7476   4.490   3.806   7.081  1.6441  0.4923  0.1320
   82SOPE    HB 7477   4.395   3.713   6.961  0.6175  0.8201 -1.1074
   82SOPE    C2 7478   4.540   3.843   6.877 -0.4065 -0.4099  0.5777
   82SOPE    HS 7479   4.456   3.913   6.856 -1.7218 -1.6748  1.4004
   82SOPE   O21 7480   4.586   3.775   6.756 -0.0003 -0.2548 -0.6955
   82SOPE   C21 7481   4.486   3.711   6.684 -0.1309 -0.4884 -0.1749
   82SOPE   O22 7482   4.369   3.704   6.719 -0.2548  0.4703 -0.1939
   82SOPE   C22 7483   4.541   3.664   6.547  0.5922 -0.5175  0.0463
   82SOPE   H2R 7484   4.532   3.554   6.548 -1.0882 -0.4313  2.4054
   82SOPE   H2S 7485   4.650   3.684   6.551  0.6530 -0.8810  0.2436
   82SOPE    C3 7486   4.653   3.932   6.935 -0.1647  0.0736  0.0090
   82SOPE    HX 7487   4.743   3.874   6.964  1.4157  2.2499 -0.2859
   82SOPE    HY 7488   4.619   3.971   7.033 -2.5489 -1.4713 -0.1159
   82SOPE   O31 7489   4.699   4.038   6.844 -0.2850 -0.2267 -0.2208
   82SOPE   C31 7490   4.624   4.150   6.845  0.4949  0.1800 -0.0299
   82SOPE   O32 7491   4.517   4.168   6.898  0.4195  0.1320 -0.5494
   82SOPE   C32 7492   4.686   4.261   6.768  0.1291 -0.0284  0.1657
   82SOPE   H2X 7493   4.797   4.261   6.762  0.2725  3.1745  1.0152
   82SOPE   H2Y 7494   4.660   4.344   6.837 -2.1489 -1.6613  1.4202
   82SOPE   C23 7495   4.473   3.735   6.427  0.2002  0.1548 -0.7180
   82SOPE   H3R 7496   4.540   3.723   6.339 -1.0078  2.6575 -2.1078
   82SOPE   H3S 7497   4.473   3.842   6.456 -0.5110  0.3319 -1.3221
   82SOPE   C24 7498   4.328   3.683   6.401  0.4550  0.4614 -0.3625
   82SOPE   H4R 7499   4.342   3.590   6.342  1.9926 -0.5902  1.5430
   82SOPE   H4S 7500   4.278   3.636   6.489  1.1193 -1.4781 -0.9558
   82SOPE   C25 7501   4.240   3.788   6.329  0.1354 -0.7712  0.0479
   82SOPE   H5R 7502   4.295   3.826   6.240 -2.0466  0.7563 -0.7370
   82SOPE   H5S 7503   4.152   3.735   6.288 -1.0172 -0.1587  1.6518
   82SOPE   C26 7504   4.195   3.908   6.407 -0.3650 -0.0079 -0.6381
   82SOPE   H6R 7505   4.140   3.861   6.491 -1.7386 -0.2432 -1.6323
   82SOPE   H6S 7506   4.279   3.970   6.444  0.1638 -1.2263  0.2428
   82SOPE   C27 7507   4.104   3.981   6.311  0.3345 -0.2768  0.0895
   82SOPE   H7R 7508   4.157   3.994   6.214  0.4968 -2.9434 -0.2319
   82SOPE   H7S 7509   4.013   3.926   6.280 -1.2177  1.0061  2.1226
   82SOPE   C28 7510   4.076   4.126   6.356 -0.7635  0.7335 -0.2621
   82SOPE   H8R 7511   4.041   4.121   6.461 -3.4838 -1.2222 -1.1248
   82SOPE   H8S 7512   4.174   4.175   6.343 -2.0510  3.0039 -2.3453
   82SOPE   C29 7513   3.970   4.186   6.267 -0.0597  0.7349 -0.2131
   82SOPE   H91 7514   3.879   4.201   6.327 -1.0036 -2.0913 -0.8255
   82SOPE  C210 7515   3.969   4.218   6.133  0.0887 -0.3451 -0.1222
   82SOPE  H101 7516   3.879   4.264   6.090 -0.5284 -0.4376  1.0318
   82SOPE  C211 7517   4.080   4.198   6.035  0.7024  0.1459  0.2173
   82SOPE  H11R 7518   4.158   4.131   6.078  0.0940 -0.5596  0.2392
   82SOPE  H11S 7519   4.135   4.293   6.020  0.7269  0.1984  0.6273
   82SOPE  C212 7520   4.030   4.150   5.897  0.0737  0.2241  0.4758
   82SOPE  H12R 7521   3.953   4.070   5.897  0.3478 -0.1224 -1.8029
   82SOPE  H12S 7522   4.109   4.094   5.843 -2.7920 -4.0959  0.2744
   82SOPE  C213 7523   3.964   4.268   5.809 -0.3239  0.5009 -0.5687
   82SOPE  H13R 7524   4.025   4.361   5.814 -1.9281  1.5691 -0.3150
   82SOPE  H13S 7525   3.856   4.278   5.831  0.2080 -0.0880  2.8627
   82SOPE  C214 7526   3.975   4.241   5.661  0.0582 -0.3006 -0.0485
   82SOPE  H14R 7527   3.908   4.156   5.636 -0.8130  0.6237 -0.9391
   82SOPE  H14S 7528   4.080   4.211   5.639  1.6177  1.7455  3.7080
   82SOPE  C215 7529   3.941   4.359   5.583 -0.6583  0.4066  0.6541
   82SOPE  H15R 7530   4.006   4.445   5.610 -0.9558  0.0943  2.5042
   82SOPE  H15S 7531   3.838   4.379   5.620 -1.4125  1.8616 -1.9622
   82SOPE  C216 7532   3.934   4.333   5.428 -0.6019  0.8874 -0.0809
   82SOPE  H16R 7533   3.869   4.243   5.414 -0.4839  0.4702  1.8597
   82SOPE  H16S 7534   4.030   4.304   5.380 -1.0075 -0.8028  0.0657
   82SOPE  C217 7535   3.862   4.449   5.361  0.1831 -0.3579  0.7341
   82SOPE  H17R 7536   3.932   4.535   5.371  1.0911 -0.8253 -1.1061
   82SOPE  H17S 7537   3.772   4.485   5.415  0.0445  1.0123 -0.3305
   82SOPE  C218 7538   3.834   4.409   5.216  0.0757 -0.0591  0.1296
   82SOPE  H18R 7539   3.802   4.304   5.200  1.5190 -0.6640  1.1413
   82SOPE  H18S 7540   3.922   4.407   5.149 -1.6729  0.9829 -2.3971
   82SOPE  H18T 7541   3.758   4.478   5.171 -1.2382 -1.2745  0.4110
   82SOPE   C33 7542   4.614   4.279   6.630  0.0309 -0.0500 -0.1216
   82SOPE   H3X 7543   4.644   4.375   6.584  0.0596 -0.2334 -0.4911
   82SOPE   H3Y 7544   4.504   4.284   6.648 -0.1543 -2.9440  0.0146
   82SOPE   C34 7545   4.635   4.166   6.529  0.5762  0.7907 -0.0708
   82SOPE   H4X 7546   4.630   4.074   6.592 -0.3258  0.8796  0.0029
   82SOPE   H4Y 7547   4.739   4.172   6.493  0.5199  0.2544 -0.3314
   82SOPE   C35 7548   4.536   4.164   6.412  0.0863 -0.3850  0.4831
   82SOPE   H5X 7549   4.539   4.267   6.369  1.9419 -1.0704 -1.1731
   82SOPE   H5Y 7550   4.430   4.145   6.437  0.0244 -0.1791  0.3800
   82SOPE   C36 7551   4.575   4.085   6.283 -0.3988 -0.1337 -0.6018
   82SOPE   H6X 7552   4.591   3.981   6.319 -0.6284  0.7960  2.4829
   82SOPE   H6Y 7553   4.678   4.121   6.258 -0.5808  0.0252 -1.1469
   82SOPE   C37 7554   4.485   4.115   6.158 -0.2122 -0.3881 -0.4397
   82SOPE   H7X 7555   4.445   4.218   6.160 -0.5044 -0.5078  0.2947
   82SOPE   H7Y 7556   4.393   4.059   6.184 -0.3279 -0.5796 -1.2379
   82SOPE   C38 7557   4.546   4.084   6.023 -0.1038 -0.0904 -0.0889
   82SOPE   H8X 7558   4.571   3.976   6.016 -2.6433 -0.7382 -0.0319
   82SOPE   H8Y 7559   4.638   4.144   6.004 -0.1899  1.3279  3.2363
   82SOPE   C39 7560   4.451   4.118   5.910 -0.4488 -0.0509  0.4334
   82SOPE   H9X 7561   4.427   4.226   5.917 -3.7512 -0.4339 -2.2903
   82SOPE   H9Y 7562   4.350   4.071   5.912 -0.1689 -0.6638  0.5465
   82SOPE  C310 7563   4.510   4.092   5.775  0.1954 -0.5281  0.2005
   82SOPE  H10X 7564   4.522   3.985   5.746 -0.2059 -0.3843 -0.5218
   82SOPE  H10Y 7565   4.613   4.132   5.772 -0.2761  0.7703  0.7454
   82SOPE  C311 7566   4.425   4.151   5.662 -0.5131 -0.6221  0.3621
   82SOPE  H11X 7567   4.424   4.259   5.687 -0.8852 -0.2160 -1.2771
   82SOPE  H11Y 7568   4.322   4.110   5.663 -0.0144 -2.0074  2.6486
   82SOPE  C312 7569   4.486   4.139   5.522  0.2923  0.3149 -0.4982
   82SOPE  H12X 7570   4.465   4.042   5.473  0.5509  0.9713 -1.9623
   82SOPE  H12Y 7571   4.595   4.160   5.526  0.6140 -1.3139  0.9719
   82SOPE  C313 7572   4.427   4.243   5.434  0.6882  0.3711 -0.1780
   82SOPE  H13X 7573   4.426   4.347   5.471  2.9879  0.0012  1.0964
   82SOPE  H13Y 7574   4.320   4.213   5.434  1.1241 -1.3223 -0.0526
   82SOPE  C314 7575   4.484   4.252   5.295 -0.1067 -0.2697 -0.2887
   82SOPE  H14X 7576   4.482   4.160   5.233 -1.5587 -0.5626  0.1643
   82SOPE  H14Y 7577   4.592   4.276   5.304  0.1442 -0.4196 -2.2794
   82SOPE  C315 7578   4.417   4.361   5.205  0.1469 -0.8882  0.1233
   82SOPE  H15X 7579   4.308   4.340   5.209  0.1700 -0.8835  0.8203
   82SOPE  H15Y 7580   4.464   4.341   5.106  2.0572 -0.5526  0.9217
   82SOPE  C316 7581   4.453   4.501   5.250  0.0708  0.3428 -0.1871
   82SOPE  H16X 7582   4.563   4.500   5.235  0.0576  0.9575 -0.3751
   82SOPE  H16Y 7583   4.423   4.518   5.355  1.1918  0.1111  0.1845
   82SOPE  C317 7584   4.415   4.609   5.141  0.4283  0.2542 -0.3070
   82SOPE  H17X 7585   4.305   4.626   5.140  0.1979 -1.1242 -0.2499
   82SOPE  H17Y 7586   4.434   4.557   5.045 -1.0903  1.3328 -1.2317
   82SOPE  C318 7587   4.497   4.737   5.148 -0.7445 -1.0533  0.6989
   82SOPE  H18X 7588   4.457   4.798   5.065 -0.0544 -0.3083  0.9085
   82SOPE  H18Y 7589   4.607   4.734   5.132 -0.4474  0.8865  2.0283
   82SOPE  H18Z 7590   4.490   4.787   5.247 -0.1992 -1.2899  0.8619
   83SOPE     N 7591   4.405   3.327   2.185  0.3779 -0.0856  0.4613
   83SOPE   HN1 7592   4.351   3.256   2.239 -1.7232 -0.7067 -2.1990
   83SOPE   HN2 7593   4.439   3.402   2.248 -4.7797  2.8283  0.3204
   83SOPE   HN3 7594   4.329   3.381   2.139 -1.8188 -2.8065  0.5868
   83SOPE   C12 7595   4.513   3.286   2.081  0.3886 -0.2625 -0.7823
   83SOPE  H12A 7596   4.527   3.373   2.014 -1.1383 -0.1691 -1.0282
   83SOPE  H12B 7597   4.466   3.211   2.014 -0.6330 -1.4638  1.1980
   83SOPE   C11 7598   4.642   3.218   2.141 -0.1992 -0.7214  0.5942
   83SOPE  H11A 7599   4.723   3.288   2.171 -0.6616  0.1293 -0.1100
   83SOPE  H11B 7600   4.675   3.159   2.054 -2.2436  0.0781 -0.7888
   83SOPE     P 7601   4.684   3.059   2.347  0.2077 -0.0547 -0.4143
   83SOPE   O13 7602   4.823   3.098   2.316 -0.0603 -0.7187 -0.2697
   83SOPE   O14 7603   4.652   2.914   2.340 -0.1763  0.2605 -0.2292
   83SOPE   O12 7604   4.590   3.140   2.251 -0.0582  0.3431 -1.2039
   83SOPE   O11 7605   4.666   3.119   2.492 -0.3584  0.3296 -0.0354
   83SOPE    C1 7606   4.690   3.249   2.528 -0.1530 -0.0219  0.6104
   83SOPE    HA 7607   4.620   3.311   2.468  0.0286  1.2223  1.6471
   83SOPE    HB 7608   4.793   3.278   2.495 -0.0308 -1.3959 -0.3280
   83SOPE    C2 7609   4.683   3.272   2.679 -0.0499  0.3544  1.0447
   83SOPE    HS 7610   4.781   3.233   2.715  1.1144 -0.5631 -2.7189
   83SOPE   O21 7611   4.566   3.196   2.727 -0.7461  0.2485 -0.1824
   83SOPE   C21 7612   4.578   3.175   2.861  0.7078 -0.1497  0.2126
   83SOPE   O22 7613   4.683   3.169   2.918  0.3368  0.0953 -0.0464
   83SOPE   C22 7614   4.444   3.139   2.921 -0.1844 -0.0808  0.5658
   83SOPE   H2R 7615   4.427   3.029   2.918 -0.2891 -0.1221  1.9909
   83SOPE   H2S 7616   4.361   3.177   2.857  0.1543 -1.9588 -1.0873
   83SOPE    C3 7617   4.679   3.430   2.711  0.0640 -0.1143 -0.2008
   83SOPE    HX 7618   4.576   3.458   2.679 -0.8685 -1.5643  1.3988
   83SOPE    HY 7619   4.755   3.489   2.655  0.7600 -1.1733 -0.4075
   83SOPE   O31 7620   4.672   3.450   2.851 -0.2536  0.4256 -0.2650
   83SOPE   C31 7621   4.787   3.471   2.911 -0.2068  0.3849  0.2268
   83SOPE   O32 7622   4.896   3.479   2.857  0.4566  0.5093  0.0262
   83SOPE   C32 7623   4.768   3.455   3.063 -1.3132 -0.2235 -0.3920
   83SOPE   H2X 7624   4.807   3.353   3.086  1.3314 -0.0104 -3.3112
   83SOPE   H2Y 7625   4.659   3.451   3.082 -0.9762 -1.4426  1.5969
   83SOPE   C23 7626   4.421   3.197   3.065 -0.2120  0.8301 -0.0360
   83SOPE   H3R 7627   4.315   3.171   3.083 -0.5169 -0.1172 -2.7365
   83SOPE   H3S 7628   4.444   3.306   3.064  0.5034  0.6832  0.1375
   83SOPE   C24 7629   4.497   3.125   3.181  0.3046  0.0139  0.3517
   83SOPE   H4R 7630   4.484   3.017   3.160  0.1342  0.4582 -2.1457
   83SOPE   H4S 7631   4.604   3.155   3.175 -0.2261  2.0556  0.2044
   83SOPE   C25 7632   4.447   3.180   3.316 -0.1558 -0.1856  0.0364
   83SOPE   H5R 7633   4.446   3.291   3.326 -2.2044 -0.1438 -0.2595
   83SOPE   H5S 7634   4.343   3.148   3.336 -0.2868  0.6295  0.7554
   83SOPE   C26 7635   4.537   3.126   3.432  0.4061 -0.5782  0.8600
   83SOPE   H6R 7636   4.544   3.015   3.423 -1.2265 -0.5481 -1.4655
   83SOPE   H6S 7637   4.641   3.160   3.413  0.2722 -0.7046 -0.1246
   83SOPE   C27 7638   4.483   3.165   3.566  0.0234  0.3950  0.4132
   83SOPE   H7R 7639   4.497   3.275   3.571 -0.6939  0.4651  0.9813
   83SOPE   H7S 7640   4.373   3.150   3.568 -0.3313  2.6366 -0.1357
   83SOPE   C28 7641   4.548   3.084   3.686  0.0476  0.2082  0.0541
   83SOPE   H8R 7642   4.494   3.118   3.777  0.9651  0.1493  0.6314
   83SOPE   H8S 7643   4.531   2.974   3.676 -0.2530  0.3011 -0.5418
   83SOPE   C29 7644   4.701   3.098   3.693 -0.2536  0.2479  0.6740
   83SOPE   H91 7645   4.739   3.189   3.644  0.1769 -0.5209 -0.4663
   83SOPE  C210 7646   4.794   3.005   3.730  0.0496  0.1495  0.4503
   83SOPE  H101 7647   4.901   3.032   3.722  0.4104 -1.6050 -1.8966
   83SOPE  C211 7648   4.784   2.866   3.791 -0.3799 -0.9611 -0.2093
   83SOPE  H11R 7649   4.876   2.805   3.782 -0.2065 -0.9939  1.4822
   83SOPE  H11S 7650   4.711   2.807   3.732 -1.0144  0.5751 -1.0426
   83SOPE  C212 7651   4.741   2.873   3.939 -0.3750  0.0573 -0.0137
   83SOPE  H12R 7652   4.726   2.769   3.977  2.0466 -0.6316 -0.7510
   83SOPE  H12S 7653   4.644   2.927   3.931 -1.4958 -1.9663 -1.0873
   83SOPE  C213 7654   4.834   2.951   4.038  0.3628  0.2360 -0.6107
   83SOPE  H13R 7655   4.810   3.060   4.043  0.2993  0.2079 -0.3055
   83SOPE  H13S 7656   4.930   2.940   3.984 -0.1701  1.3713 -1.8678
   83SOPE  C214 7657   4.833   2.887   4.179 -0.4176  0.3725  1.0694
   83SOPE  H14R 7658   4.918   2.938   4.230  0.7454 -1.1431  0.7090
   83SOPE  H14S 7659   4.851   2.779   4.166  0.4676  0.8844 -3.5036
   83SOPE  C215 7660   4.700   2.911   4.253 -0.7848  0.4699  0.2934
   83SOPE  H15R 7661   4.628   2.842   4.203 -0.1444 -0.6163  0.8260
   83SOPE  H15S 7662   4.670   3.018   4.248  0.3973  0.8994  1.6900
   83SOPE  C216 7663   4.716   2.876   4.396  0.3580 -0.3215 -0.3848
   83SOPE  H16R 7664   4.797   2.936   4.442  1.3751 -0.0140 -2.4542
   83SOPE  H16S 7665   4.749   2.771   4.416  1.0705  0.0581  0.4587
   83SOPE  C217 7666   4.591   2.878   4.480 -0.0096 -0.5042  0.0457
   83SOPE  H17R 7667   4.521   2.804   4.435 -0.1505 -0.0320 -0.5260
   83SOPE  H17S 7668   4.539   2.974   4.458 -2.0521 -1.8389 -1.3288
   83SOPE  C218 7669   4.588   2.869   4.635  0.1148  0.0459 -0.5531
   83SOPE  H18R 7670   4.622   2.767   4.661  0.0193  0.3368  0.8047
   83SOPE  H18S 7671   4.484   2.881   4.672  0.9502  3.2249  1.2115
   83SOPE  H18T 7672   4.655   2.950   4.673 -0.5023  1.2617 -1.9428
   83SOPE   C33 7673   4.837   3.570   3.145 -1.4077  0.4900  0.7846
   83SOPE   H3X 7674   4.792   3.667   3.112 -0.0788  1.0302  0.4836
   83SOPE   H3Y 7675   4.947   3.570   3.126 -1.5266  1.3940  0.0154
   83SOPE   C34 7676   4.815   3.545   3.299 -0.3896 -0.6481 -0.0285
   83SOPE   H4X 7677   4.854   3.445   3.327  0.9613 -0.3803 -0.8471
   83SOPE   H4Y 7678   4.708   3.550   3.328 -0.1483 -2.8679  1.4838
   83SOPE   C35 7679   4.875   3.650   3.391  0.2749 -0.5722  0.5889
   83SOPE   H5X 7680   4.821   3.746   3.375  1.7865  0.0564 -1.1465
   83SOPE   H5Y 7681   4.979   3.661   3.353 -0.1517 -0.3376 -0.5394
   83SOPE   C36 7682   4.883   3.606   3.541 -0.1068 -0.4420 -0.0022
   83SOPE   H6X 7683   4.938   3.684   3.597 -1.8902  2.4645 -1.9508
   83SOPE   H6Y 7684   4.944   3.514   3.544  0.4692 -0.3232 -3.4903
   83SOPE   C37 7685   4.751   3.580   3.604 -0.3995  0.1180  0.9826
   83SOPE   H7X 7686   4.712   3.490   3.553  0.7712  0.6690 -1.0195
   83SOPE   H7Y 7687   4.680   3.661   3.577 -0.4737 -0.0800  0.5816
   83SOPE   C38 7688   4.766   3.555   3.749 -0.2146 -0.5793 -0.6129
   83SOPE   H8X 7689   4.840   3.628   3.789 -1.8257  0.7452  0.0661
   83SOPE   H8Y 7690   4.804   3.453   3.771  0.9797 -0.0503 -0.1259
   83SOPE   C39 7691   4.627   3.567   3.817  0.0268 -0.5578 -0.0353
   83SOPE   H9X 7692   4.550   3.496   3.779 -0.1977 -1.2558  1.6236
   83SOPE   H9Y 7693   4.570   3.659   3.792 -1.7194 -1.0738  1.7613
   83SOPE  C310 7694   4.635   3.547   3.965  0.6042  0.6478  0.0819
   83SOPE  H10X 7695   4.532   3.565   4.002 -0.0107 -1.4174 -0.5467
   83SOPE  H10Y 7696   4.698   3.622   4.018  1.4354  0.4029 -0.5444
   83SOPE  C311 7697   4.694   3.408   4.007  0.6853 -0.3410  0.0505
   83SOPE  H11X 7698   4.804   3.424   4.006  0.6833 -0.3205  0.2073
   83SOPE  H11Y 7699   4.677   3.332   3.927  1.2305  0.8588 -1.2517
   83SOPE  C312 7700   4.645   3.365   4.148 -0.5132 -0.1514  0.3304
   83SOPE  H12X 7701   4.686   3.263   4.168 -1.2671 -0.8424 -1.4517
   83SOPE  H12Y 7702   4.535   3.349   4.150 -0.7204  0.9227 -1.1309
   83SOPE  C313 7703   4.711   3.442   4.265 -0.7029 -0.4184  0.2771
   83SOPE  H13X 7704   4.661   3.541   4.259 -2.3300 -1.2216 -0.0266
   83SOPE  H13Y 7705   4.819   3.460   4.248 -0.6856 -2.1603 -1.8516
   83SOPE  C314 7706   4.663   3.390   4.399  0.3893 -0.1646  0.1907
   83SOPE  H14X 7707   4.716   3.293   4.406  0.7815  0.0571  0.2953
   83SOPE  H14Y 7708   4.553   3.377   4.390  0.4147 -2.3646  2.0952
   83SOPE  C315 7709   4.698   3.478   4.516  0.1280  0.5038  0.2084
   83SOPE  H15X 7710   4.655   3.581   4.514  0.6061  0.7031 -0.1779
   83SOPE  H15Y 7711   4.809   3.488   4.512  0.0532  1.0614 -1.0003
   83SOPE  C316 7712   4.661   3.405   4.651 -0.4096  0.7361  0.1654
   83SOPE  H16X 7713   4.694   3.455   4.744 -2.8986  0.4900  1.2534
   83SOPE  H16Y 7714   4.704   3.303   4.638 -2.3974  0.1933 -3.7530
   83SOPE  C317 7715   4.510   3.381   4.669  0.2869  0.7917  0.7938
   83SOPE  H17X 7716   4.484   3.306   4.592  1.8850  1.0833 -0.0815
   83SOPE  H17Y 7717   4.458   3.474   4.635 -0.1479 -0.3230 -1.7979
   83SOPE  C318 7718   4.474   3.341   4.806 -0.3850 -0.4341  0.2890
   83SOPE  H18X 7719   4.501   3.407   4.891  3.0044 -2.1613  0.6995
   83SOPE  H18Y 7720   4.528   3.247   4.830  1.8837  1.0282  1.2580
   83SOPE  H18Z 7721   4.366   3.315   4.812 -0.2413 -1.4292 -1.0588
   84SOPE     N 7722   2.842   2.426   2.295  0.2884 -0.8141 -0.4349
   84SOPE   HN1 7723   2.887   2.334   2.316 -1.5752 -1.6931 -0.1030
   84SOPE   HN2 7724   2.859   2.489   2.376 -1.8690  2.1056 -2.0543
   84SOPE   HN3 7725   2.744   2.420   2.262 -0.0073 -0.1511  0.3032
   84SOPE   C12 7726   2.913   2.454   2.165  0.0931 -0.3738  0.1557
   84SOPE  H12A 7727   2.930   2.564   2.172 -2.1835  0.1207 -0.9956
   84SOPE  H12B 7728   2.844   2.431   2.081 -0.5273  0.3362  0.4589
   84SOPE   C11 7729   3.045   2.372   2.141  0.4556  0.9314 -0.5825
   84SOPE  H11A 7730   3.089   2.401   2.043 -0.0718 -0.2482 -1.1790
   84SOPE  H11B 7731   3.021   2.269   2.107  0.6483  1.0370 -1.0470
   84SOPE     P 7732   3.151   2.267   2.368  0.2235  0.2500  0.3250
   84SOPE   O13 7733   3.222   2.327   2.484 -0.3529 -0.2564  0.2723
   84SOPE   O14 7734   3.216   2.141   2.314  0.0457  0.2307  0.1181
   84SOPE   O12 7735   3.136   2.372   2.248 -0.0034 -0.5747 -0.5555
   84SOPE   O11 7736   3.002   2.228   2.410 -0.0700 -0.3122 -0.1100
   84SOPE    C1 7737   2.974   2.117   2.496 -0.0881 -0.5143  0.5846
   84SOPE    HA 7738   3.011   2.027   2.443  0.4354 -0.3009  0.5839
   84SOPE    HB 7739   2.864   2.104   2.500 -0.5207  1.3341 -2.1664
   84SOPE    C2 7740   3.036   2.128   2.639 -0.0720  0.0654 -0.2966
   84SOPE    HS 7741   3.145   2.151   2.637  0.1175 -0.6653  0.6932
   84SOPE   O21 7742   3.031   2.000   2.711 -0.2811 -0.2637 -0.0512
   84SOPE   C21 7743   3.098   1.897   2.675  0.5582  0.1339  0.0555
   84SOPE   O22 7744   3.192   1.902   2.600  0.4190 -0.1478 -0.2580
   84SOPE   C22 7745   3.052   1.778   2.755 -0.6299 -0.8750 -0.2427
   84SOPE   H2R 7746   3.024   1.697   2.685 -0.2453 -1.2266  0.0039
   84SOPE   H2S 7747   2.967   1.808   2.820 -0.0264  1.7631 -0.5697
   84SOPE    C3 7748   2.973   2.241   2.722  0.3705 -0.3465  0.2440
   84SOPE    HX 7749   2.862   2.242   2.731  0.3028  3.0926  0.5197
   84SOPE    HY 7750   2.987   2.335   2.664  0.4076 -0.9075 -0.6784
   84SOPE   O31 7751   3.031   2.253   2.856  0.5949  0.8046  0.5067
   84SOPE   C31 7752   3.113   2.352   2.879  0.0144  0.2435  0.0835
   84SOPE   O32 7753   3.142   2.446   2.805 -0.3526  0.0197 -0.1926
   84SOPE   C32 7754   3.186   2.328   3.013  0.0027  0.1519 -0.4516
   84SOPE   H2X 7755   3.283   2.380   3.000 -1.1816  2.5198 -0.3671
   84SOPE   H2Y 7756   3.191   2.221   3.042 -2.1582  0.4463  1.2610
   84SOPE   C23 7757   3.171   1.731   2.850  0.2543 -0.2520  0.7380
   84SOPE   H3R 7758   3.265   1.710   2.794  0.4533  1.3387  0.4222
   84SOPE   H3S 7759   3.147   1.632   2.894 -1.3458 -0.3123 -0.1811
   84SOPE   C24 7760   3.202   1.835   2.954  0.1569 -0.7401  0.6323
   84SOPE   H4R 7761   3.244   1.926   2.907 -0.7675  1.1263  3.1855
   84SOPE   H4S 7762   3.104   1.865   2.998  0.0752 -1.0656  0.6774
   84SOPE   C25 7763   3.286   1.800   3.072  0.3646 -0.3454 -0.4543
   84SOPE   H5R 7764   3.241   1.714   3.125 -0.5051 -0.3576 -1.1934
   84SOPE   H5S 7765   3.383   1.771   3.025  0.7405  0.7114 -0.3623
   84SOPE   C26 7766   3.308   1.916   3.176 -0.2999  0.0695  0.2798
   84SOPE   H6R 7767   3.304   2.017   3.130 -0.2214 -0.3138 -0.5846
   84SOPE   H6S 7768   3.225   1.920   3.249  1.1459  0.1333  1.9814
   84SOPE   C27 7769   3.453   1.906   3.249 -0.2589  0.3998  0.3267
   84SOPE   H7R 7770   3.454   1.815   3.313 -0.2219 -1.0241 -1.6116
   84SOPE   H7S 7771   3.528   1.888   3.169  1.9790  2.5551  1.8163
   84SOPE   C28 7772   3.509   2.033   3.324 -0.0974  0.0607  0.2893
   84SOPE   H8R 7773   3.615   2.001   3.338  0.3920  0.7924 -1.4640
   84SOPE   H8S 7774   3.520   2.115   3.250 -1.8740  0.8072  0.8154
   84SOPE   C29 7775   3.420   2.089   3.436 -0.7037  0.4310  0.6491
   84SOPE   H91 7776   3.326   2.114   3.385  0.4047  0.4577 -1.5236
   84SOPE  C210 7777   3.444   2.101   3.566  0.2058  0.2587 -0.2123
   84SOPE  H101 7778   3.380   2.168   3.626 -1.6887 -3.1360  1.9070
   84SOPE  C211 7779   3.577   2.053   3.624 -0.4219 -0.6043  0.1403
   84SOPE  H11R 7780   3.667   2.070   3.561  0.4181 -0.2674  1.3889
   84SOPE  H11S 7781   3.568   1.946   3.651 -1.6249 -0.3852  0.6742
   84SOPE  C212 7782   3.616   2.120   3.765 -0.3048  0.3462 -0.3336
   84SOPE  H12R 7783   3.635   2.226   3.740  0.3369  0.1476 -0.7032
   84SOPE  H12S 7784   3.709   2.069   3.801 -0.5724 -1.4686 -2.0461
   84SOPE  C213 7785   3.506   2.115   3.879  0.5085  0.1226  0.1584
   84SOPE  H13R 7786   3.450   2.021   3.864  0.0581  0.2296  1.1088
   84SOPE  H13S 7787   3.438   2.202   3.865  2.8738  2.1563  0.4494
   84SOPE  C214 7788   3.574   2.128   4.017 -0.4158  0.5078 -0.0128
   84SOPE  H14R 7789   3.644   2.214   4.020 -0.6065  0.6679 -0.1007
   84SOPE  H14S 7790   3.638   2.038   4.021 -3.7905 -2.0676  2.4348
   84SOPE  C215 7791   3.476   2.132   4.140 -0.6579  0.1009  0.1253
   84SOPE  H15R 7792   3.403   2.047   4.145  1.9797 -2.2315  2.5037
   84SOPE  H15S 7793   3.418   2.226   4.132 -0.0916  0.3865 -0.7933
   84SOPE  C216 7794   3.547   2.125   4.275  0.4204  0.1382 -0.2556
   84SOPE  H16R 7795   3.620   2.207   4.292 -0.1562  0.4134  1.0701
   84SOPE  H16S 7796   3.620   2.042   4.280  1.5821  1.1158 -0.5230
   84SOPE  C217 7797   3.450   2.080   4.386 -0.4740 -1.1906 -0.3214
   84SOPE  H17R 7798   3.515   2.062   4.474  0.9745  1.1701 -0.8198
   84SOPE  H17S 7799   3.399   1.986   4.355  0.5515 -2.2416  1.0552
   84SOPE  C218 7800   3.351   2.188   4.424 -0.3451 -0.2076 -0.1834
   84SOPE  H18R 7801   3.398   2.288   4.424 -0.3657 -0.1909 -0.7952
   84SOPE  H18S 7802   3.303   2.171   4.523 -1.7773 -1.1806 -1.0160
   84SOPE  H18T 7803   3.266   2.187   4.353 -2.1526  0.0114  1.8744
   84SOPE   C33 7804   3.118   2.393   3.132 -0.0372  0.5504  0.0657
   84SOPE   H3X 7805   3.011   2.371   3.112  0.6062 -1.3048 -1.6827
   84SOPE   H3Y 7806   3.141   2.502   3.136  0.3601  0.4468  3.2384
   84SOPE   C34 7807   3.152   2.328   3.267  0.1071 -0.2727 -0.9253
   84SOPE   H4X 7808   3.260   2.341   3.289 -0.2077  1.0926 -0.0594
   84SOPE   H4Y 7809   3.129   2.220   3.272 -3.3397  0.3777  0.1464
   84SOPE   C35 7810   3.093   2.398   3.381 -0.2155  0.1584 -0.4059
   84SOPE   H5X 7811   2.984   2.375   3.371 -0.0509 -1.3731  0.7973
   84SOPE   H5Y 7812   3.106   2.508   3.371 -0.9094  0.1337 -1.9180
   84SOPE   C36 7813   3.152   2.344   3.517 -0.3775  0.1458 -0.4346
   84SOPE   H6X 7814   3.262   2.356   3.525 -0.3208 -1.3165  2.0148
   84SOPE   H6Y 7815   3.137   2.235   3.532 -0.4938  0.1340 -0.6294
   84SOPE   C37 7816   3.081   2.400   3.635  0.0550 -0.6513  0.2856
   84SOPE   H7X 7817   2.971   2.387   3.625  0.1389 -2.5521  1.3545
   84SOPE   H7Y 7818   3.101   2.509   3.632 -1.3667 -0.2707  2.4382
   84SOPE   C38 7819   3.124   2.353   3.775  0.4331  0.3963 -0.8073
   84SOPE   H8X 7820   3.225   2.383   3.811  0.1439  1.1271 -0.5868
   84SOPE   H8Y 7821   3.115   2.243   3.762 -1.8541  0.6045 -1.4248
   84SOPE   C39 7822   3.019   2.387   3.885  0.1529  0.5766 -0.0101
   84SOPE   H9X 7823   2.925   2.344   3.843  0.8168  0.7718 -1.8107
   84SOPE   H9Y 7824   3.008   2.496   3.897 -0.4735  0.5462 -0.2888
   84SOPE  C310 7825   3.062   2.340   4.025  0.1322  0.2575 -0.3302
   84SOPE  H10X 7826   3.166   2.370   4.050 -0.4020  1.7788  0.1588
   84SOPE  H10Y 7827   3.065   2.229   4.028 -2.4155  0.1027 -1.3939
   84SOPE  C311 7828   2.970   2.390   4.143  0.0557 -0.1828 -0.2433
   84SOPE  H11X 7829   2.862   2.368   4.128 -0.5961  1.7695  1.2787
   84SOPE  H11Y 7830   2.984   2.499   4.151 -1.3054  0.0907 -1.2394
   84SOPE  C312 7831   3.007   2.312   4.270  0.5460 -0.5602  0.7126
   84SOPE  H12X 7832   3.112   2.338   4.293  0.3031  0.0641  1.1504
   84SOPE  H12Y 7833   3.000   2.206   4.239  1.9522 -0.2419 -0.8023
   84SOPE  C313 7834   2.916   2.343   4.387 -0.4680 -0.6855 -0.1972
   84SOPE  H13X 7835   2.814   2.305   4.365 -0.8780 -0.0961  0.6153
   84SOPE  H13Y 7836   2.905   2.450   4.417  2.7778 -0.6647  1.3272
   84SOPE  C314 7837   2.980   2.257   4.501  0.8522  0.2190  0.1984
   84SOPE  H14X 7838   3.089   2.276   4.509  0.5475  1.2809  2.8587
   84SOPE  H14Y 7839   2.969   2.147   4.490 -1.7228  0.2759  1.5353
   84SOPE  C315 7840   2.920   2.297   4.636 -0.1372 -0.1974  0.7700
   84SOPE  H15X 7841   2.811   2.279   4.642 -0.5043  0.8252 -1.4742
   84SOPE  H15Y 7842   2.928   2.408   4.635 -0.4671 -0.0506  4.1009
   84SOPE  C316 7843   3.012   2.249   4.750 -0.0197 -0.4638 -0.6465
   84SOPE  H16X 7844   3.118   2.283   4.752 -0.4316  0.8233 -0.0512
   84SOPE  H16Y 7845   3.018   2.138   4.745 -0.4842 -0.5456  0.3635
   84SOPE  C317 7846   2.942   2.263   4.890  0.6887 -0.3931 -0.2202
   84SOPE  H17X 7847   2.849   2.203   4.891 -0.8316  1.8537  0.0360
   84SOPE  H17Y 7848   2.899   2.365   4.887 -1.3538 -1.2107 -0.3579
   84SOPE  C318 7849   3.044   2.251   5.004  0.3228 -0.0122 -0.0406
   84SOPE  H18X 7850   2.992   2.294   5.093 -1.2314  2.0052 -1.8195
   84SOPE  H18Y 7851   3.144   2.298   4.991  1.1583 -0.6215  3.2661
   84SOPE  H18Z 7852   3.058   2.142   5.020 -0.0859  0.0729  0.9424
   85SOPE     N 7853   0.037   3.104   2.460 -0.1050  0.0803 -0.1641
   85SOPE   HN1 7854  -0.014   3.142   2.542 -1.2610  1.7600 -1.5850
   85SOPE   HN2 7855  -0.001   3.010   2.437 -1.4920  0.8430 -1.1059
   85SOPE   HN3 7856   0.137   3.095   2.488  0.1932 -0.3382 -1.2830
   85SOPE   C12 7857   0.018   3.207   2.353 -0.1865  0.0646  0.0475
   85SOPE  H12A 7858  -0.091   3.224   2.343 -0.3784 -0.8252  0.5688
   85SOPE  H12B 7859   0.049   3.160   2.258 -0.6124 -1.2565  0.5355
   85SOPE   C11 7860   0.096   3.343   2.377  0.4100  0.8652 -0.0431
   85SOPE  H11A 7861   0.099   3.405   2.285  1.7400  0.3445 -0.3723
   85SOPE  H11B 7862   0.198   3.303   2.395  0.2049  0.1526 -0.4188
   85SOPE     P 7863  -0.030   3.546   2.479 -0.5529 -0.0219  0.1708
   85SOPE   O13 7864  -0.166   3.533   2.519  0.1261 -0.1899 -0.1691
   85SOPE   O14 7865  -0.011   3.608   2.346  0.4922  0.4710  0.1171
   85SOPE   O12 7866   0.040   3.413   2.488  0.6774  0.2883  0.1473
   85SOPE   O11 7867   0.050   3.636   2.585 -0.0269 -0.1939 -0.3200
   85SOPE    C1 7868   0.158   3.595   2.667 -0.0587  0.1844 -0.5702
   85SOPE    HA 7869   0.186   3.685   2.724  0.7816 -0.3422 -0.1327
   85SOPE    HB 7870   0.250   3.578   2.607 -0.0521  0.2310 -0.5725
   85SOPE    C2 7871   0.135   3.486   2.770 -0.4510  0.4957  0.0318
   85SOPE    HS 7872   0.092   3.398   2.718  2.4747  0.4786 -2.6948
   85SOPE   O21 7873   0.059   3.540   2.883 -0.5344 -0.3481  0.7213
   85SOPE   C21 7874  -0.010   3.449   2.937  0.4716  0.0797 -0.4755
   85SOPE   O22 7875  -0.024   3.327   2.906  0.0087 -0.5224 -0.3599
   85SOPE   C22 7876  -0.085   3.516   3.061  0.4882  0.1448  0.0215
   85SOPE   H2R 7877  -0.179   3.559   3.020  1.2171  0.4349 -1.4047
   85SOPE   H2S 7878  -0.017   3.596   3.096  0.5932 -0.7102  1.9158
   85SOPE    C3 7879   0.280   3.451   2.815 -0.7171  0.0048  0.1070
   85SOPE    HX 7880   0.337   3.544   2.833 -0.0510 -0.1610 -1.0396
   85SOPE    HY 7881   0.327   3.409   2.723 -0.8331 -1.0817  0.5296
   85SOPE   O31 7882   0.280   3.359   2.929  0.0103 -0.6172  0.3808
   85SOPE   C31 7883   0.250   3.228   2.906  0.3769  0.2744  0.4411
   85SOPE   O32 7884   0.226   3.183   2.798  0.5152  0.1676 -0.8921
   85SOPE   C32 7885   0.253   3.160   3.040  0.4566  0.5431 -0.1163
   85SOPE   H2X 7886   0.270   3.056   3.004 -3.1891  1.2206 -4.8665
   85SOPE   H2Y 7887   0.149   3.164   3.078  0.3377 -0.9896 -0.2126
   85SOPE   C23 7888  -0.115   3.415   3.174  0.2819  0.0884  0.1058
   85SOPE   H3R 7889  -0.031   3.379   3.237 -1.5538 -1.1657  1.9626
   85SOPE   H3S 7890  -0.164   3.323   3.134 -0.9840  0.5211  0.6007
   85SOPE   C24 7891  -0.213   3.475   3.269  0.0491 -0.8614 -1.0602
   85SOPE   H4R 7892  -0.162   3.568   3.303 -0.7384 -0.6784 -0.3549
   85SOPE   H4S 7893  -0.307   3.501   3.216 -0.6478 -1.6861 -0.2570
   85SOPE   C25 7894  -0.237   3.399   3.394 -0.0094 -0.1692  0.2477
   85SOPE   H5R 7895  -0.280   3.300   3.369 -0.5319  0.7687 -2.9454
   85SOPE   H5S 7896  -0.138   3.380   3.441  0.2638  0.8382  0.1000
   85SOPE   C26 7897  -0.337   3.458   3.496  0.5157  0.1072  0.2354
   85SOPE   H6R 7898  -0.304   3.548   3.552  1.9593  0.1880 -0.6826
   85SOPE   H6S 7899  -0.434   3.481   3.448 -0.6945 -2.6557  1.1953
   85SOPE   C27 7900  -0.376   3.356   3.611 -0.1731  0.7625  0.0411
   85SOPE   H7R 7901  -0.463   3.294   3.583 -1.0803  1.9464  0.1850
   85SOPE   H7S 7902  -0.287   3.292   3.632 -0.3165  0.4639 -0.2487
   85SOPE   C28 7903  -0.432   3.424   3.738 -0.0716  0.8385  0.3161
   85SOPE   H8R 7904  -0.489   3.514   3.708  0.7285  0.6983 -1.7436
   85SOPE   H8S 7905  -0.509   3.357   3.784 -0.9513  2.2571  0.9686
   85SOPE   C29 7906  -0.318   3.452   3.837  0.2056 -0.3225 -0.0767
   85SOPE   H91 7907  -0.242   3.521   3.797  0.9149 -0.4575  1.0121
   85SOPE  C210 7908  -0.294   3.406   3.961  0.1223 -0.4322 -0.6841
   85SOPE  H101 7909  -0.202   3.431   4.016  0.6796 -0.4091 -1.6136
   85SOPE  C211 7910  -0.386   3.312   4.036 -0.2839 -0.1479 -0.0743
   85SOPE  H11R 7911  -0.325   3.222   4.058  0.8733  0.3646 -1.0367
   85SOPE  H11S 7912  -0.466   3.268   3.973 -2.4194  1.4738  1.3554
   85SOPE  C212 7913  -0.439   3.378   4.161 -0.4652 -0.0168 -0.5373
   85SOPE  H12R 7914  -0.370   3.427   4.233 -2.1245  0.3176  0.8977
   85SOPE  H12S 7915  -0.486   3.302   4.228  0.3156  0.3574  0.4523
   85SOPE  C213 7916  -0.546   3.486   4.139  0.4978 -0.0275  0.4419
   85SOPE  H13R 7917  -0.631   3.439   4.086  0.5431 -1.1379  1.3315
   85SOPE  H13S 7918  -0.502   3.555   4.063 -0.8290 -1.1588 -1.4407
   85SOPE  C214 7919  -0.603   3.560   4.264  0.7657 -0.4678 -0.8122
   85SOPE  H14R 7920  -0.667   3.635   4.214  0.6761 -1.1901 -1.8142
   85SOPE  H14S 7921  -0.509   3.605   4.304  1.9148 -3.0022 -0.4307
   85SOPE  C215 7922  -0.685   3.476   4.371 -0.3479  0.3472  0.4901
   85SOPE  H15R 7923  -0.626   3.392   4.413  0.9982  0.0862 -1.7500
   85SOPE  H15S 7924  -0.763   3.427   4.308  2.1413 -4.3051  0.5700
   85SOPE  C216 7925  -0.728   3.550   4.493 -0.7102 -0.0582  0.4973
   85SOPE  H16R 7926  -0.821   3.509   4.538 -1.6502 -2.0593 -2.9025
   85SOPE  H16S 7927  -0.752   3.658   4.477 -1.0518  0.1330  2.1171
   85SOPE  C217 7928  -0.630   3.534   4.607 -0.6470  0.3966 -0.1227
   85SOPE  H17R 7929  -0.625   3.425   4.629  3.3474  0.6326  0.8781
   85SOPE  H17S 7930  -0.674   3.578   4.698  1.2785  2.0484  0.0794
   85SOPE  C218 7931  -0.494   3.601   4.611  0.4612 -0.5451 -0.1957
   85SOPE  H18R 7932  -0.425   3.555   4.537  0.6385 -0.4243 -0.1033
   85SOPE  H18S 7933  -0.444   3.594   4.710  1.9649 -2.3825 -1.0026
   85SOPE  H18T 7934  -0.496   3.710   4.594 -2.3084 -0.6435 -0.9860
   85SOPE   C33 7935   0.349   3.211   3.145 -1.2314  0.4050 -0.8930
   85SOPE   H3X 7936   0.422   3.288   3.111 -0.9995  0.4839 -0.2403
   85SOPE   H3Y 7937   0.411   3.123   3.172 -2.5877 -0.1405  0.5989
   85SOPE   C34 7938   0.273   3.267   3.264  0.8034  0.1063 -0.2546
   85SOPE   H4X 7939   0.168   3.232   3.259  1.4260 -1.6520 -2.7319
   85SOPE   H4Y 7940   0.267   3.377   3.273  1.6586  0.0266  1.8815
   85SOPE   C35 7941   0.322   3.202   3.399 -0.5175 -0.3446  0.2570
   85SOPE   H5X 7942   0.418   3.254   3.417 -0.1396 -0.7119 -0.6456
   85SOPE   H5Y 7943   0.361   3.100   3.383 -1.1464 -0.3383 -1.6103
   85SOPE   C36 7944   0.235   3.199   3.522 -0.0400  0.2880  0.5124
   85SOPE   H6X 7945   0.167   3.111   3.530 -0.3412  0.2650 -1.7225
   85SOPE   H6Y 7946   0.162   3.282   3.508 -1.4520 -0.8764  0.6387
   85SOPE   C37 7947   0.310   3.224   3.648 -0.5124  0.3894 -0.1396
   85SOPE   H7X 7948   0.370   3.312   3.619 -0.7270  0.3405 -0.7525
   85SOPE   H7Y 7949   0.385   3.147   3.677 -1.7042 -1.2306 -1.1997
   85SOPE   C38 7950   0.221   3.265   3.770 -0.2393  1.1742  0.1000
   85SOPE   H8X 7951   0.133   3.326   3.739 -1.4273 -0.4624  0.1160
   85SOPE   H8Y 7952   0.283   3.312   3.850  2.1986  1.7392 -2.0018
   85SOPE   C39 7953   0.153   3.144   3.834 -0.5143  0.0391 -0.6156
   85SOPE   H9X 7954   0.231   3.079   3.880  0.2836 -0.4802 -2.6143
   85SOPE   H9Y 7955   0.104   3.070   3.767 -1.3913  0.0189  0.0245
   85SOPE  C310 7956   0.061   3.191   3.951  0.3028  0.3737 -0.8561
   85SOPE  H10X 7957  -0.040   3.211   3.910  0.4482  0.0064 -1.4089
   85SOPE  H10Y 7958   0.098   3.284   3.999 -0.6031  1.5686 -2.3780
   85SOPE  C311 7959   0.020   3.093   4.059  0.3712 -0.2443  0.6257
   85SOPE  H11X 7960   0.116   3.047   4.090  0.1516 -0.9801  0.2261
   85SOPE  H11Y 7961  -0.038   3.008   4.019  0.4827  0.2145 -0.5463
   85SOPE  C312 7962  -0.055   3.158   4.177 -0.4035 -0.1951 -0.8379
   85SOPE  H12X 7963  -0.146   3.211   4.143 -3.1711 -0.3268  5.0262
   85SOPE  H12Y 7964   0.013   3.238   4.214 -0.1806  0.1073 -1.8876
   85SOPE  C313 7965  -0.082   3.057   4.299  0.1947  0.7299  0.6154
   85SOPE  H13X 7966   0.021   3.044   4.340  0.8822  1.3565 -0.8584
   85SOPE  H13Y 7967  -0.118   2.963   4.253  3.2893 -1.0998  1.6721
   85SOPE  C314 7968  -0.168   3.117   4.407  0.1964  0.2993 -0.0840
   85SOPE  H14X 7969  -0.166   3.062   4.503 -0.0594  0.6159  0.1077
   85SOPE  H14Y 7970  -0.274   3.122   4.373 -0.6156 -0.7399  2.0949
   85SOPE  C315 7971  -0.126   3.256   4.450 -0.4267 -0.6167  0.0229
   85SOPE  H15X 7972  -0.115   3.326   4.364  3.0973 -2.0162 -0.8525
   85SOPE  H15Y 7973  -0.019   3.248   4.480  0.6800 -1.0153 -3.5930
   85SOPE  C316 7974  -0.211   3.309   4.565  0.8600  0.2435 -0.5132
   85SOPE  H16X 7975  -0.312   3.343   4.534  0.0032 -2.9974 -1.6550
   85SOPE  H16Y 7976  -0.168   3.405   4.599 -1.1890  0.6516  1.1381
   85SOPE  C317 7977  -0.237   3.213   4.681 -0.8402  0.1491  0.2462
   85SOPE  H17X 7978  -0.141   3.172   4.720 -0.0588  1.6668  0.0010
   85SOPE  H17Y 7979  -0.293   3.127   4.637  0.2754  0.0235 -1.0299
   85SOPE  C318 7980  -0.317   3.275   4.791 -0.8308  0.0762 -0.3708
   85SOPE  H18X 7981  -0.412   3.321   4.756 -1.5141 -1.4568 -0.6442
   85SOPE  H18Y 7982  -0.253   3.349   4.843 -0.2956 -0.4865 -0.2158
   85SOPE  H18Z 7983  -0.339   3.188   4.858 -2.7342  1.7841  1.3690
   86SOPE     N 7984   0.241   6.204   3.200 -0.1589 -0.3189  0.7118
   86SOPE   HN1 7985   0.256   6.107   3.237  3.1406 -0.5869 -0.9525
   86SOPE   HN2 7986   0.159   6.247   3.247  0.5952  1.4954  0.4236
   86SOPE   HN3 7987   0.229   6.188   3.098  0.5602 -0.1849  0.6015
   86SOPE   C12 7988   0.351   6.296   3.236 -0.1636 -1.1762  0.8182
   86SOPE  H12A 7989   0.362   6.301   3.346 -0.1743  0.3761  0.7644
   86SOPE  H12B 7990   0.324   6.402   3.218 -2.0066 -1.6103  0.8086
   86SOPE   C11 7991   0.482   6.273   3.161 -0.0295  0.5878  0.8413
   86SOPE  H11A 7992   0.539   6.366   3.178 -0.3913  1.1685 -0.9394
   86SOPE  H11B 7993   0.456   6.270   3.053  0.9578  0.1372  0.6037
   86SOPE     P 7994   0.713   6.155   3.180 -0.3828 -0.4142 -0.1631
   86SOPE   O13 7995   0.737   6.197   3.036 -0.5487 -0.5314 -1.0478
   86SOPE   O14 7996   0.766   6.025   3.218 -0.4424 -0.5769  0.3749
   86SOPE   O12 7997   0.555   6.158   3.211  0.7563  0.1864  0.5452
   86SOPE   O11 7998   0.775   6.269   3.281 -0.4904 -0.0654  0.0412
   86SOPE    C1 7999   0.747   6.269   3.424 -0.9538  1.1945  0.1060
   86SOPE    HA 8000   0.846   6.265   3.474 -0.8172 -0.3801 -0.2283
   86SOPE    HB 8001   0.703   6.172   3.457  0.2237  1.0167  1.2618
   86SOPE    C2 8002   0.655   6.385   3.469 -0.0143 -0.1508  0.2584
   86SOPE    HS 8003   0.558   6.350   3.427 -1.2197  2.3734  0.7491
   86SOPE   O21 8004   0.700   6.509   3.410  0.3253  0.3282  0.3813
   86SOPE   C21 8005   0.595   6.589   3.375 -0.4355 -0.2184 -0.8957
   86SOPE   O22 8006   0.475   6.562   3.390  0.1383 -0.8034 -0.2658
   86SOPE   C22 8007   0.645   6.728   3.342  0.0112  0.3075  0.0472
   86SOPE   H2R 8008   0.559   6.775   3.290 -1.1155  0.0290  1.5785
   86SOPE   H2S 8009   0.735   6.713   3.278  0.9957  1.5455  1.0773
   86SOPE    C3 8010   0.641   6.410   3.617  0.1767 -0.6441  0.5390
   86SOPE    HX 8011   0.549   6.470   3.631  0.5650  0.0035  0.3739
   86SOPE    HY 8012   0.725   6.469   3.659  0.1116 -0.2656  0.1423
   86SOPE   O31 8013   0.630   6.282   3.687  0.2497  0.0587  0.1659
   86SOPE   C31 8014   0.510   6.234   3.693  0.8275  0.1696 -0.0591
   86SOPE   O32 8015   0.411   6.284   3.640 -0.0177 -0.2144 -0.0871
   86SOPE   C32 8016   0.520   6.103   3.775 -0.0159  0.2722  0.1249
   86SOPE   H2X 8017   0.618   6.085   3.825 -1.0377  1.8173  2.9057
   86SOPE   H2Y 8018   0.517   6.018   3.703  0.1245 -0.5715  1.0798
   86SOPE   C23 8019   0.671   6.815   3.464  0.0824 -0.0400  0.3034
   86SOPE   H3R 8020   0.757   6.778   3.524  0.1429  0.7973  0.7610
   86SOPE   H3S 8021   0.578   6.819   3.525 -0.6724  0.7680 -0.8617
   86SOPE   C24 8022   0.698   6.965   3.431  0.1916  0.2029 -0.8287
   86SOPE   H4R 8023   0.801   6.984   3.393  1.5076  1.0564  2.7587
   86SOPE   H4S 8024   0.643   6.985   3.336 -2.0498  1.0497  0.5553
   86SOPE   C25 8025   0.658   7.064   3.536  0.2050 -0.3239  0.9191
   86SOPE   H5R 8026   0.575   7.024   3.598 -0.2595 -0.4542  0.2191
   86SOPE   H5S 8027   0.742   7.073   3.609  0.1288  2.9465  0.7288
   86SOPE   C26 8028   0.621   7.205   3.483  0.7885 -0.0685  0.8144
   86SOPE   H6R 8029   0.718   7.250   3.450  0.7877 -0.9125 -0.4056
   86SOPE   H6S 8030   0.552   7.198   3.397  1.4194 -0.4188  0.3196
   86SOPE   C27 8031   0.541   7.277   3.591  0.0533 -0.1196 -0.7931
   86SOPE   H7R 8032   0.456   7.215   3.625 -0.2075  0.8961  0.4725
   86SOPE   H7S 8033   0.601   7.294   3.683  0.0567  1.6418 -1.0719
   86SOPE   C28 8034   0.469   7.411   3.547 -0.7479  0.0368 -0.0094
   86SOPE   H8R 8035   0.388   7.390   3.474 -2.0486  1.5225  0.9396
   86SOPE   H8S 8036   0.419   7.452   3.638  0.2977 -2.7631  1.9467
   86SOPE   C29 8037   0.574   7.505   3.484  0.6130  0.6875 -0.0567
   86SOPE   H91 8038   0.577   7.507   3.374 -1.6185 -1.5431 -0.2412
   86SOPE  C210 8039   0.657   7.578   3.554  0.0157 -0.6991 -0.0758
   86SOPE  H101 8040   0.732   7.634   3.495  0.6414 -1.6855 -0.2456
   86SOPE  C211 8041   0.663   7.579   3.702  0.3545  0.0807 -0.0307
   86SOPE  H11R 8042   0.614   7.488   3.741  0.8247 -1.6597 -3.1305
   86SOPE  H11S 8043   0.615   7.671   3.742 -1.6962 -0.8811 -0.1568
   86SOPE  C212 8044   0.794   7.570   3.773  0.3550 -0.4860  0.5229
   86SOPE  H12R 8045   0.883   7.618   3.727 -0.6810 -0.2296 -1.3306
   86SOPE  H12S 8046   0.824   7.463   3.780  0.5243 -0.4452  0.4314
   86SOPE  C213 8047   0.781   7.636   3.917 -0.3189  0.1359  0.0908
   86SOPE  H13R 8048   0.733   7.736   3.904  0.6458  0.5723 -0.2041
   86SOPE  H13S 8049   0.884   7.642   3.956 -0.2121 -0.5547 -0.0748
   86SOPE  C214 8050   0.688   7.563   4.014 -0.3346 -0.2671 -0.5750
   86SOPE  H14R 8051   0.733   7.461   4.008  0.7880  0.2722 -1.8779
   86SOPE  H14S 8052   0.583   7.557   3.976  0.2351 -0.1681 -2.2435
   86SOPE  C215 8053   0.705   7.600   4.163 -0.3120  0.5356  0.3651
   86SOPE  H15R 8054   0.667   7.701   4.190  1.3278  0.8149  1.7422
   86SOPE  H15S 8055   0.810   7.616   4.193 -0.4046  0.1611  0.9047
   86SOPE  C216 8056   0.636   7.506   4.248  0.3624 -0.4297 -0.4335
   86SOPE  H16R 8057   0.549   7.457   4.200  0.0813 -3.4274  2.6782
   86SOPE  H16S 8058   0.603   7.560   4.339  2.7502  0.9380 -0.3063
   86SOPE  C217 8059   0.726   7.385   4.290 -0.0899 -0.2648 -0.1009
   86SOPE  H17R 8060   0.780   7.352   4.199  2.5162 -0.1974  1.2905
   86SOPE  H17S 8061   0.651   7.308   4.317 -0.0371 -0.6040 -0.9153
   86SOPE  C218 8062   0.814   7.413   4.410  0.7249 -0.3065  0.2898
   86SOPE  H18R 8063   0.752   7.433   4.500  0.3318 -0.9809  0.1784
   86SOPE  H18S 8064   0.896   7.486   4.394  0.7965 -0.6855 -1.3127
   86SOPE  H18T 8065   0.863   7.318   4.442 -0.2333 -1.1020 -0.5112
   86SOPE   C33 8066   0.403   6.101   3.878 -0.6855 -0.0206  0.1972
   86SOPE   H3X 8067   0.402   5.997   3.918 -0.4296 -0.4477 -0.8860
   86SOPE   H3Y 8068   0.304   6.108   3.827  0.2441  0.8386 -1.5690
   86SOPE   C34 8069   0.425   6.210   3.985  0.0789  0.4664 -0.0557
   86SOPE   H4X 8070   0.424   6.312   3.942  2.7694 -0.0824 -1.6501
   86SOPE   H4Y 8071   0.532   6.211   4.016 -0.3400  0.1194  1.4431
   86SOPE   C35 8072   0.322   6.212   4.107 -0.3577 -0.3522  0.3913
   86SOPE   H5X 8073   0.366   6.269   4.191 -0.3955 -2.9091  2.2561
   86SOPE   H5Y 8074   0.311   6.106   4.136 -2.1341 -0.2590  0.1234
   86SOPE   C36 8075   0.195   6.274   4.055  0.6689 -0.1179  0.3881
   86SOPE   H6X 8076   0.144   6.203   3.985 -0.1066 -0.6566  1.4719
   86SOPE   H6Y 8077   0.210   6.373   4.008 -2.6319  1.2110  1.7925
   86SOPE   C37 8078   0.094   6.303   4.167 -0.1855 -0.6924 -1.1523
   86SOPE   H7X 8079   0.084   6.220   4.239  2.2929  1.0110  1.3447
   86SOPE   H7Y 8080  -0.006   6.322   4.120  0.6713 -1.4183 -3.4369
   86SOPE   C38 8081   0.134   6.417   4.268 -0.0631  0.0596 -0.0644
   86SOPE   H8X 8082   0.154   6.512   4.214 -1.2978  0.5867  0.3767
   86SOPE   H8Y 8083   0.233   6.382   4.306  0.7958  0.2446 -2.0058
   86SOPE   C39 8084   0.044   6.451   4.379  0.3715  0.1033 -0.1620
   86SOPE   H9X 8085   0.045   6.358   4.440  0.4694 -0.3392 -0.8180
   86SOPE   H9Y 8086  -0.061   6.477   4.351  0.4927  1.9797  1.0231
   86SOPE  C310 8087   0.098   6.572   4.470  0.3120 -0.5526  0.1630
   86SOPE  H10X 8088   0.132   6.651   4.399 -0.7361 -1.7898 -1.7964
   86SOPE  H10Y 8089   0.191   6.536   4.518  0.0531 -0.4268  0.7631
   86SOPE  C311 8090   0.004   6.617   4.575  0.2787  0.3169  0.1007
   86SOPE  H11X 8091  -0.044   6.522   4.606  0.2874 -0.0837 -1.0462
   86SOPE  H11Y 8092  -0.074   6.682   4.530  0.5886  0.6723  0.0760
   86SOPE  C312 8093   0.076   6.664   4.706 -0.1326  0.4309  0.1630
   86SOPE  H12X 8094   0.149   6.585   4.733  0.1320  0.3060 -0.8841
   86SOPE  H12Y 8095   0.011   6.673   4.796  0.7094 -2.3911  1.1644
   86SOPE  C313 8096   0.138   6.805   4.688  0.7057 -0.2756  0.3161
   86SOPE  H13X 8097   0.055   6.874   4.662  0.2352 -0.8645  0.2325
   86SOPE  H13Y 8098   0.216   6.795   4.610 -0.2671 -0.0864 -0.6951
   86SOPE  C314 8099   0.198   6.869   4.816  1.0334  0.2246 -0.2825
   86SOPE  H14X 8100   0.118   6.870   4.893  1.2041  2.3743 -0.0476
   86SOPE  H14Y 8101   0.221   6.973   4.784 -0.7227  0.1435 -1.9063
   86SOPE  C315 8102   0.326   6.806   4.870  0.2263  0.2668  0.5976
   86SOPE  H15X 8103   0.401   6.821   4.790 -1.4219  1.7459 -0.7395
   86SOPE  H15Y 8104   0.308   6.696   4.878 -0.5825  0.4206  0.9879
   86SOPE  C316 8105   0.368   6.853   5.008  0.1716 -0.9535 -0.1742
   86SOPE  H16X 8106   0.424   6.772   5.059  1.6868 -0.2903 -0.7360
   86SOPE  H16Y 8107   0.279   6.877   5.071  1.9633 -0.7973  2.4505
   86SOPE  C317 8108   0.461   6.979   5.004 -0.7515 -0.3394 -0.2741
   86SOPE  H17X 8109   0.411   7.061   4.949  0.7807  0.7168 -0.1550
   86SOPE  H17Y 8110   0.552   6.960   4.944  0.6412  0.4919  1.4863
   86SOPE  C318 8111   0.498   7.037   5.141  0.5694 -0.6467 -0.4937
   86SOPE  H18X 8112   0.534   6.950   5.200 -1.5394 -0.7407  0.7843
   86SOPE  H18Y 8113   0.405   7.066   5.195  2.0337  2.6161  0.5036
   86SOPE  H18Z 8114   0.580   7.111   5.135 -0.1862  0.0994 -4.9910
   87SOPE     N 8115   1.641   0.041   3.138  0.0496 -0.2959  0.1687
   87SOPE   HN1 8116   1.545   0.066   3.106  0.1545 -0.5551 -0.3574
   87SOPE   HN2 8117   1.700   0.103   3.079  1.0791 -0.2773  1.1936
   87SOPE   HN3 8118   1.658  -0.056   3.104 -0.9628  0.0135 -1.3477
   87SOPE   C12 8119   1.646   0.057   3.281  0.3128  0.0085  0.7713
   87SOPE  H12A 8120   1.550   0.023   3.325 -0.6743 -0.6020 -1.6913
   87SOPE  H12B 8121   1.651   0.165   3.306 -1.7834 -0.4043  3.3999
   87SOPE   C11 8122   1.760  -0.017   3.355 -0.7102 -0.2076  0.5857
   87SOPE  H11A 8123   1.746  -0.127   3.350 -0.5751 -0.1489 -1.8639
   87SOPE  H11B 8124   1.764   0.013   3.462 -0.1225 -0.6124  0.6797
   87SOPE     P 8125   2.019  -0.050   3.273 -0.3506 -0.1606  0.0386
   87SOPE   O13 8126   2.124   0.053   3.252  0.7120  0.5477 -0.3029
   87SOPE   O14 8127   2.004  -0.157   3.173 -0.0532 -0.2741  0.1683
   87SOPE   O12 8128   1.883   0.025   3.297  0.7234  0.3478  0.7594
   87SOPE   O11 8129   2.034  -0.120   3.414 -0.4876 -0.1460  0.2364
   87SOPE    C1 8130   2.064  -0.025   3.522  0.2330 -0.1942 -0.7808
   87SOPE    HA 8131   1.985   0.050   3.544  1.1489 -0.1890  3.2539
   87SOPE    HB 8132   2.162   0.027   3.529  0.5944 -1.1162  2.2690
   87SOPE    C2 8133   2.057  -0.096   3.658 -0.4069  0.4257 -0.2208
   87SOPE    HS 8134   2.082  -0.029   3.743  1.8033 -0.5948  0.0096
   87SOPE   O21 8135   2.156  -0.199   3.669  0.2310  0.0858  0.3563
   87SOPE   C21 8136   2.274  -0.161   3.705 -0.1594  0.5449  0.0196
   87SOPE   O22 8137   2.305  -0.045   3.733  0.2631  0.4534  0.6199
   87SOPE   C22 8138   2.362  -0.285   3.704 -0.0045  0.2963 -0.3793
   87SOPE   H2R 8139   2.410  -0.295   3.604 -1.5131  1.0679 -1.2197
   87SOPE   H2S 8140   2.302  -0.377   3.716 -2.6797  2.1610  1.9540
   87SOPE    C3 8141   1.921  -0.160   3.702  0.2654 -0.0913  0.3008
   87SOPE    HX 8142   1.922  -0.250   3.637 -0.5467 -1.7900  2.5045
   87SOPE    HY 8143   1.832  -0.099   3.679 -1.4555 -1.8580  1.8904
   87SOPE   O31 8144   1.924  -0.221   3.832 -0.0783 -0.1392 -0.6240
   87SOPE   C31 8145   1.869  -0.146   3.930 -0.4482  0.8049 -0.0589
   87SOPE   O32 8146   1.836  -0.027   3.917 -0.1284  0.5102  0.7496
   87SOPE   C32 8147   1.882  -0.232   4.060 -0.6224 -0.4381  0.3654
   87SOPE   H2X 8148   1.981  -0.280   4.067 -1.9489 -3.2150  1.9657
   87SOPE   H2Y 8149   1.803  -0.310   4.046 -0.8785 -0.0849 -0.1719
   87SOPE   C23 8150   2.468  -0.277   3.814 -0.7845  0.5686 -0.5613
   87SOPE   H3R 8151   2.506  -0.174   3.828 -2.0005  0.7159  2.3444
   87SOPE   H3S 8152   2.545  -0.352   3.782 -0.8346 -0.6621  1.9262
   87SOPE   C24 8153   2.416  -0.338   3.944  0.0976  0.2491 -0.2547
   87SOPE   H4R 8154   2.320  -0.392   3.931  0.8712 -0.7232 -2.4255
   87SOPE   H4S 8155   2.483  -0.421   3.975 -2.4037 -1.4533  0.9478
   87SOPE   C25 8156   2.404  -0.241   4.071 -0.3361 -0.2918  0.9373
   87SOPE   H5R 8157   2.508  -0.224   4.107  0.5002 -0.8883 -1.0315
   87SOPE   H5S 8158   2.369  -0.142   4.034  1.5498 -0.2178 -0.8622
   87SOPE   C26 8159   2.323  -0.296   4.191  0.3922 -0.4162 -0.1031
   87SOPE   H6R 8160   2.214  -0.296   4.165  0.5938  2.3188 -1.3627
   87SOPE   H6S 8161   2.366  -0.395   4.214  2.3881  0.4896  0.2543
   87SOPE   C27 8162   2.330  -0.217   4.318 -0.1649  0.0188 -0.1871
   87SOPE   H7R 8163   2.433  -0.217   4.361  0.6433 -3.1439 -1.7719
   87SOPE   H7S 8164   2.300  -0.113   4.297  1.3318  0.1927 -1.7357
   87SOPE   C28 8165   2.237  -0.262   4.436 -0.2303  0.5404 -0.4284
   87SOPE   H8R 8166   2.137  -0.269   4.387  0.0374 -0.0799 -0.9039
   87SOPE   H8S 8167   2.281  -0.361   4.458 -1.5963  0.1060  0.4642
   87SOPE   C29 8168   2.235  -0.184   4.563 -0.3654 -0.5620  0.6955
   87SOPE   H91 8169   2.303  -0.215   4.644  3.5661  0.0785 -2.0328
   87SOPE  C210 8170   2.169  -0.063   4.573  0.5092  0.0861 -0.5118
   87SOPE  H101 8171   2.164  -0.017   4.672 -0.4781  0.9984 -0.9765
   87SOPE  C211 8172   2.088   0.000   4.468  0.8486 -0.6506  0.3597
   87SOPE  H11R 8173   2.058  -0.065   4.383  0.5542 -0.4470  0.3073
   87SOPE  H11S 8174   2.141   0.076   4.406  0.6121 -1.9995 -1.5951
   87SOPE  C212 8175   1.947   0.062   4.521  0.1117 -0.2142  0.1415
   87SOPE  H12R 8176   1.875   0.080   4.439 -0.6474 -0.4530  0.7480
   87SOPE  H12S 8177   1.962   0.161   4.569  0.7839  0.0982 -0.6840
   87SOPE  C213 8178   1.889  -0.019   4.639  0.7528 -0.4112 -0.2989
   87SOPE  H13R 8179   1.957  -0.012   4.726  0.9958  0.4669 -0.5525
   87SOPE  H13S 8180   1.867  -0.122   4.601 -1.3034  0.4997 -1.7514
   87SOPE  C214 8181   1.767   0.056   4.692  0.1495  0.5523 -0.0838
   87SOPE  H14R 8182   1.714   0.100   4.605  0.1125 -0.4293 -0.5660
   87SOPE  H14S 8183   1.799   0.141   4.756 -0.8238 -0.4085  1.7903
   87SOPE  C215 8184   1.655  -0.016   4.769 -0.7805 -0.6716 -0.0462
   87SOPE  H15R 8185   1.611  -0.101   4.713  0.1644 -1.9868  1.1487
   87SOPE  H15S 8186   1.582   0.064   4.792  1.3786  1.1362  0.9132
   87SOPE  C216 8187   1.707  -0.075   4.901  0.8096  0.3761 -0.8732
   87SOPE  H16R 8188   1.751   0.014   4.951  0.9007  0.7479 -1.6097
   87SOPE  H16S 8189   1.784  -0.149   4.869 -0.4286 -1.4991  0.2692
   87SOPE  C217 8190   1.612  -0.152   4.997  0.5148 -0.3205 -0.5228
   87SOPE  H17R 8191   1.585  -0.246   4.946  0.0511  0.4130 -1.6808
   87SOPE  H17S 8192   1.527  -0.086   5.026  1.8126  2.0199 -1.6946
   87SOPE  C218 8193   1.682  -0.199   5.130 -0.1961 -0.4339  0.7168
   87SOPE  H18R 8194   1.721  -0.303   5.120  0.6814 -0.0497  0.0217
   87SOPE  H18S 8195   1.603  -0.220   5.205 -0.0807  0.8061  1.2215
   87SOPE  H18T 8196   1.743  -0.115   5.171  0.2284 -0.4283  0.0856
   87SOPE   C33 8197   1.852  -0.152   4.184 -0.5486 -0.0924 -0.5591
   87SOPE   H3X 8198   1.903  -0.053   4.186 -0.1069 -0.3330  0.8818
   87SOPE   H3Y 8199   1.885  -0.202   4.277  0.4512 -0.0758 -0.8967
   87SOPE   C34 8200   1.697  -0.141   4.202 -0.5786  0.6604 -0.5043
   87SOPE   H4X 8201   1.649  -0.235   4.236  1.2037  0.2825  1.1496
   87SOPE   H4Y 8202   1.647  -0.101   4.111  1.5821  0.0894 -2.0039
   87SOPE   C35 8203   1.659  -0.039   4.313 -0.0427  0.2297 -0.5794
   87SOPE   H5X 8204   1.707   0.054   4.276 -0.1521  0.2345 -0.7073
   87SOPE   H5Y 8205   1.691  -0.076   4.413  3.6235  0.2518 -1.6117
   87SOPE   C36 8206   1.510  -0.031   4.316  0.2596 -0.8229 -0.5675
   87SOPE   H6X 8207   1.470  -0.128   4.353 -0.9715 -0.1902 -0.1891
   87SOPE   H6Y 8208   1.487  -0.028   4.208  3.5352  0.3738 -1.3427
   87SOPE   C37 8209   1.447   0.072   4.409  0.1619 -0.0511 -0.0990
   87SOPE   H7X 8210   1.463   0.172   4.363 -2.1830 -0.1384 -1.2449
   87SOPE   H7Y 8211   1.503   0.071   4.505 -0.8736  1.1305  0.5538
   87SOPE   C38 8212   1.302   0.052   4.428  0.8816 -0.9755  0.1035
   87SOPE   H8X 8213   1.278  -0.053   4.455  0.3611 -1.1846 -1.1069
   87SOPE   H8Y 8214   1.259   0.076   4.329  4.6179  3.4215 -0.7885
   87SOPE   C39 8215   1.240   0.166   4.510  0.1441  1.3962  0.0365
   87SOPE   H9X 8216   1.130   0.151   4.510  0.2232  0.8002  0.2366
   87SOPE   H9Y 8217   1.262   0.254   4.445  1.5098  1.1088  0.0746
   87SOPE  C310 8218   1.293   0.182   4.653 -0.1723  0.2131 -0.1866
   87SOPE  H10X 8219   1.257   0.283   4.681 -1.5439 -0.7532  1.8693
   87SOPE  H10Y 8220   1.403   0.180   4.666 -0.0589  0.4216 -1.0581
   87SOPE  C311 8221   1.228   0.076   4.747 -0.3125  0.9401 -0.0334
   87SOPE  H11X 8222   1.268  -0.023   4.717 -0.3892  1.6730 -2.8554
   87SOPE  H11Y 8223   1.121   0.070   4.715 -0.5255  0.9111  0.6659
   87SOPE  C312 8224   1.234   0.109   4.898 -0.0002  0.5287  0.0948
   87SOPE  H12X 8225   1.163   0.191   4.925  0.1886  1.1397 -1.2051
   87SOPE  H12Y 8226   1.336   0.151   4.913  0.0252 -0.0354  1.6801
   87SOPE  C313 8227   1.201  -0.014   4.989  0.1523  0.3062 -0.4140
   87SOPE  H13X 8228   1.191   0.024   5.093  0.8026  0.3776 -0.3729
   87SOPE  H13Y 8229   1.277  -0.095   4.990  0.4889  0.4771  3.1911
   87SOPE  C314 8230   1.055  -0.073   4.963 -0.5438 -0.5048  0.0529
   87SOPE  H14X 8231   1.051  -0.141   4.876 -0.5010 -0.0507 -0.3101
   87SOPE  H14Y 8232   0.985   0.014   4.957 -0.7424 -0.8003 -3.0221
   87SOPE  C315 8233   1.002  -0.149   5.086  0.7126 -0.3818 -0.3165
   87SOPE  H15X 8234   0.895  -0.170   5.067  0.1273  1.5104  0.5636
   87SOPE  H15Y 8235   1.020  -0.081   5.172 -0.1138  0.6025 -0.8979
   87SOPE  C316 8236   1.083  -0.284   5.107  0.0236  0.1391  0.2843
   87SOPE  H16X 8237   1.082  -0.306   5.216 -1.0046 -1.7160 -0.0446
   87SOPE  H16Y 8238   1.190  -0.276   5.080  0.0174  0.7571  0.4427
   87SOPE  C317 8239   1.017  -0.409   5.060 -0.0163  0.0209  0.9510
   87SOPE  H17X 8240   1.027  -0.403   4.950  1.6815  0.7213  1.1025
   87SOPE  H17Y 8241   0.910  -0.405   5.088 -0.2534  1.3051 -0.0205
   87SOPE  C318 8242   1.091  -0.536   5.094  0.2622  0.0644  0.1694
   87SOPE  H18X 8243   1.034  -0.626   5.062 -1.3493  1.1672 -0.2020
   87SOPE  H18Y 8244   1.102  -0.544   5.204  0.1702 -1.3272  0.0953
   87SOPE  H18Z 8245   1.192  -0.539   5.048 -0.0690  0.7867 -0.6508
   88SOPE     N 8246   5.245   6.637   2.867 -0.1899  0.0146 -0.1402
   88SOPE   HN1 8247   5.204   6.622   2.773  0.2921 -1.1594 -0.1773
   88SOPE   HN2 8248   5.277   6.736   2.865  0.3993 -0.1676 -0.0993
   88SOPE   HN3 8249   5.332   6.580   2.876 -0.0209  0.1682 -0.7836
   88SOPE   C12 8250   5.150   6.609   2.975 -0.9415  0.3496  0.5480
   88SOPE  H12A 8251   5.070   6.687   2.977 -0.6492  0.6826 -0.2528
   88SOPE  H12B 8252   5.202   6.611   3.073 -0.4484 -0.7239  0.3208
   88SOPE   C11 8253   5.090   6.467   2.951  0.8022 -0.0227  0.4054
   88SOPE  H11A 8254   5.041   6.449   3.050 -1.8707  2.0419 -0.4312
   88SOPE  H11B 8255   5.172   6.395   2.931  1.9769  0.8910  1.7449
   88SOPE     P 8256   4.840   6.409   2.896  0.2479  0.3225  0.0703
   88SOPE   O13 8257   4.847   6.272   2.960 -0.6518 -0.9235  0.1573
   88SOPE   O14 8258   4.755   6.434   2.773 -0.3424  0.3160  0.2031
   88SOPE   O12 8259   4.979   6.461   2.855 -0.3030 -0.0045 -0.2128
   88SOPE   O11 8260   4.796   6.505   3.010  0.2869 -0.4475 -0.6149
   88SOPE    C1 8261   4.661   6.494   3.073 -0.3033  0.3546  0.1566
   88SOPE    HA 8262   4.607   6.405   3.033 -0.8182 -0.1156  1.8237
   88SOPE    HB 8263   4.589   6.576   3.051 -0.7219  0.1914  0.8980
   88SOPE    C2 8264   4.664   6.482   3.226 -0.1936  0.5054 -0.1423
   88SOPE    HS 8265   4.564   6.515   3.263 -0.1626 -0.7630  1.1700
   88SOPE   O21 8266   4.764   6.568   3.287  0.3582 -0.2398 -0.0481
   88SOPE   C21 8267   4.753   6.695   3.244 -0.3109 -0.4209 -0.4508
   88SOPE   O22 8268   4.647   6.745   3.211 -0.5698 -0.0918  0.0974
   88SOPE   C22 8269   4.886   6.763   3.287 -0.0278  0.1104 -0.3486
   88SOPE   H2R 8270   4.865   6.870   3.268 -0.5283 -0.1040 -1.0362
   88SOPE   H2S 8271   4.976   6.726   3.233  1.5756  1.2036  1.4634
   88SOPE    C3 8272   4.699   6.339   3.274  0.0858 -0.1346  0.5011
   88SOPE    HX 8273   4.801   6.315   3.237 -0.9900 -0.7614 -2.2467
   88SOPE    HY 8274   4.620   6.273   3.233  0.7987 -0.8672  0.2950
   88SOPE   O31 8275   4.689   6.340   3.416 -0.0992  0.1337  0.0551
   88SOPE   C31 8276   4.794   6.309   3.489 -0.3537  0.5001  0.4122
   88SOPE   O32 8277   4.895   6.254   3.454  0.5124  0.7040  0.1641
   88SOPE   C32 8278   4.749   6.316   3.638  0.1816  0.1413 -0.8354
   88SOPE   H2X 8279   4.641   6.339   3.645  0.0490 -0.6626 -0.1765
   88SOPE   H2Y 8280   4.803   6.401   3.686 -0.5619 -0.9101  2.0534
   88SOPE   C23 8281   4.923   6.727   3.433 -0.1924 -0.5943  0.2182
   88SOPE   H3R 8282   5.028   6.762   3.445 -0.5205 -0.2498  2.3252
   88SOPE   H3S 8283   4.919   6.617   3.448  0.6465 -0.9459 -1.7533
   88SOPE   C24 8284   4.835   6.808   3.529 -0.0931 -0.5615  0.2615
   88SOPE   H4R 8285   4.836   6.918   3.514 -0.8857 -0.2553  2.0901
   88SOPE   H4S 8286   4.729   6.779   3.514 -0.0881 -0.1037 -0.7081
   88SOPE   C25 8287   4.879   6.793   3.677  0.5268 -0.2660 -0.1288
   88SOPE   H5R 8288   4.881   6.684   3.695 -0.8366 -0.3049 -0.0913
   88SOPE   H5S 8289   4.977   6.844   3.686 -0.3161  1.8412 -1.8973
   88SOPE   C26 8290   4.782   6.867   3.768 -0.3691  0.5366 -0.2176
   88SOPE   H6R 8291   4.761   6.972   3.738 -2.2161  0.4566  0.6519
   88SOPE   H6S 8292   4.685   6.813   3.761 -0.2126  0.2262  0.0168
   88SOPE   C27 8293   4.830   6.871   3.917  0.1589  0.3144  0.2704
   88SOPE   H7R 8294   4.929   6.923   3.917 -0.4888  1.5920  1.0645
   88SOPE   H7S 8295   4.754   6.928   3.973 -1.5068 -1.7597  0.2484
   88SOPE   C28 8296   4.844   6.731   3.977 -0.4718  0.3116 -0.4395
   88SOPE   H8R 8297   4.908   6.660   3.921 -2.4476 -2.0478  0.1652
   88SOPE   H8S 8298   4.896   6.746   4.075  0.3528 -1.1656 -0.6251
   88SOPE   C29 8299   4.710   6.668   3.993  0.1809  0.1891 -0.1494
   88SOPE   H91 8300   4.662   6.657   3.895 -0.2261 -1.1824  0.1784
   88SOPE  C210 8301   4.647   6.639   4.105  0.3054  0.5290  0.3721
   88SOPE  H101 8302   4.555   6.578   4.108 -0.3050  1.4666  1.2197
   88SOPE  C211 8303   4.699   6.668   4.249  0.2579  0.6436  0.2187
   88SOPE  H11R 8304   4.634   6.745   4.295  0.2583 -0.5289  2.3510
   88SOPE  H11S 8305   4.804   6.703   4.260  0.4713  0.3423 -0.7782
   88SOPE  C212 8306   4.697   6.545   4.350  0.0619  0.2263 -0.7470
   88SOPE  H12R 8307   4.753   6.463   4.298  0.8210  0.7593 -0.7916
   88SOPE  H12S 8308   4.596   6.500   4.360  0.2852 -0.6186 -1.9838
   88SOPE  C213 8309   4.771   6.572   4.490  0.7720  0.2368  0.0921
   88SOPE  H13R 8310   4.736   6.675   4.514  1.3340  0.2371  0.9395
   88SOPE  H13S 8311   4.881   6.581   4.478  0.6661  0.6773 -0.6064
   88SOPE  C214 8312   4.746   6.481   4.598  0.3216  0.1325  0.2181
   88SOPE  H14R 8313   4.749   6.372   4.579  0.2390  0.2244 -0.3586
   88SOPE  H14S 8314   4.643   6.508   4.631  0.2363  1.6609 -1.1384
   88SOPE  C215 8315   4.843   6.501   4.717 -0.4421  0.1953  0.1463
   88SOPE  H15R 8316   4.828   6.600   4.765  0.5708  0.0958  0.6989
   88SOPE  H15S 8317   4.946   6.497   4.673 -0.1446 -2.2578  0.9551
   88SOPE  C216 8318   4.832   6.393   4.814 -0.7897 -0.5477 -0.7163
   88SOPE  H16R 8319   4.891   6.419   4.905  0.6456 -2.5175 -1.0222
   88SOPE  H16S 8320   4.863   6.292   4.780 -1.1773 -0.5614 -1.0407
   88SOPE  C217 8321   4.688   6.385   4.871  0.0654  0.1704 -0.0371
   88SOPE  H17R 8322   4.685   6.290   4.929  1.6170  0.0222 -0.1609
   88SOPE  H17S 8323   4.614   6.371   4.789  1.3581  0.6746 -1.3274
   88SOPE  C218 8324   4.637   6.498   4.956  0.5299 -0.7023 -0.1569
   88SOPE  H18R 8325   4.610   6.586   4.894  0.3628 -0.1800  0.6435
   88SOPE  H18S 8326   4.723   6.539   5.012  0.4731  2.3783 -2.0427
   88SOPE  H18T 8327   4.555   6.459   5.020  0.2872  0.6916  0.4376
   88SOPE   C33 8328   4.765   6.195   3.729 -0.0603  0.3172  0.5258
   88SOPE   H3X 8329   4.869   6.157   3.729 -1.0578 -2.7198  0.7083
   88SOPE   H3Y 8330   4.696   6.115   3.692 -0.4698  0.6817  0.4933
   88SOPE   C34 8331   4.727   6.235   3.868  0.0628  0.5688  0.6195
   88SOPE   H4X 8332   4.621   6.266   3.865 -0.1774 -0.3063 -0.6435
   88SOPE   H4Y 8333   4.774   6.333   3.892  0.0198  0.6771  0.2591
   88SOPE   C35 8334   4.772   6.124   3.969 -0.1101 -0.3195  0.6270
   88SOPE   H5X 8335   4.883   6.117   3.962 -0.3075 -2.1548 -3.3481
   88SOPE   H5Y 8336   4.721   6.029   3.942  0.1825 -0.4417  0.5046
   88SOPE   C36 8337   4.724   6.159   4.101 -0.5323 -0.0138  0.1257
   88SOPE   H6X 8338   4.615   6.171   4.116 -0.8772 -1.2159 -1.2407
   88SOPE   H6Y 8339   4.755   6.264   4.123 -1.3437 -0.4133  3.7674
   88SOPE   C37 8340   4.798   6.075   4.210  0.9534 -0.3348  0.0020
   88SOPE   H7X 8341   4.903   6.055   4.180  0.9564  1.7069 -1.5124
   88SOPE   H7Y 8342   4.734   5.985   4.225 -1.4573  1.1407 -0.9525
   88SOPE   C38 8343   4.797   6.157   4.342  0.2078  0.0945  0.5108
   88SOPE   H8X 8344   4.697   6.195   4.374 -0.5775 -1.0921 -0.4414
   88SOPE   H8Y 8345   4.856   6.246   4.312 -0.1397 -0.3180 -1.4736
   88SOPE   C39 8346   4.839   6.086   4.474 -0.0767  0.8544  0.5158
   88SOPE   H9X 8347   4.869   6.157   4.554  1.6631 -1.2810  1.8627
   88SOPE   H9Y 8348   4.926   6.021   4.454 -1.3525 -1.3297  1.6283
   88SOPE  C310 8349   4.718   6.006   4.535  0.0251 -0.0716 -0.1382
   88SOPE  H10X 8350   4.763   5.920   4.590  0.9444  1.6200  1.9196
   88SOPE  H10Y 8351   4.654   5.959   4.457  0.6638  1.6246 -1.7361
   88SOPE  C311 8352   4.633   6.091   4.633  0.5654  0.0443  0.0638
   88SOPE  H11X 8353   4.580   6.163   4.567 -0.1957  0.3180  0.9699
   88SOPE  H11Y 8354   4.682   6.145   4.716  0.3757 -0.8443  0.7651
   88SOPE  C312 8355   4.533   5.995   4.693 -0.4044 -0.6524  0.7973
   88SOPE  H12X 8356   4.579   5.945   4.780  1.1622 -0.6143  0.0111
   88SOPE  H12Y 8357   4.504   5.922   4.615 -0.4339  2.4538 -2.3649
   88SOPE  C313 8358   4.405   6.071   4.737  0.2680  0.4226  0.2862
   88SOPE  H13X 8359   4.328   5.994   4.758 -0.3322  0.4203 -1.7667
   88SOPE  H13Y 8360   4.346   6.111   4.653  0.4506 -2.6142 -1.4451
   88SOPE  C314 8361   4.419   6.169   4.855 -0.6307 -0.0460  0.5937
   88SOPE  H14X 8362   4.425   6.271   4.812 -1.1935  0.1442  0.9524
   88SOPE  H14Y 8363   4.517   6.138   4.898 -0.8956  0.5940  1.6770
   88SOPE  C315 8364   4.292   6.160   4.951 -0.8831  0.0550  0.4404
   88SOPE  H15X 8365   4.256   6.056   4.962  0.1391 -0.6128 -1.9997
   88SOPE  H15Y 8366   4.210   6.212   4.896 -1.3344 -2.4507 -1.4225
   88SOPE  C316 8367   4.321   6.230   5.088 -0.1700 -0.0847 -0.2124
   88SOPE  H16X 8368   4.225   6.251   5.140 -1.7212  1.3680 -3.3767
   88SOPE  H16Y 8369   4.373   6.327   5.069  0.0752 -0.0669  0.5163
   88SOPE  C317 8370   4.409   6.149   5.180  0.3752  0.0212  0.4498
   88SOPE  H17X 8371   4.510   6.150   5.135 -0.7695  1.7564 -2.2879
   88SOPE  H17Y 8372   4.379   6.043   5.170  2.0238 -0.2718 -2.0904
   88SOPE  C318 8373   4.403   6.196   5.331 -0.2246 -0.2081  0.7123
   88SOPE  H18X 8374   4.398   6.307   5.344 -1.7450 -0.0496 -0.8761
   88SOPE  H18Y 8375   4.498   6.158   5.374 -0.2277  1.9760  2.8544
   88SOPE  H18Z 8376   4.324   6.139   5.384 -0.3848  0.0647  0.7733
   89SAPC     N 8377   6.725   1.748   7.264 -0.1017  0.0449  0.2705
   89SAPC   C12 8378   6.830   1.755   7.375 -0.4574 -0.3114  0.0868
   89SAPC  H12A 8379   6.801   1.691   7.457  1.0118 -1.2301 -0.0829
   89SAPC  H12B 8380   6.824   1.858   7.409  1.9245 -0.6278  1.6883
   89SAPC   C13 8381   6.714   1.613   7.199  0.4334 -0.1630  0.4961
   89SAPC  H13A 8382   6.814   1.600   7.162  0.2586 -0.1905  0.0173
   89SAPC  H13B 8383   6.683   1.539   7.271  0.2986  0.4252  1.0612
   89SAPC  H13C 8384   6.645   1.606   7.116  0.2129 -1.2239  0.7614
   89SAPC   C14 8385   6.589   1.785   7.307 -0.2975  0.2025 -0.3724
   89SAPC  H14A 8386   6.575   1.890   7.327  0.0904  0.3316 -0.7465
   89SAPC  H14B 8387   6.530   1.749   7.224 -0.0143  0.1269 -0.5444
   89SAPC  H14C 8388   6.565   1.726   7.394 -0.4248 -2.2165 -1.9507
   89SAPC   C15 8389   6.747   1.851   7.161  0.2676  0.2183  0.9487
   89SAPC  H15A 8390   6.841   1.837   7.110  0.8261  0.7415  1.8086
   89SAPC  H15B 8391   6.670   1.857   7.086 -1.1568 -0.0064  2.3507
   89SAPC  H15C 8392   6.749   1.950   7.205  1.8465 -0.4144  2.4024
   89SAPC   C11 8393   6.983   1.734   7.337 -0.6528 -0.2238 -0.3865
   89SAPC  H11A 8394   7.036   1.757   7.432 -0.1060 -0.5091 -0.6154
   89SAPC  H11B 8395   7.025   1.801   7.258  2.5814 -2.2032 -0.5495
   89SAPC     P 8396   7.083   1.557   7.160 -0.0661  0.1092  0.2109
   89SAPC   O13 8397   7.228   1.587   7.170  0.4391  0.3680  0.0861
   89SAPC   O14 8398   7.042   1.418   7.134 -0.3882  0.2693  0.2672
   89SAPC   O12 8399   7.019   1.599   7.298 -0.1462  0.2236  0.1135
   89SAPC   O11 8400   7.010   1.655   7.062 -0.2174 -0.0749 -0.3159
   89SAPC    C1 8401   7.035   1.638   6.927  1.1777 -0.2833  0.2020
   89SAPC    HA 8402   7.144   1.631   6.903  1.3204 -1.2655  1.0874
   89SAPC    HB 8403   6.975   1.552   6.890 -1.9259  1.5439  0.7166
   89SAPC    C2 8404   6.985   1.768   6.859 -0.0400  0.1219  0.0600
   89SAPC    HS 8405   6.887   1.802   6.899 -0.4133  1.3977 -1.7813
   89SAPC   O21 8406   6.986   1.758   6.724  0.8129  0.2443 -0.1524
   89SAPC   C21 8407   6.905   1.848   6.665  0.6248  0.5902 -0.2387
   89SAPC   O22 8408   6.821   1.911   6.722 -0.2041 -0.3169 -0.9564
   89SAPC   C22 8409   6.935   1.834   6.512  0.0123 -0.4668  0.8211
   89SAPC   H2R 8410   7.042   1.802   6.508  0.3449  0.2252  2.7649
   89SAPC   H2S 8411   6.877   1.757   6.457  1.2600 -1.0059  0.2019
   89SAPC    C3 8412   7.075   1.885   6.899  0.4674 -0.0954  0.1053
   89SAPC    HX 8413   7.079   1.901   7.009  0.8690 -1.1874  0.2611
   89SAPC    HY 8414   7.044   1.982   6.855  1.5095 -0.2965 -1.1362
   89SAPC   O31 8415   7.216   1.860   6.861  0.1358 -0.2443 -0.1237
   89SAPC   C31 8416   7.260   1.888   6.728  0.0643  0.1069  0.7178
   89SAPC   O32 8417   7.197   1.961   6.652 -0.5250 -0.2278 -0.5388
   89SAPC   C32 8418   7.390   1.809   6.696 -0.8306 -0.3535  1.0943
   89SAPC   H2X 8419   7.349   1.720   6.644  0.7331 -0.8146  0.6052
   89SAPC   H2Y 8420   7.438   1.775   6.791  2.7150 -0.5919 -0.6154
   89SAPC   C23 8421   6.937   1.973   6.432 -0.2945 -0.2030  0.2713
   89SAPC   H3R 8422   7.024   2.032   6.468 -0.5575 -0.6284  1.6695
   89SAPC   H3S 8423   6.839   2.022   6.446 -0.0989 -0.5504  3.7411
   89SAPC   C24 8424   6.973   1.956   6.280 -0.0369  0.1534  0.2570
   89SAPC   H4R 8425   7.072   1.905   6.274  0.5052  1.1072  0.8711
   89SAPC   H4S 8426   7.005   2.059   6.256  2.8282  0.0286  2.9365
   89SAPC   C25 8427   6.866   1.895   6.194 -0.4277 -0.4953  0.2166
   89SAPC   H5R 8428   6.763   1.895   6.233 -0.1296 -2.0953  1.0796
   89SAPC   C26 8429   6.885   1.833   6.075 -0.8290  0.6392  0.1191
   89SAPC   H6R 8430   6.796   1.794   6.024 -0.1371 -1.9047  0.6946
   89SAPC   C27 8431   7.023   1.804   6.010  0.6242 -0.7993 -0.2396
   89SAPC   H7R 8432   7.095   1.797   6.094 -1.6013 -0.4996  1.8094
   89SAPC   H7S 8433   7.067   1.892   5.957  2.0011 -0.4380  1.3958
   89SAPC   C28 8434   7.018   1.680   5.923 -1.4979 -0.5684 -0.0031
   89SAPC   H8R 8435   7.039   1.583   5.971  1.4445 -0.7174 -1.3181
   89SAPC   C29 8436   7.006   1.683   5.787  0.2214 -0.0205 -0.3845
   89SAPC   H9R 8437   7.002   1.586   5.734 -1.9142 -0.5268  0.5738
   89SAPC  C210 8438   7.004   1.806   5.693  0.2439  0.2258  0.1383
   89SAPC  H10R 8439   7.076   1.795   5.609 -2.6042  0.9169 -2.6077
   89SAPC  H10S 8440   7.032   1.899   5.747  0.9358 -0.1538  0.4464
   89SAPC  C211 8441   6.861   1.820   5.632 -0.0515 -0.4293  0.6478
   89SAPC  H11R 8442   6.789   1.855   5.708 -0.4455  1.7988 -0.6629
   89SAPC  C212 8443   6.820   1.808   5.506 -0.3905 -0.0113  0.6328
   89SAPC  H12R 8444   6.719   1.830   5.470  0.2097  0.0051 -1.1294
   89SAPC  C213 8445   6.917   1.787   5.393  0.4618  0.1330 -0.0444
   89SAPC  H13R 8446   6.904   1.679   5.372  0.4994  0.1669 -0.2427
   89SAPC  H13S 8447   7.024   1.810   5.411 -0.0109  0.5806  2.7294
   89SAPC  C214 8448   6.876   1.864   5.270  0.3974  0.3259 -0.5112
   89SAPC  H14R 8449   6.890   1.971   5.290  0.0088  0.1575  0.7498
   89SAPC  C215 8450   6.808   1.820   5.158 -0.0088  0.4596 -0.6001
   89SAPC  H15R 8451   6.768   1.891   5.085 -0.3494  0.2163 -0.6515
   89SAPC  C216 8452   6.765   1.678   5.139 -0.0466  0.4492 -0.5183
   89SAPC  H16R 8453   6.658   1.673   5.111  0.4065  0.2535 -2.3527
   89SAPC  H16S 8454   6.772   1.611   5.227 -2.0701  1.9672  0.8794
   89SAPC  C217 8455   6.819   1.611   5.011 -0.3811 -0.0411  0.8207
   89SAPC  H17R 8456   6.910   1.661   4.973 -0.6058 -1.5975 -2.0396
   89SAPC  H17S 8457   6.740   1.632   4.935  0.8008  0.5758 -0.2889
   89SAPC  C218 8458   6.847   1.461   5.002  0.1529  0.1027 -0.1840
   89SAPC  H18R 8459   6.911   1.433   5.089  1.0064  0.7299 -0.6023
   89SAPC  H18S 8460   6.913   1.435   4.917 -1.2464 -1.9153 -0.7458
   89SAPC  C219 8461   6.716   1.382   4.983 -0.3184  0.3677 -0.2354
   89SAPC  H19R 8462   6.666   1.382   4.884 -0.0386 -2.3079 -0.4425
   89SAPC  H19S 8463   6.641   1.413   5.060  0.7158  1.9026  0.1935
   89SAPC  C220 8464   6.741   1.234   5.008  0.7629 -0.3876 -0.3311
   89SAPC  H20R 8465   6.814   1.195   4.934 -0.1940 -1.2865 -0.8229
   89SAPC  H20S 8466   6.645   1.181   4.989 -0.1382  0.3266  1.8531
   89SAPC  H20T 8467   6.765   1.209   5.113  1.2711 -0.0393 -0.3611
   89SAPC   C33 8468   7.487   1.900   6.617  0.2861  0.6292 -0.2513
   89SAPC   H3X 8469   7.577   1.842   6.587 -0.6319 -1.1929  0.3846
   89SAPC   H3Y 8470   7.536   1.974   6.684  0.4573  1.0664 -0.8473
   89SAPC   C34 8471   7.441   1.961   6.480  0.5990  0.1330 -0.2885
   89SAPC   H4X 8472   7.524   2.017   6.432  1.6843  0.7862  2.2144
   89SAPC   H4Y 8473   7.359   2.035   6.485  0.3224 -0.1540 -0.4771
   89SAPC   C35 8474   7.385   1.851   6.393  0.0804  0.4015  0.0569
   89SAPC   H5X 8475   7.276   1.833   6.408  0.2729 -1.1184 -0.2448
   89SAPC   H5Y 8476   7.441   1.762   6.427 -0.5336  0.2691  0.7592
   89SAPC   C36 8477   7.416   1.882   6.245 -0.2257 -0.2576  0.3131
   89SAPC   H6X 8478   7.519   1.919   6.228 -0.7830  0.7235 -1.1856
   89SAPC   H6Y 8479   7.363   1.976   6.217  1.7541  0.7478 -0.2751
   89SAPC   C37 8480   7.383   1.781   6.136 -0.4634 -0.0585 -0.6859
   89SAPC   H7X 8481   7.277   1.749   6.145 -0.9041  1.4467 -0.2650
   89SAPC   H7Y 8482   7.442   1.686   6.135 -1.0924 -0.4608 -0.0970
   89SAPC   C38 8483   7.402   1.842   5.997  0.4976 -0.0873 -0.1144
   89SAPC   H8X 8484   7.507   1.877   6.006  0.9352 -1.2327 -0.5200
   89SAPC   H8Y 8485   7.334   1.929   5.980  0.0678 -0.2994  0.4729
   89SAPC   C39 8486   7.396   1.752   5.877 -0.2201  0.1762 -0.3246
   89SAPC   H9X 8487   7.289   1.724   5.862  0.0843 -0.3255 -1.6375
   89SAPC   H9Y 8488   7.464   1.667   5.897  2.3759  2.4860  1.3621
   89SAPC  C310 8489   7.429   1.821   5.748 -0.4306  0.2009 -0.0974
   89SAPC  H10X 8490   7.535   1.853   5.752  0.7311 -3.2312 -0.4906
   89SAPC  H10Y 8491   7.352   1.901   5.748  0.9952  1.6482  1.1661
   89SAPC  C311 8492   7.413   1.735   5.625 -0.5103  0.5400 -0.2303
   89SAPC  H11X 8493   7.310   1.698   5.611 -0.0344 -1.1663  0.4807
   89SAPC  H11Y 8494   7.484   1.650   5.636 -1.5855 -0.1914  1.6221
   89SAPC  C312 8495   7.451   1.816   5.497 -0.1228 -0.4207 -0.0660
   89SAPC  H12X 8496   7.443   1.739   5.418 -2.2510 -0.8583  0.5193
   89SAPC  H12Y 8497   7.557   1.849   5.491  0.0416 -0.9146  0.1089
   89SAPC  C313 8498   7.374   1.943   5.474  0.6111  0.2102 -0.0572
   89SAPC  H13X 8499   7.382   2.009   5.562 -2.0048 -0.5600  0.8679
   89SAPC  H13Y 8500   7.273   1.896   5.479  1.7590 -2.4428  0.0054
   89SAPC  C314 8501   7.382   1.992   5.331 -0.0596 -0.7653 -0.6107
   89SAPC  H14X 8502   7.298   2.064   5.327  1.7295  1.6394  1.4244
   89SAPC  H14Y 8503   7.372   1.907   5.261  1.7785 -1.3818 -0.1901
   89SAPC  C315 8504   7.507   2.073   5.311 -0.9892 -0.0814  0.0788
   89SAPC  H15X 8505   7.597   2.009   5.321 -1.9405 -1.3259  0.8652
   89SAPC  H15Y 8506   7.523   2.155   5.384  2.3686 -0.5924  0.0878
   89SAPC  C316 8507   7.508   2.143   5.173 -0.0521  0.4104  0.3762
   89SAPC  H16X 8508   7.607   2.193   5.166  0.4090 -0.1613  2.2778
   89SAPC  H16Y 8509   7.432   2.223   5.160  0.2138  0.5458 -0.4081
   89SAPC  C317 8510   7.495   2.043   5.052 -0.8321 -0.1376  0.4409
   89SAPC  H17X 8511   7.391   2.002   5.052 -0.0471 -2.3271 -0.7308
   89SAPC  H17Y 8512   7.565   1.958   5.068  0.5678  0.4789 -1.9553
   89SAPC  C318 8513   7.509   2.108   4.915 -0.1852  0.3383  0.5966
   89SAPC  H18X 8514   7.616   2.138   4.909  0.1497 -1.0074 -1.1252
   89SAPC  H18Y 8515   7.430   2.183   4.894 -1.0193 -0.9546 -1.1327
   89SAPC  H18Z 8516   7.492   2.040   4.829  1.5652  2.0122 -1.1729
   90SAPC     N 8517   4.724   6.582   7.141 -0.5835  0.3711 -0.3311
   90SAPC   C12 8518   4.856   6.630   7.087 -0.1133  0.3887  0.1259
   90SAPC  H12A 8519   4.930   6.594   7.157  1.9787  1.4704 -1.3866
   90SAPC  H12B 8520   4.855   6.738   7.096 -0.8224  0.5591 -1.7190
   90SAPC   C13 8521   4.625   6.577   7.027 -0.2674 -0.3209  0.9214
   90SAPC  H13A 8522   4.668   6.548   6.932  1.2636 -1.7927  2.0244
   90SAPC  H13B 8523   4.543   6.512   7.050 -1.6969  0.9379 -0.3579
   90SAPC  H13C 8524   4.597   6.680   7.010  0.0727 -0.3439  0.1828
   90SAPC   C14 8525   4.741   6.435   7.172 -0.3411  0.1423 -0.5984
   90SAPC  H14A 8526   4.645   6.390   7.193  0.7101 -2.2571 -0.6540
   90SAPC  H14B 8527   4.799   6.383   7.098  2.5531  1.5308  0.5220
   90SAPC  H14C 8528   4.797   6.425   7.264 -0.8293  1.5580 -0.1071
   90SAPC   C15 8529   4.674   6.667   7.256 -0.5728  0.1596  0.3614
   90SAPC  H15A 8530   4.752   6.684   7.329  1.0588 -2.5928 -0.6003
   90SAPC  H15B 8531   4.651   6.766   7.218  1.5930  0.6609  0.2123
   90SAPC  H15C 8532   4.594   6.611   7.303 -0.6590  1.5130  1.8982
   90SAPC   C11 8533   4.908   6.609   6.942  0.0627 -0.0071 -0.1091
   90SAPC  H11A 8534   4.999   6.670   6.927 -0.8392  1.3026 -0.3664
   90SAPC  H11B 8535   4.823   6.651   6.884 -0.7586 -0.5501  0.6524
   90SAPC     P 8536   5.043   6.376   6.976  0.0666  0.2843  0.2329
   90SAPC   O13 8537   5.125   6.460   7.064 -0.4840 -0.2314  0.0131
   90SAPC   O14 8538   4.986   6.249   7.029  0.2860  0.4188 -0.8174
   90SAPC   O12 8539   4.929   6.468   6.917  0.2781  0.4378  0.2638
   90SAPC   O11 8540   5.129   6.333   6.852  0.6271 -0.3437  0.0232
   90SAPC    C1 8541   5.096   6.408   6.727 -0.8239 -0.0945 -0.0253
   90SAPC    HA 8542   5.083   6.518   6.739  2.6092  0.6083 -1.5752
   90SAPC    HB 8543   5.173   6.404   6.647  0.2736  2.8355  0.7697
   90SAPC    C2 8544   4.970   6.353   6.653 -0.4231  0.1071  0.0426
   90SAPC    HS 8545   4.882   6.355   6.722 -1.1003 -3.3536 -0.5238
   90SAPC   O21 8546   4.992   6.211   6.630  0.2763 -0.1822 -0.4263
   90SAPC   C21 8547   4.888   6.129   6.644  0.3623  0.5051 -0.4354
   90SAPC   O22 8548   4.770   6.164   6.663  0.1631 -0.0294  0.0466
   90SAPC   C22 8549   4.926   5.981   6.639 -0.3132 -0.5312  0.1738
   90SAPC   H2R 8550   4.982   5.955   6.731  1.0935  1.1344 -0.1577
   90SAPC   H2S 8551   4.828   5.928   6.636 -1.3698  1.3790 -0.7958
   90SAPC    C3 8552   4.926   6.424   6.528 -0.6459  0.2696  0.2516
   90SAPC    HX 8553   4.825   6.392   6.493 -1.0960 -0.9774  2.4965
   90SAPC    HY 8554   5.005   6.393   6.456  1.0831  1.3831  1.6048
   90SAPC   O31 8555   4.933   6.567   6.544  0.3274 -0.0442  0.2024
   90SAPC   C31 8556   4.814   6.620   6.578 -0.0986  0.3406 -0.6726
   90SAPC   O32 8557   4.718   6.561   6.631 -0.1074 -0.6110  0.6889
   90SAPC   C32 8558   4.809   6.774   6.535 -0.3339 -0.1318  0.0798
   90SAPC   H2X 8559   4.911   6.814   6.552  0.0919 -0.2091 -2.0575
   90SAPC   H2Y 8560   4.727   6.803   6.605 -1.2472  0.2146 -1.1038
   90SAPC   C23 8561   5.008   5.948   6.516  0.1168 -0.2255 -0.0563
   90SAPC   H3R 8562   5.045   5.844   6.525 -0.4742 -0.3167  1.4529
   90SAPC   H3S 8563   5.096   6.016   6.506 -0.5792  0.5943 -0.8303
   90SAPC   C24 8564   4.922   5.956   6.384  0.9802  0.8389  0.5103
   90SAPC   H4R 8565   4.875   6.057   6.378 -0.7991 -0.0285 -1.0816
   90SAPC   H4S 8566   4.834   5.889   6.399  0.5579  1.2064 -0.2937
   90SAPC   C25 8567   4.995   5.920   6.258 -0.0858  0.1819 -0.5821
   90SAPC   H5R 8568   5.046   5.822   6.250  1.3983  0.8336  0.4917
   90SAPC   C26 8569   5.005   5.997   6.149 -0.6372  0.2902 -0.2088
   90SAPC   H6R 8570   5.062   5.962   6.062 -0.7142  1.2243 -0.6501
   90SAPC   C27 8571   4.939   6.134   6.124  0.2145  0.6552  0.9322
   90SAPC   H7R 8572   4.997   6.176   6.039 -1.4678 -0.1328 -0.6895
   90SAPC   H7S 8573   4.946   6.198   6.214 -2.0975  0.9916  0.9270
   90SAPC   C28 8574   4.792   6.121   6.098 -0.1503 -0.0560  0.1113
   90SAPC   H8R 8575   4.739   6.025   6.104 -3.2699  1.6163  1.9637
   90SAPC   C29 8576   4.713   6.229   6.070  0.8262  0.9557 -0.3861
   90SAPC   H9R 8577   4.606   6.206   6.060  0.6747  1.0596  0.8327
   90SAPC  C210 8578   4.755   6.373   6.055 -0.2844  0.6698 -0.1871
   90SAPC  H10R 8579   4.764   6.407   5.949  2.7637  2.4817  0.5465
   90SAPC  H10S 8580   4.863   6.376   6.078 -0.3972 -2.4231  1.2127
   90SAPC  C211 8581   4.686   6.470   6.142 -0.0144  0.3039  0.4819
   90SAPC  H11R 8582   4.680   6.433   6.245 -1.7893 -1.7359 -0.2728
   90SAPC  C212 8583   4.626   6.590   6.113  0.2414  0.4364  0.5030
   90SAPC  H12R 8584   4.577   6.646   6.193  0.6141  1.4186  0.0706
   90SAPC  C213 8585   4.610   6.652   5.977 -0.8063  0.1186 -0.0646
   90SAPC  H13R 8586   4.506   6.690   5.966 -0.2859  1.2194 -1.4466
   90SAPC  H13S 8587   4.602   6.574   5.898 -0.9542 -0.0264  0.0905
   90SAPC  C214 8588   4.711   6.759   5.929 -0.3259  0.0860 -0.1210
   90SAPC  H14R 8589   4.777   6.793   6.010 -0.6104 -0.3003  0.2794
   90SAPC  C215 8590   4.717   6.833   5.816 -0.6398 -0.5230 -0.0090
   90SAPC  H15R 8591   4.800   6.903   5.800 -0.5568 -0.5707  0.2192
   90SAPC  C216 8592   4.624   6.803   5.699 -0.1365 -0.4160 -0.2662
   90SAPC  H16R 8593   4.580   6.897   5.659  2.3848 -0.3515 -3.3005
   90SAPC  H16S 8594   4.535   6.747   5.734 -1.7832  2.5637  0.6312
   90SAPC  C217 8595   4.681   6.719   5.586 -0.1202 -0.9155 -0.2698
   90SAPC  H17R 8596   4.700   6.616   5.620 -0.4535 -0.9424 -0.1583
   90SAPC  H17S 8597   4.771   6.763   5.539  0.3689 -1.1849  0.4026
   90SAPC  C218 8598   4.570   6.708   5.477  0.0188  0.3435  0.1350
   90SAPC  H18R 8599   4.629   6.677   5.389  0.1428  1.7123 -0.3007
   90SAPC  H18S 8600   4.530   6.810   5.458  0.0446  0.0300 -1.8075
   90SAPC  C219 8601   4.452   6.610   5.493 -0.0365 -0.0751  0.5086
   90SAPC  H19R 8602   4.395   6.644   5.583  0.4665 -0.3634  0.9413
   90SAPC  H19S 8603   4.490   6.510   5.525  1.3512 -1.0868 -3.6437
   90SAPC  C220 8604   4.373   6.587   5.365 -0.1765  0.3440  0.2437
   90SAPC  H20R 8605   4.439   6.527   5.300  4.0418  0.6980  3.7749
   90SAPC  H20S 8606   4.337   6.684   5.323  0.4129  0.9106  1.0120
   90SAPC  H20T 8607   4.279   6.531   5.386  0.1112 -0.3254 -0.2370
   90SAPC   C33 8608   4.771   6.792   6.389 -0.0960  0.3686  0.2667
   90SAPC   H3X 8609   4.675   6.736   6.382  0.1420 -0.1218  0.8272
   90SAPC   H3Y 8610   4.851   6.760   6.319 -1.3908  0.7416 -1.4514
   90SAPC   C34 8611   4.732   6.936   6.348 -0.1591  0.7702  0.0639
   90SAPC   H4X 8612   4.648   6.955   6.419  0.1371 -0.2027  0.7072
   90SAPC   H4Y 8613   4.704   6.922   6.242  1.0836  0.6438 -0.2543
   90SAPC   C35 8614   4.838   7.048   6.358 -0.0478 -0.4872 -0.0674
   90SAPC   H5X 8615   4.903   7.061   6.269  1.1936 -0.6732  0.7757
   90SAPC   H5Y 8616   4.902   7.035   6.448  1.4176  1.2770 -0.7825
   90SAPC   C36 8617   4.773   7.187   6.378 -0.6771 -0.0839 -0.1204
   90SAPC   H6X 8618   4.829   7.244   6.456 -0.7792  0.7302 -0.6305
   90SAPC   H6Y 8619   4.670   7.175   6.419 -0.9271 -0.4472 -0.8380
   90SAPC   C37 8620   4.755   7.269   6.254  0.3476 -0.3884 -0.1057
   90SAPC   H7X 8621   4.857   7.275   6.210  0.7566  1.4549  0.9709
   90SAPC   H7Y 8622   4.726   7.372   6.285  0.6696 -0.4474  0.4230
   90SAPC   C38 8623   4.662   7.197   6.151 -0.7138  0.3899  0.2142
   90SAPC   H8X 8624   4.571   7.170   6.209 -1.1839  1.6322  0.0832
   90SAPC   H8Y 8625   4.705   7.099   6.122 -1.8504 -0.0911  0.0847
   90SAPC   C39 8626   4.639   7.286   6.032  0.2474  0.1257 -0.0474
   90SAPC   H9X 8627   4.734   7.315   5.983  0.1098 -1.9415 -1.6626
   90SAPC   H9Y 8628   4.610   7.390   6.059  1.2461  0.2805  0.4945
   90SAPC  C310 8629   4.536   7.222   5.930  0.1069  0.1592 -0.4219
   90SAPC  H10X 8630   4.437   7.228   5.982 -0.4731  0.5584 -1.5380
   90SAPC  H10Y 8631   4.569   7.120   5.901 -0.2174  0.0750 -0.5068
   90SAPC  C311 8632   4.522   7.289   5.793  0.5968  0.3311  0.2752
   90SAPC  H11X 8633   4.452   7.375   5.783  0.8651  0.5963  0.6228
   90SAPC  H11Y 8634   4.471   7.227   5.716 -0.8639  2.1563 -0.3005
   90SAPC  C312 8635   4.651   7.335   5.728  0.3389  0.3429 -0.4027
   90SAPC  H12X 8636   4.706   7.241   5.704 -1.0796 -0.0936 -2.1388
   90SAPC  H12Y 8637   4.714   7.395   5.797  0.4923  1.1005 -1.1860
   90SAPC  C313 8638   4.638   7.417   5.604  0.3227  0.5227 -0.4614
   90SAPC  H13X 8639   4.739   7.452   5.573  1.5303 -2.2405 -0.0162
   90SAPC  H13Y 8640   4.583   7.511   5.620  3.0502  1.9769  1.2741
   90SAPC  C314 8641   4.586   7.332   5.482  0.2346  0.1386  0.1218
   90SAPC  H14X 8642   4.569   7.403   5.398 -0.9176  1.5918  1.5096
   90SAPC  H14Y 8643   4.491   7.284   5.513  1.5469 -4.3407 -1.9573
   90SAPC  C315 8644   4.659   7.202   5.447  0.3164 -0.2400  0.2173
   90SAPC  H15X 8645   4.625   7.126   5.520  1.6788 -1.4956 -0.3937
   90SAPC  H15Y 8646   4.768   7.222   5.458  0.2281  1.4559 -1.5277
   90SAPC  C316 8647   4.638   7.144   5.306 -0.1363 -0.0243  0.5200
   90SAPC  H16X 8648   4.635   7.226   5.231  1.5681  3.2402  3.7214
   90SAPC  H16Y 8649   4.534   7.103   5.307 -1.1655  2.4028 -0.0167
   90SAPC  C317 8650   4.740   7.042   5.267  0.2004 -0.3003 -0.0050
   90SAPC  H17X 8651   4.717   6.948   5.321 -2.5181 -0.1947 -0.8581
   90SAPC  H17Y 8652   4.840   7.068   5.309 -0.5808  0.1790  1.6654
   90SAPC  C318 8653   4.738   7.010   5.122  0.5823 -0.0629  1.0811
   90SAPC  H18X 8654   4.638   6.982   5.084  0.5949  1.2295 -0.0099
   90SAPC  H18Y 8655   4.809   6.928   5.099  2.0661  1.5311 -0.3826
   90SAPC  H18Z 8656   4.749   7.102   5.060 -4.1130  0.9266  1.3480
   91SAPC     N 8657   3.262   4.856   7.531 -0.5068 -0.4391 -0.5219
   91SAPC   C12 8658   3.121   4.811   7.495 -0.0463 -0.3284  0.2595
   91SAPC  H12A 8659   3.057   4.870   7.559  2.6399  0.7999  2.0583
   91SAPC  H12B 8660   3.116   4.708   7.527  0.6381 -0.3915  0.1783
   91SAPC   C13 8661   3.297   4.997   7.500  0.1754 -0.3789 -0.2086
   91SAPC  H13A 8662   3.404   5.009   7.491  0.3419 -1.0387  0.8485
   91SAPC  H13B 8663   3.247   5.020   7.407 -1.2940 -1.9761  0.1434
   91SAPC  H13C 8664   3.267   5.071   7.572 -0.2606  0.5134 -1.2710
   91SAPC   C14 8665   3.271   4.845   7.679 -0.5740  0.5607  0.0262
   91SAPC  H14A 8666   3.370   4.868   7.717 -0.3228 -3.2569  2.1437
   91SAPC  H14B 8667   3.204   4.920   7.719  0.8843  1.0846  1.6263
   91SAPC  H14C 8668   3.253   4.746   7.717  1.8351  0.7046  1.7652
   91SAPC   C15 8669   3.369   4.767   7.476  0.8290  0.4441 -0.0964
   91SAPC  H15A 8670   3.366   4.777   7.369  2.6014  0.3612 -0.1845
   91SAPC  H15B 8671   3.463   4.815   7.501 -0.2211  2.5934 -0.0393
   91SAPC  H15C 8672   3.353   4.663   7.499 -0.1913  0.6422  0.1328
   91SAPC   C11 8673   3.081   4.832   7.341 -0.1208 -0.6179 -0.7232
   91SAPC  H11A 8674   2.982   4.783   7.344  0.2635 -1.3697  2.0531
   91SAPC  H11B 8675   3.151   4.773   7.278  0.8434  0.7435 -0.9908
   91SAPC     P 8676   2.958   5.064   7.336  0.0056  0.1904 -0.0287
   91SAPC   O13 8677   2.937   5.049   7.482 -0.0067 -0.0986 -0.1823
   91SAPC   O14 8678   2.996   5.194   7.283  0.0985 -0.7022 -0.5808
   91SAPC   O12 8679   3.074   4.967   7.295  0.4631 -0.4944 -0.1061
   91SAPC   O11 8680   2.823   5.012   7.269  0.1062 -0.1230  0.5482
   91SAPC    C1 8681   2.812   4.938   7.145 -0.2892 -0.2760 -0.0889
   91SAPC    HA 8682   2.909   4.893   7.116  0.0391  0.7855 -0.6938
   91SAPC    HB 8683   2.732   4.862   7.157  0.9863 -1.2898  2.9918
   91SAPC    C2 8684   2.766   5.027   7.029 -0.2242 -0.8135 -0.7121
   91SAPC    HS 8685   2.740   4.966   6.939  0.1405 -1.8405 -0.1325
   91SAPC   O21 8686   2.866   5.123   6.991 -0.2149 -0.3245 -0.2505
   91SAPC   C21 8687   2.974   5.075   6.928  0.3073  0.4967 -0.2739
   91SAPC   O22 8688   2.993   4.962   6.894 -0.2643 -0.2886  0.3139
   91SAPC   C22 8689   3.051   5.207   6.884 -0.0788 -0.1208 -0.0330
   91SAPC   H2R 8690   2.984   5.279   6.833  0.6297  0.9371  0.5014
   91SAPC   H2S 8691   3.082   5.255   6.979 -2.3584 -0.5759  0.9954
   91SAPC    C3 8692   2.629   5.104   7.062 -0.2286  0.1019 -0.2765
   91SAPC    HX 8693   2.641   5.157   7.159  3.5903 -0.2036 -0.4015
   91SAPC    HY 8694   2.565   5.021   7.098  1.8918 -0.1560  3.4418
   91SAPC   O31 8695   2.583   5.178   6.949 -0.1289  0.0476 -0.0816
   91SAPC   C31 8696   2.618   5.307   6.955 -0.2821  0.7170  0.0656
   91SAPC   O32 8697   2.681   5.362   7.038 -0.0472 -0.5051 -1.2883
   91SAPC   C32 8698   2.547   5.364   6.836  0.2265  0.9915 -0.2515
   91SAPC   H2X 8699   2.550   5.474   6.856 -1.3157  1.1751 -0.8423
   91SAPC   H2Y 8700   2.438   5.342   6.838  0.4737 -0.5622 -1.5668
   91SAPC   C23 8701   3.167   5.179   6.788 -0.5003  0.6092 -0.2628
   91SAPC   H3R 8702   3.132   5.118   6.702  0.9361 -1.3580  0.4685
   91SAPC   H3S 8703   3.252   5.124   6.833 -1.0646  0.6830  0.9295
   91SAPC   C24 8704   3.219   5.311   6.732 -0.5219 -0.0497  0.0659
   91SAPC   H4R 8705   3.231   5.391   6.808  0.5736  0.2364 -0.3837
   91SAPC   H4S 8706   3.138   5.349   6.667 -0.6217 -1.2065 -0.5117
   91SAPC   C25 8707   3.346   5.286   6.661 -0.6842  0.4540  0.6457
   91SAPC   H5R 8708   3.425   5.234   6.717  1.4395  1.2659 -1.4498
   91SAPC   C26 8709   3.381   5.319   6.532 -0.2501  0.2864 -0.0701
   91SAPC   H6R 8710   3.483   5.307   6.494  0.0674 -1.0010  1.1064
   91SAPC   C27 8711   3.295   5.380   6.421 -0.3596  0.5086 -0.3439
   91SAPC   H7R 8712   3.353   5.431   6.342  0.2123  0.1143 -0.1879
   91SAPC   H7S 8713   3.223   5.460   6.446  1.0718  2.5635 -2.3569
   91SAPC   C28 8714   3.220   5.270   6.352  0.2748  0.2713 -0.3238
   91SAPC   H8R 8715   3.209   5.175   6.407  0.8989 -0.4684 -1.4261
   91SAPC   C29 8716   3.160   5.267   6.235 -0.3378 -0.2090  0.4843
   91SAPC   H9R 8717   3.119   5.174   6.192  0.6470 -1.1619  1.5222
   91SAPC  C210 8718   3.171   5.377   6.126  0.4251 -0.3765  0.0409
   91SAPC  H10R 8719   3.189   5.471   6.182  2.5376  0.0070 -1.1668
   91SAPC  H10S 8720   3.076   5.397   6.072  0.9448 -3.0899 -2.0905
   91SAPC  C211 8721   3.295   5.361   6.039  1.0530  0.4038 -0.7112
   91SAPC  H11R 8722   3.394   5.361   6.087  1.3158 -0.1350 -1.2330
   91SAPC  C212 8723   3.286   5.368   5.910 -0.0458 -0.2015  0.7644
   91SAPC  H12R 8724   3.382   5.368   5.856  0.0511  0.6286  0.9112
   91SAPC  C213 8725   3.163   5.379   5.823  0.2201  0.2596  0.5235
   91SAPC  H13R 8726   3.139   5.487   5.816  1.2797  0.5068  0.4890
   91SAPC  H13S 8727   3.080   5.324   5.873  1.3458 -0.4335  1.6799
   91SAPC  C214 8728   3.197   5.322   5.685  0.0022 -0.0907  0.1724
   91SAPC  H14R 8729   3.249   5.225   5.686 -2.5190 -1.5562 -0.7306
   91SAPC  C215 8730   3.148   5.364   5.562 -0.2298  0.3094  0.2333
   91SAPC  H15R 8731   3.189   5.318   5.471  3.8357 -0.5597  2.2865
   91SAPC  C216 8732   3.048   5.477   5.545  0.1510  0.6449  0.4995
   91SAPC  H16R 8733   3.092   5.572   5.507  0.8916 -0.8258 -2.6677
   91SAPC  H16S 8734   2.991   5.494   5.639  1.5184  1.4465  1.2101
   91SAPC  C217 8735   2.952   5.421   5.434  0.0809 -0.8035 -0.7596
   91SAPC  H17R 8736   2.916   5.325   5.476 -0.8876 -0.4418 -0.7244
   91SAPC  H17S 8737   2.997   5.413   5.333  0.2707  0.6957 -0.8210
   91SAPC  C218 8738   2.831   5.514   5.417 -0.1554  0.3957  0.1505
   91SAPC  H18R 8739   2.882   5.613   5.408  1.7060 -0.3738  1.5884
   91SAPC  H18S 8740   2.757   5.513   5.500  0.1195 -1.1846  0.4039
   91SAPC  C219 8741   2.761   5.486   5.280  0.7816 -0.6868 -0.0304
   91SAPC  H19R 8742   2.673   5.553   5.271  1.9572  0.8210 -0.8801
   91SAPC  H19S 8743   2.728   5.380   5.279  0.3046 -0.5476  0.5207
   91SAPC  C220 8744   2.842   5.524   5.152  0.1327  0.4960  0.3453
   91SAPC  H20R 8745   2.776   5.543   5.064  2.2842 -0.7159 -1.6525
   91SAPC  H20S 8746   2.905   5.439   5.118 -0.3495  1.0869 -2.2303
   91SAPC  H20T 8747   2.891   5.623   5.163 -1.8391  1.7242 -1.1693
   91SAPC   C33 8748   2.602   5.324   6.697 -0.2328 -0.3248  0.0115
   91SAPC   H3X 8749   2.522   5.351   6.626 -1.3291 -0.0710  1.2972
   91SAPC   H3Y 8750   2.603   5.214   6.685  0.0915 -0.2641 -0.5578
   91SAPC   C34 8751   2.735   5.387   6.656  0.0877 -0.6762  0.6291
   91SAPC   H4X 8752   2.799   5.355   6.740 -0.9012 -1.3699  1.1346
   91SAPC   H4Y 8753   2.723   5.498   6.653  0.3163 -0.6651 -0.8202
   91SAPC   C35 8754   2.780   5.320   6.523 -0.3433 -0.3075 -0.1114
   91SAPC   H5X 8755   2.760   5.211   6.533 -0.7734 -0.5609 -3.0660
   91SAPC   H5Y 8756   2.886   5.340   6.496 -0.8232 -0.4163 -2.2319
   91SAPC   C36 8757   2.707   5.365   6.399  0.1595  0.3247  0.3029
   91SAPC   H6X 8758   2.728   5.474   6.399  2.3932 -0.0430 -1.0496
   91SAPC   H6Y 8759   2.598   5.349   6.414  0.0412 -0.9728 -1.5694
   91SAPC   C37 8760   2.771   5.313   6.272  0.4935  0.3646 -0.2930
   91SAPC   H7X 8761   2.751   5.204   6.283 -1.1062  0.9152  3.6612
   91SAPC   H7Y 8762   2.881   5.329   6.269  0.6473 -0.6405 -0.3549
   91SAPC   C38 8763   2.700   5.363   6.142 -0.3970  0.0725 -0.2026
   91SAPC   H8X 8764   2.694   5.473   6.132 -1.5568  0.6051  4.3594
   91SAPC   H8Y 8765   2.593   5.333   6.147 -1.3614  3.3984  2.6153
   91SAPC   C39 8766   2.777   5.304   6.019  0.2700  0.3166 -0.1134
   91SAPC   H9X 8767   2.772   5.194   6.032 -0.9369 -0.1485 -3.5371
   91SAPC   H9Y 8768   2.882   5.338   6.013  0.5034 -0.1262  1.0859
   91SAPC  C310 8769   2.694   5.334   5.887  0.2629  0.5970 -0.0182
   91SAPC  H10X 8770   2.656   5.439   5.895  0.7045  0.8980 -1.4760
   91SAPC  H10Y 8771   2.596   5.283   5.885  0.9059 -0.6719  0.2141
   91SAPC  C311 8772   2.760   5.310   5.754 -0.0590 -0.1565  0.5760
   91SAPC  H11X 8773   2.866   5.338   5.735 -0.3794  0.3286 -0.5840
   91SAPC  H11Y 8774   2.705   5.348   5.666  3.3793 -1.0904 -2.2163
   91SAPC  C312 8775   2.771   5.155   5.734 -0.1980  0.7368 -0.1580
   91SAPC  H12X 8776   2.755   5.104   5.831 -1.0908  2.3788  0.5923
   91SAPC  H12Y 8777   2.873   5.131   5.697 -1.1070 -2.0810 -1.0906
   91SAPC  C313 8778   2.668   5.091   5.639 -0.3415 -0.0203  0.3506
   91SAPC  H13X 8779   2.564   5.113   5.672 -0.1036 -0.1379  1.1884
   91SAPC  H13Y 8780   2.679   4.981   5.647 -0.4118  0.0337  1.2124
   91SAPC  C314 8781   2.678   5.137   5.486  0.1371 -0.9425 -0.1573
   91SAPC  H14X 8782   2.772   5.092   5.448 -0.1149 -0.4273 -1.4294
   91SAPC  H14Y 8783   2.660   5.246   5.474 -1.9467 -1.1343  0.6894
   91SAPC  C315 8784   2.562   5.083   5.400  0.2422 -0.0535  0.2009
   91SAPC  H15X 8785   2.556   5.134   5.301  1.0333 -0.3134  0.0133
   91SAPC  H15Y 8786   2.468   5.101   5.457  0.9079  1.0837  0.9901
   91SAPC  C316 8787   2.590   4.933   5.373  0.3325 -0.0896 -0.8397
   91SAPC  H16X 8788   2.609   4.875   5.466  3.0682 -0.3962 -1.4935
   91SAPC  H16Y 8789   2.681   4.921   5.310 -0.5855  0.6018 -2.3682
   91SAPC  C317 8790   2.464   4.862   5.320 -0.1516  0.5444  0.9615
   91SAPC  H17X 8791   2.435   4.914   5.226  2.0193 -1.2619 -0.8147
   91SAPC  H17Y 8792   2.377   4.870   5.389  0.2301 -0.8982  1.6542
   91SAPC  C318 8793   2.476   4.707   5.303  0.0523  0.5199  0.5765
   91SAPC  H18X 8794   2.548   4.671   5.227  0.6502 -1.3370  1.9485
   91SAPC  H18Y 8795   2.384   4.650   5.280  1.3687 -0.8346 -1.6397
   91SAPC  H18Z 8796   2.504   4.681   5.407 -1.1120  0.5533  0.9131
   92SAPC     N 8797   3.309   3.560   7.420 -0.1137  0.1113  0.0349
   92SAPC   C12 8798   3.262   3.611   7.289 -0.5533 -0.6954 -0.2218
   92SAPC  H12A 8799   3.328   3.671   7.229 -2.3688  0.2701 -1.3439
   92SAPC  H12B 8800   3.174   3.670   7.308 -0.6639 -1.0519  0.4061
   92SAPC   C13 8801   3.364   3.679   7.508  0.3570  0.3550  0.1016
   92SAPC  H13A 8802   3.432   3.637   7.582  0.6375  1.8293  0.7080
   92SAPC  H13B 8803   3.429   3.737   7.445  1.0920 -0.0998  0.4125
   92SAPC  H13C 8804   3.288   3.742   7.551 -1.3185 -0.7771 -1.0617
   92SAPC   C14 8805   3.194   3.494   7.487 -0.0001 -0.2543 -0.0706
   92SAPC  H14A 8806   3.219   3.454   7.584  1.0567 -2.7842 -1.2862
   92SAPC  H14B 8807   3.108   3.559   7.492  0.3323  0.1223  2.2138
   92SAPC  H14C 8808   3.161   3.407   7.433 -1.3616  1.9812 -3.1415
   92SAPC   C15 8809   3.425   3.470   7.396 -0.4575 -0.0401  0.3784
   92SAPC  H15A 8810   3.488   3.529   7.331 -3.5459  0.6937 -2.2124
   92SAPC  H15B 8811   3.476   3.434   7.484  1.0021  0.9328 -0.0315
   92SAPC  H15C 8812   3.390   3.380   7.348  0.7054 -1.4387  2.0552
   92SAPC   C11 8813   3.226   3.501   7.191  1.0702  0.5172  0.9507
   92SAPC  H11A 8814   3.310   3.433   7.164  0.1837 -0.9190  1.6790
   92SAPC  H11B 8815   3.197   3.554   7.098 -1.3769 -0.9245  0.8160
   92SAPC     P 8816   2.964   3.457   7.199 -0.4056  0.3529 -0.2360
   92SAPC   O13 8817   2.872   3.365   7.275  0.3651 -0.0363  0.2357
   92SAPC   O14 8818   2.944   3.600   7.226  0.0702 -0.3937 -0.1906
   92SAPC   O12 8819   3.114   3.411   7.220  0.2497 -0.1401  0.0760
   92SAPC   O11 8820   2.951   3.430   7.044  0.3644  0.0632 -0.2799
   92SAPC    C1 8821   2.979   3.297   6.992  0.0166 -0.4561 -0.7547
   92SAPC    HA 8822   3.002   3.218   7.066 -0.3492  1.4999  1.6071
   92SAPC    HB 8823   2.887   3.261   6.940 -0.8051  1.0846 -0.4620
   92SAPC    C2 8824   3.106   3.291   6.901 -0.2428 -0.0548  0.4076
   92SAPC    HS 8825   3.192   3.331   6.957  0.0962  2.1389 -1.5189
   92SAPC   O21 8826   3.086   3.375   6.782  0.2881 -0.7667  0.4994
   92SAPC   C21 8827   3.198   3.409   6.721 -0.0404  0.1476  0.5029
   92SAPC   O22 8828   3.310   3.372   6.747  0.2860  0.6700 -0.1442
   92SAPC   C22 8829   3.166   3.506   6.603 -0.8282 -0.0744  0.3548
   92SAPC   H2R 8830   3.106   3.444   6.533  0.1418 -1.2366  0.5236
   92SAPC   H2S 8831   3.097   3.587   6.635 -0.5540  0.2554  0.1309
   92SAPC    C3 8832   3.142   3.142   6.863  0.9727 -1.1900 -0.2539
   92SAPC    HX 8833   3.159   3.088   6.959 -0.1242  0.5639  0.9784
   92SAPC    HY 8834   3.236   3.150   6.805  0.1837 -0.4081 -1.4571
   92SAPC   O31 8835   3.030   3.089   6.789  0.0984  0.1923 -0.0608
   92SAPC   C31 8836   3.053   2.981   6.721 -0.9722  0.4915 -0.4889
   92SAPC   O32 8837   3.165   2.928   6.713  0.7201 -0.1830  0.9919
   92SAPC   C32 8838   2.922   2.933   6.643 -0.2724  0.3911  0.1521
   92SAPC   H2X 8839   2.866   3.028   6.628  2.7208  2.0952 -1.0134
   92SAPC   H2Y 8840   2.873   2.878   6.726 -0.8423  0.2524 -0.2686
   92SAPC   C23 8841   3.291   3.562   6.540 -0.3765 -0.9662  0.2720
   92SAPC   H3R 8842   3.354   3.478   6.502 -0.4085 -0.9915  0.2748
   92SAPC   H3S 8843   3.349   3.604   6.624 -0.9179 -1.1204  0.7228
   92SAPC   C24 8844   3.274   3.645   6.412 -0.1842  0.6879 -0.1075
   92SAPC   H4R 8845   3.234   3.745   6.439 -0.0618  0.6180  0.3558
   92SAPC   H4S 8846   3.191   3.593   6.360 -0.6486 -1.8658  2.8605
   92SAPC   C25 8847   3.406   3.660   6.341 -0.1022 -0.5230 -0.1425
   92SAPC   H5R 8848   3.501   3.665   6.396  2.0085 -0.9275 -3.4143
   92SAPC   C26 8849   3.417   3.662   6.207 -0.4132 -0.0735  0.5889
   92SAPC   H6R 8850   3.519   3.676   6.167 -0.5293  0.3860  0.4399
   92SAPC   C27 8851   3.292   3.659   6.116 -0.3633 -0.6654  0.2014
   92SAPC   H7R 8852   3.218   3.741   6.135 -0.7082 -0.6393 -1.1938
   92SAPC   H7S 8853   3.241   3.568   6.153  0.4382 -1.0372  0.4174
   92SAPC   C28 8854   3.339   3.631   5.975  0.9857 -0.3398  0.4215
   92SAPC   H8R 8855   3.396   3.539   5.959  0.2888 -0.9510  1.3422
   92SAPC   C29 8856   3.315   3.698   5.859 -0.2039  0.1749 -0.6029
   92SAPC   H9R 8857   3.350   3.642   5.771  0.9482 -2.8692  1.6310
   92SAPC  C210 8858   3.245   3.833   5.856 -0.0865  0.1404 -0.4861
   92SAPC  H10R 8859   3.281   3.896   5.940 -1.8510  0.1267  0.3170
   92SAPC  H10S 8860   3.137   3.826   5.879  0.2238  1.0692  1.4548
   92SAPC  C211 8861   3.272   3.893   5.715  0.8126 -0.5333  0.3011
   92SAPC  H11R 8862   3.347   3.850   5.648  1.2380 -0.5854  0.8030
   92SAPC  C212 8863   3.219   4.004   5.668  0.2213  0.9818  0.0787
   92SAPC  H12R 8864   3.254   4.036   5.569  1.5815 -0.8491 -0.0710
   92SAPC  C213 8865   3.112   4.083   5.738 -0.2055 -0.9871  0.1847
   92SAPC  H13R 8866   3.128   4.089   5.848 -2.9751 -1.6498  0.7004
   92SAPC  H13S 8867   3.009   4.043   5.722 -0.4267 -0.8011  1.0810
   92SAPC  C214 8868   3.102   4.218   5.678 -0.5792  0.4981  0.4866
   92SAPC  H14R 8869   3.079   4.220   5.571  0.1655 -0.3652  0.2954
   92SAPC  C215 8870   3.097   4.334   5.754 -0.3700  0.0982 -0.2233
   92SAPC  H15R 8871   3.110   4.433   5.708 -2.1880  1.6559  2.3720
   92SAPC  C216 8872   3.153   4.335   5.894  0.0744 -0.9704  0.2740
   92SAPC  H16R 8873   3.219   4.424   5.898  1.0413 -1.6734  0.2091
   92SAPC  H16S 8874   3.211   4.247   5.927 -1.3328 -1.1106  2.6307
   92SAPC  C217 8875   3.041   4.339   5.997  0.6386 -0.0714 -0.1262
   92SAPC  H17R 8876   2.949   4.282   5.973 -1.1924  1.5586  2.4969
   92SAPC  H17S 8877   3.012   4.445   6.014 -0.1820 -0.3351  0.1681
   92SAPC  C218 8878   3.092   4.292   6.140 -0.1145 -0.0876 -0.2165
   92SAPC  H18R 8879   3.189   4.340   6.164  0.3335 -1.4193  0.7425
   92SAPC  H18S 8880   3.119   4.186   6.124  0.8800 -0.1596  1.7615
   92SAPC  C219 8881   2.988   4.317   6.244  0.6671  0.5999 -0.4097
   92SAPC  H19R 8882   2.896   4.265   6.210  0.4767 -0.3985  1.4870
   92SAPC  H19S 8883   2.955   4.423   6.245 -2.8979 -0.3912  1.1834
   92SAPC  C220 8884   3.022   4.272   6.388  0.4243  0.6088  0.2003
   92SAPC  H20R 8885   2.943   4.295   6.462 -1.2498 -4.7955  0.5018
   92SAPC  H20S 8886   3.121   4.314   6.417  2.5418 -2.3970 -1.9687
   92SAPC  H20T 8887   3.037   4.162   6.382  2.7753  0.9308 -1.3105
   92SAPC   C33 8888   2.944   2.855   6.511 -0.4613 -0.2526 -0.5059
   92SAPC   H3X 8889   2.865   2.777   6.502  0.2686 -1.0432 -0.2887
   92SAPC   H3Y 8890   3.047   2.813   6.516  0.6616  2.4483  1.1469
   92SAPC   C34 8891   2.952   2.946   6.386  0.7787  0.2381 -0.3726
   92SAPC   H4X 8892   3.023   3.031   6.389 -2.5453  3.3207 -0.9716
   92SAPC   H4Y 8893   2.849   2.989   6.382 -1.3054 -4.1477 -0.2889
   92SAPC   C35 8894   2.958   2.871   6.246  0.2400 -0.0129 -0.4007
   92SAPC   H5X 8895   2.872   2.801   6.241 -0.0256  0.2836 -0.0998
   92SAPC   H5Y 8896   3.053   2.818   6.267  0.6321  0.3146 -1.3082
   92SAPC   C36 8897   2.958   2.969   6.133  0.1358 -0.3283  0.1819
   92SAPC   H6X 8898   3.025   3.057   6.141 -0.6669  0.5080 -1.6281
   92SAPC   H6Y 8899   2.857   3.014   6.119  0.5019  1.0861  1.8258
   92SAPC   C37 8900   2.997   2.910   5.994  0.1733  0.2567  0.7402
   92SAPC   H7X 8901   2.932   2.821   5.977 -0.8798  1.0699  0.4099
   92SAPC   H7Y 8902   3.099   2.873   5.970  0.7073  1.0235  1.7389
   92SAPC   C38 8903   2.974   3.007   5.875  0.5656  0.3056  0.3215
   92SAPC   H8X 8904   3.055   3.082   5.880  1.4448 -0.6977  2.9042
   92SAPC   H8Y 8905   2.878   3.063   5.884 -0.2924 -0.7230 -1.8692
   92SAPC   C39 8906   2.996   2.947   5.734 -0.1277  0.3672 -0.3166
   92SAPC   H9X 8907   2.940   2.852   5.725 -3.4727  2.2657 -1.2983
   92SAPC   H9Y 8908   3.104   2.942   5.711 -0.3364  0.4277 -1.3607
   92SAPC  C310 8909   2.940   3.033   5.629  0.2752  0.3935  0.1611
   92SAPC  H10X 8910   2.999   3.127   5.633  0.4298  0.3826 -1.1536
   92SAPC  H10Y 8911   2.834   3.059   5.649  0.6907  0.2469  2.8019
   92SAPC  C311 8912   2.962   2.979   5.485 -0.6686 -0.1297  0.2843
   92SAPC  H11X 8913   2.911   2.881   5.473 -0.5354 -0.0100 -1.5239
   92SAPC  H11Y 8914   3.070   2.973   5.459 -0.3025 -0.3263  1.7491
   92SAPC  C312 8915   2.889   3.069   5.386  0.3328  0.4140 -0.3962
   92SAPC  H12X 8916   2.924   3.173   5.400 -0.2924  0.3189  2.5852
   92SAPC  H12Y 8917   2.779   3.060   5.403  0.0511  1.3671 -1.5764
   92SAPC  C313 8918   2.917   3.022   5.245 -0.5374 -0.3038 -0.1451
   92SAPC  H13X 8919   2.901   2.912   5.241 -3.5146  0.0096  0.5301
   92SAPC  H13Y 8920   3.020   3.047   5.212 -0.3318 -0.1436  0.5967
   92SAPC  C314 8921   2.841   3.106   5.137  0.6201  0.5391 -0.1762
   92SAPC  H14X 8922   2.739   3.064   5.120  1.1498 -0.4234 -1.1329
   92SAPC  H14Y 8923   2.893   3.086   5.041 -0.1144 -0.4208 -0.4003
   92SAPC  C315 8924   2.842   3.258   5.157  0.4484 -0.2636  0.0718
   92SAPC  H15X 8925   2.948   3.281   5.182  1.2592 -2.8416 -0.5813
   92SAPC  H15Y 8926   2.769   3.289   5.235 -1.9558 -1.7220 -1.4607
   92SAPC  C316 8927   2.804   3.328   5.019  0.1538  0.3979 -0.0732
   92SAPC  H16X 8928   2.864   3.281   4.938 -0.5408 -1.3378  0.3701
   92SAPC  H16Y 8929   2.830   3.436   5.030  0.1617  0.3989 -0.1003
   92SAPC  C317 8930   2.652   3.318   4.996 -0.0504 -0.0632  0.3659
   92SAPC  H17X 8931   2.593   3.381   5.066 -0.8862  1.9016 -1.9746
   92SAPC  H17Y 8932   2.625   3.210   4.990  0.9764 -0.3060 -0.1681
   92SAPC  C318 8933   2.607   3.371   4.859 -0.2603  0.0527 -0.3494
   92SAPC  H18X 8934   2.519   3.317   4.819  0.2444 -0.5730 -0.6524
   92SAPC  H18Y 8935   2.685   3.357   4.781 -0.4715  0.2649 -0.5995
   92SAPC  H18Z 8936   2.574   3.476   4.864 -0.1026  0.2207 -2.1408
   93SAPC     N 8937   4.506   0.280   7.590  0.4716  0.4067 -0.2391
   93SAPC   C12 8938   4.390   0.225   7.675 -0.8470 -0.1872 -0.2065
   93SAPC  H12A 8939   4.366   0.299   7.750 -0.0958  2.0941 -2.0935
   93SAPC  H12B 8940   4.412   0.136   7.732  1.0875  1.1857  1.3714
   93SAPC   C13 8941   4.468   0.412   7.522 -0.4828  0.4860  0.1401
   93SAPC  H13A 8942   4.387   0.398   7.453  0.9125 -0.2891 -1.3948
   93SAPC  H13B 8943   4.458   0.489   7.598  1.2395 -0.1475  1.0602
   93SAPC  H13C 8944   4.562   0.440   7.476 -0.2636  0.7128  0.7062
   93SAPC   C14 8945   4.626   0.303   7.661  0.1061  0.0519 -0.0664
   93SAPC  H14A 8946   4.699   0.354   7.599 -0.5882  1.2282  0.0663
   93SAPC  H14B 8947   4.616   0.365   7.748  2.6229  0.6879 -0.1325
   93SAPC  H14C 8948   4.676   0.211   7.688  0.1693 -0.5286 -2.0021
   93SAPC   C15 8949   4.536   0.180   7.482  0.3977  0.0149  1.0982
   93SAPC  H15A 8950   4.573   0.084   7.514  1.6421 -0.3892 -1.2717
   93SAPC  H15B 8951   4.451   0.151   7.423  1.9365 -0.6883 -0.8926
   93SAPC  H15C 8952   4.608   0.225   7.414 -0.0288 -0.1405  0.5368
   93SAPC   C11 8953   4.253   0.189   7.617  0.6517 -0.1658 -0.5610
   93SAPC  H11A 8954   4.209   0.285   7.583 -0.2055  0.1449  1.2908
   93SAPC  H11B 8955   4.176   0.158   7.692  0.1956 -0.4299 -1.1240
   93SAPC     P 8956   4.272  -0.051   7.545 -0.1305  0.4396 -0.3075
   93SAPC   O13 8957   4.401  -0.082   7.612  0.5062  0.4459 -0.0163
   93SAPC   O14 8958   4.148  -0.086   7.613  0.3527  0.6828 -0.7459
   93SAPC   O12 8959   4.266   0.098   7.516 -0.3092 -0.1778  0.1448
   93SAPC   O11 8960   4.268  -0.128   7.403 -0.2933  0.5910  0.5186
   93SAPC    C1 8961   4.277  -0.048   7.280 -0.0944  0.3127  0.0637
   93SAPC    HA 8962   4.354   0.033   7.285 -0.2542  0.4775 -0.1475
   93SAPC    HB 8963   4.313  -0.122   7.205 -0.6790 -0.1728  0.2605
   93SAPC    C2 8964   4.145   0.024   7.230  0.0478 -0.9171  0.1714
   93SAPC    HS 8965   4.118   0.099   7.307 -4.0441 -1.3426 -0.6118
   93SAPC   O21 8966   4.027  -0.061   7.216 -0.4189  0.2950 -0.5562
   93SAPC   C21 8967   3.929  -0.044   7.290  0.6286 -0.2155 -0.8318
   93SAPC   O22 8968   3.898   0.052   7.360 -0.2084 -0.3016  0.2954
   93SAPC   C22 8969   3.847  -0.173   7.262  0.6405 -0.1163  0.9750
   93SAPC   H2R 8970   3.876  -0.223   7.167 -0.4415 -0.1965  0.6703
   93SAPC   H2S 8971   3.863  -0.249   7.341 -1.1439 -1.4785  0.0868
   93SAPC    C3 8972   4.173   0.107   7.102  0.2954 -0.1472  0.0382
   93SAPC    HX 8973   4.216   0.040   7.024  0.4732 -1.5336  1.2729
   93SAPC    HY 8974   4.258   0.175   7.125  1.1904 -1.7257  1.6293
   93SAPC   O31 8975   4.056   0.167   7.049 -0.7878 -0.1716  0.0847
   93SAPC   C31 8976   4.027   0.289   7.089 -0.4634  0.4296 -0.2639
   93SAPC   O32 8977   4.090   0.350   7.175 -0.1514  0.6982 -0.1870
   93SAPC   C32 8978   3.907   0.341   7.018 -0.3619 -0.8106  0.0942
   93SAPC   H2X 8979   3.831   0.262   7.039 -1.1297 -0.5261 -1.4959
   93SAPC   H2Y 8980   3.925   0.320   6.911  1.6206 -0.7292  0.3894
   93SAPC   C23 8981   3.691  -0.135   7.256  0.5565  0.5128  0.9044
   93SAPC   H3R 8982   3.655  -0.048   7.315 -4.1254 -2.0793  2.3637
   93SAPC   H3S 8983   3.638  -0.229   7.283  1.1910  0.6433  2.7601
   93SAPC   C24 8984   3.647  -0.106   7.112 -0.6594  0.2594  0.9457
   93SAPC   H4R 8985   3.679  -0.190   7.046  2.3565  1.5112  0.6538
   93SAPC   H4S 8986   3.701  -0.015   7.078 -1.1190  0.2419  0.1336
   93SAPC   C25 8987   3.502  -0.073   7.095  0.2470  0.5872 -0.4433
   93SAPC   H5R 8988   3.441  -0.082   7.186  1.8820  0.7163  0.7097
   93SAPC   C26 8989   3.441  -0.062   6.974 -0.1381 -0.0729 -0.3040
   93SAPC   H6R 8990   3.331  -0.058   6.982  0.0451  1.6074  2.4760
   93SAPC   C27 8991   3.510  -0.085   6.840 -0.2132 -0.2554 -0.4136
   93SAPC   H7R 8992   3.462  -0.181   6.813 -3.4431  1.7790 -2.5933
   93SAPC   H7S 8993   3.619  -0.100   6.858  0.1733  1.2421 -1.3101
   93SAPC   C28 8994   3.486   0.021   6.738  0.1154 -0.1090 -0.5839
   93SAPC   H8R 8995   3.540   0.114   6.763  3.1425 -2.1424  1.2350
   93SAPC   C29 8996   3.416   0.019   6.625 -0.3552 -0.4145 -0.5984
   93SAPC   H9R 8997   3.405   0.111   6.566  1.4294  0.3171  0.1339
   93SAPC  C210 8998   3.324  -0.085   6.568  0.3875  0.1208  0.1878
   93SAPC  H10R 8999   3.218  -0.050   6.571 -0.3056 -1.8749  1.9179
   93SAPC  H10S 9000   3.328  -0.168   6.641  2.2434  0.1165  0.1199
   93SAPC  C211 9001   3.360  -0.135   6.436 -0.4426  0.6826 -0.1719
   93SAPC  H11R 9002   3.409  -0.233   6.438  0.0518  0.9220 -0.2687
   93SAPC  C212 9003   3.336  -0.078   6.318  0.2235  0.1135 -0.0402
   93SAPC  H12R 9004   3.397  -0.117   6.235 -0.4953 -1.6815  0.2341
   93SAPC  C213 9005   3.259   0.047   6.295  0.0263 -0.0692  0.3714
   93SAPC  H13R 9006   3.226   0.103   6.385  1.9442  2.7788 -0.5517
   93SAPC  H13S 9007   3.165   0.012   6.247 -1.9712  2.2019  2.3572
   93SAPC  C214 9008   3.333   0.133   6.199  0.0544 -0.0050  0.2049
   93SAPC  H14R 9009   3.383   0.218   6.248  1.0542 -2.5826  4.1036
   93SAPC  C215 9010   3.355   0.118   6.068 -0.4214  0.7418  0.0464
   93SAPC  H15R 9011   3.402   0.205   6.019  0.5963 -1.4406 -3.1557
   93SAPC  C216 9012   3.320   0.001   5.975 -0.0683 -0.3032  0.2251
   93SAPC  H16R 9013   3.330  -0.095   6.031  2.4264  0.9153  2.0828
   93SAPC  H16S 9014   3.399   0.007   5.897 -0.9333  1.9955 -0.5538
   93SAPC  C217 9015   3.185   0.014   5.901 -0.7652  0.0683  0.0124
   93SAPC  H17R 9016   3.190   0.115   5.857  1.6373 -0.4644 -1.1164
   93SAPC  H17S 9017   3.096   0.005   5.966 -1.0115 -2.2306 -0.5464
   93SAPC  C218 9018   3.170  -0.085   5.780  0.3774 -0.8554 -0.4169
   93SAPC  H18R 9019   3.212  -0.034   5.691 -0.7607 -1.5271 -1.3688
   93SAPC  H18S 9020   3.061  -0.096   5.763  0.2420 -3.0409  1.4324
   93SAPC  C219 9021   3.225  -0.225   5.810  0.0437  0.4418  0.5467
   93SAPC  H19R 9022   3.330  -0.235   5.846 -0.8449  1.1741  3.6217
   93SAPC  H19S 9023   3.227  -0.276   5.711 -0.0470  2.4324 -0.5270
   93SAPC  C220 9024   3.145  -0.298   5.920 -1.0733  0.3204 -0.2784
   93SAPC  H20R 9025   3.195  -0.395   5.943 -0.8311  0.6719  0.7454
   93SAPC  H20S 9026   3.043  -0.328   5.889 -1.1946 -1.5552  1.6712
   93SAPC  H20T 9027   3.132  -0.234   6.009 -0.1329 -0.2679  0.3018
   93SAPC   C33 9028   3.859   0.492   7.037 -0.0891  0.0739 -0.1469
   93SAPC   H3X 9029   3.948   0.559   7.046 -0.4611  0.3679  2.1602
   93SAPC   H3Y 9030   3.802   0.507   7.132 -0.1699  0.6816 -0.2842
   93SAPC   C34 9031   3.764   0.533   6.916  0.2554  0.0181 -0.7229
   93SAPC   H4X 9032   3.824   0.557   6.825  2.5196  0.5404  0.8097
   93SAPC   H4Y 9033   3.723   0.632   6.947  0.3336 -0.3122  0.4489
   93SAPC   C35 9034   3.651   0.438   6.876 -0.5151  0.0199  0.2262
   93SAPC   H5X 9035   3.587   0.398   6.958 -0.4878 -2.6408 -0.9699
   93SAPC   H5Y 9036   3.695   0.343   6.841 -0.7841 -0.2268  0.5482
   93SAPC   C36 9037   3.562   0.484   6.760  0.1233  0.2159 -0.0304
   93SAPC   H6X 9038   3.529   0.587   6.783  1.8555  0.4699  1.5372
   93SAPC   H6Y 9039   3.471   0.419   6.758  0.5957 -0.4413 -1.4773
   93SAPC   C37 9040   3.628   0.490   6.625 -0.5414  0.1402  0.0983
   93SAPC   H7X 9041   3.662   0.389   6.594 -3.1606 -0.9969  0.6989
   93SAPC   H7Y 9042   3.718   0.555   6.617  0.2969 -1.0192 -0.1398
   93SAPC   C38 9043   3.531   0.518   6.504 -0.1628 -0.0931 -0.1749
   93SAPC   H8X 9044   3.491   0.617   6.533  3.1623  2.3392 -3.0640
   93SAPC   H8Y 9045   3.457   0.437   6.492  1.7608 -1.9444 -0.1553
   93SAPC   C39 9046   3.624   0.527   6.380  0.5804 -0.7981  0.1259
   93SAPC   H9X 9047   3.673   0.430   6.356  2.4740  0.2864 -0.6019
   93SAPC   H9Y 9048   3.704   0.600   6.405  0.4147 -0.7182  0.4151
   93SAPC  C310 9049   3.549   0.573   6.248  0.0231 -0.3197 -0.2912
   93SAPC  H10X 9050   3.483   0.658   6.272  0.2057  0.0123 -0.9452
   93SAPC  H10Y 9051   3.477   0.498   6.209 -1.0461  0.4300  0.1972
   93SAPC  C311 9052   3.653   0.619   6.147  0.1666 -0.2659  0.2389
   93SAPC  H11X 9053   3.736   0.545   6.148 -0.4807 -1.0091 -0.1182
   93SAPC  H11Y 9054   3.687   0.721   6.175 -0.8427 -0.4019  2.0513
   93SAPC  C312 9055   3.603   0.631   6.000  0.2810  0.6438 -1.4112
   93SAPC  H12X 9056   3.537   0.720   5.998  2.3882  2.4636  1.7284
   93SAPC  H12Y 9057   3.537   0.545   5.976 -0.0016  0.3278  0.3360
   93SAPC  C313 9058   3.711   0.653   5.898  0.2379  0.8566  1.2215
   93SAPC  H13X 9059   3.780   0.567   5.886  0.1353  1.1503 -3.3092
   93SAPC  H13Y 9060   3.777   0.738   5.927  1.9517  0.8823 -2.1345
   93SAPC  C314 9061   3.648   0.698   5.762  0.3018 -0.7009  0.0348
   93SAPC  H14X 9062   3.587   0.787   5.789 -1.1772 -1.4663 -0.6636
   93SAPC  H14Y 9063   3.592   0.623   5.703  0.1133 -1.2123  0.8457
   93SAPC  C315 9064   3.757   0.751   5.669 -0.4341  0.3076  0.4033
   93SAPC  H15X 9065   3.835   0.676   5.643  1.2888  1.8839  0.7890
   93SAPC  H15Y 9066   3.815   0.836   5.710  1.7776 -0.0554 -1.7804
   93SAPC  C316 9067   3.707   0.787   5.530  0.0230  0.6066 -0.1190
   93SAPC  H16X 9068   3.599   0.813   5.529 -0.0321  0.4575  0.8733
   93SAPC  H16Y 9069   3.712   0.697   5.465 -1.2374 -0.4885  1.2416
   93SAPC  C317 9070   3.778   0.899   5.458 -0.5033  0.5483 -0.5614
   93SAPC  H17X 9071   3.887   0.882   5.474  0.0705  1.3796 -3.0817
   93SAPC  H17Y 9072   3.745   0.995   5.502  0.6617  0.4135  0.6718
   93SAPC  C318 9073   3.757   0.895   5.304 -0.2880  0.4373 -0.0773
   93SAPC  H18X 9074   3.782   0.790   5.277 -0.8461  0.0387  0.8927
   93SAPC  H18Y 9075   3.830   0.958   5.249  0.4189  0.1152  0.4749
   93SAPC  H18Z 9076   3.654   0.919   5.272  0.6936  0.7209 -3.4390
   94SAPC     N 9077   2.209   3.504   7.406  0.1713  0.2279  0.1148
   94SAPC   C12 9078   2.100   3.473   7.291 -0.3875 -0.4445 -0.4315
   94SAPC  H12A 9079   2.017   3.415   7.330  0.5316 -2.3378 -1.1292
   94SAPC  H12B 9080   2.147   3.411   7.216  1.5710  2.6259 -1.9170
   94SAPC   C13 9081   2.150   3.572   7.521  0.0576  0.2110  0.0157
   94SAPC  H13A 9082   2.088   3.655   7.490 -0.3260 -1.2572 -3.6865
   94SAPC  H13B 9083   2.085   3.513   7.583 -2.0797  0.6576 -1.6721
   94SAPC  H13C 9084   2.223   3.606   7.593 -1.5180 -1.8710  2.7496
   94SAPC   C14 9085   2.269   3.374   7.451 -0.2617 -0.5869  0.0491
   94SAPC  H14A 9086   2.311   3.396   7.548  0.2433  2.0348 -0.7079
   94SAPC  H14B 9087   2.191   3.300   7.465  0.4778 -1.1126  1.6860
   94SAPC  H14C 9088   2.345   3.338   7.384 -0.6404  0.3185 -0.8875
   94SAPC   C15 9089   2.323   3.581   7.348  0.0848 -0.1583 -0.3659
   94SAPC  H15A 9090   2.393   3.601   7.427 -0.6748  1.6107 -0.0991
   94SAPC  H15B 9091   2.372   3.528   7.268 -0.1204 -2.4678  0.9380
   94SAPC  H15C 9092   2.291   3.677   7.312  0.8693  0.1855 -0.1526
   94SAPC   C11 9093   2.042   3.595   7.224 -0.3384 -0.1084  0.2281
   94SAPC  H11A 9094   2.000   3.551   7.131  2.7697  1.1342 -1.9509
   94SAPC  H11B 9095   2.118   3.665   7.180 -1.7347  0.6184 -1.1469
   94SAPC     P 9096   1.802   3.587   7.340 -0.5119  0.1997  0.0011
   94SAPC   O13 9097   1.826   3.441   7.360 -0.1827 -0.5418 -0.2684
   94SAPC   O14 9098   1.745   3.667   7.448  0.4212  0.5521 -0.2418
   94SAPC   O12 9099   1.941   3.659   7.302 -0.2922 -0.4382 -0.1285
   94SAPC   O11 9100   1.711   3.595   7.212 -0.7192  0.2480  0.1368
   94SAPC    C1 9101   1.714   3.722   7.140  0.0406 -0.3403 -0.0160
   94SAPC    HA 9102   1.647   3.797   7.187 -0.6328 -0.5616 -0.6067
   94SAPC    HB 9103   1.815   3.770   7.138 -1.0231  2.1559  1.3402
   94SAPC    C2 9104   1.675   3.720   6.996 -0.1107  0.0370  0.4489
   94SAPC    HS 9105   1.668   3.822   6.951 -3.5820 -0.5279 -0.6586
   94SAPC   O21 9106   1.543   3.658   6.965  0.1662 -0.4272 -0.7910
   94SAPC   C21 9107   1.439   3.729   7.017  0.4358  0.4533 -0.0879
   94SAPC   O22 9108   1.444   3.839   7.073 -0.2427  0.3235 -0.3708
   94SAPC   C22 9109   1.305   3.658   7.002  0.3929  0.1660  0.3463
   94SAPC   H2R 9110   1.310   3.563   7.059 -0.7184  0.5324  1.0838
   94SAPC   H2S 9111   1.234   3.720   7.060 -1.4284  0.6877 -2.2683
   94SAPC    C3 9112   1.780   3.648   6.903  0.4409 -0.0780 -0.1044
   94SAPC    HX 9113   1.782   3.542   6.936  1.0403 -0.1311 -0.2991
   94SAPC    HY 9114   1.880   3.681   6.937 -0.0644 -0.1932  1.5876
   94SAPC   O31 9115   1.750   3.670   6.762 -0.0373 -0.0070  0.0922
   94SAPC   C31 9116   1.734   3.571   6.679  0.0495  0.5395  0.6013
   94SAPC   O32 9117   1.712   3.453   6.706 -0.2134  0.6554  0.1144
   94SAPC   C32 9118   1.756   3.615   6.538  0.3333 -0.5169 -0.2736
   94SAPC   H2X 9119   1.793   3.719   6.550 -1.5885  0.2571 -0.6160
   94SAPC   H2Y 9120   1.657   3.625   6.489 -1.2039  0.1414  2.7462
   94SAPC   C23 9121   1.261   3.623   6.860 -0.1595  0.0527  0.5637
   94SAPC   H3R 9122   1.349   3.581   6.808 -0.2518 -0.6768  0.9745
   94SAPC   H3S 9123   1.236   3.719   6.810 -0.0593  0.1345  0.6710
   94SAPC   C24 9124   1.146   3.524   6.843  0.4579 -0.4646 -0.6338
   94SAPC   H4R 9125   1.162   3.431   6.901 -2.3711 -2.9793 -3.5388
   94SAPC   H4S 9126   1.149   3.489   6.738 -0.6724 -0.3415 -0.7158
   94SAPC   C25 9127   1.012   3.593   6.876  1.1002 -0.3623  0.2730
   94SAPC   H5R 9128   0.992   3.638   6.975 -2.2795 -1.5809  0.2865
   94SAPC   C26 9129   0.913   3.620   6.788 -0.1859  0.0875  0.6640
   94SAPC   H6R 9130   0.828   3.677   6.830  1.2714  2.6691  0.3251
   94SAPC   C27 9131   0.890   3.577   6.644  0.1170 -0.1422 -0.3304
   94SAPC   H7R 9132   0.795   3.611   6.596 -0.9937 -2.9626 -0.3488
   94SAPC   H7S 9133   0.888   3.466   6.635 -0.2254 -0.3259  1.5972
   94SAPC   C28 9134   0.985   3.626   6.539  0.2940  0.0293 -0.4661
   94SAPC   H8R 9135   1.060   3.702   6.567 -1.8575  0.9294  3.4928
   94SAPC   C29 9136   1.002   3.575   6.417  0.1219 -0.2980 -0.0679
   94SAPC   H9R 9137   1.072   3.624   6.348  1.9220 -3.0348 -0.3250
   94SAPC  C210 9138   0.900   3.481   6.358  0.5107  0.4210  0.0495
   94SAPC  H10R 9139   0.818   3.454   6.427  0.4170  1.7603  0.4770
   94SAPC  H10S 9140   0.954   3.387   6.334 -1.7938 -1.0202  0.2281
   94SAPC  C211 9141   0.833   3.538   6.235  0.1171 -0.3604 -0.3927
   94SAPC  H11R 9142   0.750   3.601   6.271  1.2192  3.2748 -3.4527
   94SAPC  C212 9143   0.850   3.518   6.103 -0.9206  0.3301  0.0629
   94SAPC  H12R 9144   0.780   3.560   6.029 -0.4303 -0.4927 -0.9058
   94SAPC  C213 9145   0.958   3.424   6.045  0.7086  0.8667 -0.6882
   94SAPC  H13R 9146   0.932   3.379   5.946 -2.3821  0.9820 -0.0226
   94SAPC  H13S 9147   0.969   3.336   6.112  1.4529  0.5894 -1.1478
   94SAPC  C214 9148   1.086   3.492   6.056 -0.1273 -0.2616  0.5342
   94SAPC  H14R 9149   1.101   3.544   6.152 -2.6443 -0.3184  1.0287
   94SAPC  C215 9150   1.177   3.515   5.961  0.9246 -0.6929 -0.9491
   94SAPC  H15R 9151   1.273   3.561   5.989  0.3133  0.1982 -0.2981
   94SAPC  C216 9152   1.161   3.479   5.808 -0.0922  0.0346 -0.5133
   94SAPC  H16R 9153   1.077   3.407   5.795  0.0342 -0.6952  2.0936
   94SAPC  H16S 9154   1.251   3.422   5.779 -0.3577 -1.1645  0.8892
   94SAPC  C217 9155   1.157   3.594   5.712 -0.0453 -0.3784 -0.4723
   94SAPC  H17R 9156   1.224   3.679   5.738 -1.2428  0.5995 -0.4972
   94SAPC  H17S 9157   1.057   3.641   5.724  0.6494  0.4927  3.6320
   94SAPC  C218 9158   1.190   3.560   5.567  0.0370 -0.2189  0.0533
   94SAPC  H18R 9159   1.130   3.480   5.518 -1.1230  1.1146 -0.7969
   94SAPC  H18S 9160   1.293   3.520   5.560  0.1727 -0.1159  1.2286
   94SAPC  C219 9161   1.176   3.673   5.464 -0.6011 -0.6013  0.5603
   94SAPC  H19R 9162   1.244   3.758   5.490 -2.2370  0.6082  1.0968
   94SAPC  H19S 9163   1.072   3.710   5.476 -1.1648 -2.1247  0.4857
   94SAPC  C220 9164   1.206   3.630   5.318  0.1818 -0.6491  0.2364
   94SAPC  H20R 9165   1.119   3.573   5.278  0.0742 -1.8134  2.0004
   94SAPC  H20S 9166   1.292   3.559   5.307 -0.9738 -2.1889  0.8045
   94SAPC  H20T 9167   1.204   3.712   5.243  1.9935 -2.9782 -2.5839
   94SAPC   C33 9168   1.860   3.537   6.460  0.1726 -0.1260 -0.5006
   94SAPC   H3X 9169   1.848   3.426   6.466  1.7026 -0.2191  1.7852
   94SAPC   H3Y 9170   1.959   3.544   6.510  2.1102 -4.1722 -3.1016
   94SAPC   C34 9171   1.861   3.586   6.315  0.2664  0.8827  0.0231
   94SAPC   H4X 9172   1.842   3.694   6.298 -2.7213  0.7473  1.8267
   94SAPC   H4Y 9173   1.770   3.529   6.286  0.9902 -0.7653  0.8172
   94SAPC   C35 9174   1.973   3.538   6.226 -0.1328  0.3372  0.0625
   94SAPC   H5X 9175   1.993   3.430   6.241 -0.7993 -0.0710 -1.7524
   94SAPC   H5Y 9176   2.060   3.602   6.252 -0.8410  1.1448  0.4966
   94SAPC   C36 9177   1.931   3.563   6.076 -0.9372 -0.5639 -0.3155
   94SAPC   H6X 9178   1.894   3.668   6.066  0.6800 -0.0035 -0.7623
   94SAPC   H6Y 9179   1.857   3.489   6.040 -1.1072  0.0301 -1.2192
   94SAPC   C37 9180   2.059   3.542   5.984 -0.0997 -0.2377 -0.6965
   94SAPC   H7X 9181   2.089   3.435   5.984 -0.7088 -0.4221 -1.7383
   94SAPC   H7Y 9182   2.146   3.599   6.022  0.2753 -0.9968 -0.4011
   94SAPC   C38 9183   2.022   3.572   5.842  1.0865  0.2227 -0.1548
   94SAPC   H8X 9184   1.999   3.679   5.829 -0.1186  0.0689  0.5906
   94SAPC   H8Y 9185   1.922   3.524   5.835  0.4591  0.9242  2.7541
   94SAPC   C39 9186   2.119   3.503   5.747  0.1710  0.2756 -0.2680
   94SAPC   H9X 9187   2.137   3.402   5.788  0.4546  0.1218 -0.7685
   94SAPC   H9Y 9188   2.212   3.563   5.742  0.2421  0.1556 -0.3800
   94SAPC  C310 9189   2.052   3.500   5.607  0.1652 -0.3752  0.6029
   94SAPC  H10X 9190   2.009   3.599   5.581 -0.4770 -0.4454  1.3733
   94SAPC  H10Y 9191   1.958   3.440   5.611 -0.1342  0.0818  0.6070
   94SAPC  C311 9192   2.137   3.459   5.482  0.2190  0.5713 -0.0759
   94SAPC  H11X 9193   2.069   3.459   5.395  4.0747 -0.4331 -3.3690
   94SAPC  H11Y 9194   2.169   3.357   5.511 -1.5886  0.1295  0.4807
   94SAPC  C312 9195   2.249   3.553   5.443 -0.5488  0.2268  0.9214
   94SAPC  H12X 9196   2.293   3.501   5.355  1.7807 -0.9401  2.6733
   94SAPC  H12Y 9197   2.326   3.561   5.523  2.1724 -0.2111 -1.4829
   94SAPC  C313 9198   2.207   3.697   5.413  0.3033  0.0998 -0.0259
   94SAPC  H13X 9199   2.298   3.746   5.370  0.6351 -0.0628  0.4851
   94SAPC  H13Y 9200   2.163   3.746   5.502 -3.3741 -3.5360  0.4389
   94SAPC  C314 9201   2.107   3.700   5.298 -0.4970  1.1399  0.1532
   94SAPC  H14X 9202   2.025   3.629   5.322  0.9079 -1.1369 -1.4001
   94SAPC  H14Y 9203   2.155   3.664   5.205  1.3246 -0.1655  1.5319
   94SAPC  C315 9204   2.062   3.848   5.271  0.4489 -0.4371  0.0410
   94SAPC  H15X 9205   2.132   3.909   5.210 -0.7988  1.6063  0.5783
   94SAPC  H15Y 9206   2.062   3.901   5.368  0.0909 -0.6623  0.1657
   94SAPC  C316 9207   1.926   3.865   5.204  0.4047  0.4338  0.5226
   94SAPC  H16X 9208   1.868   3.770   5.207 -0.5569  1.0339  1.9610
   94SAPC  H16Y 9209   1.927   3.895   5.097  0.0606  0.9969  0.6692
   94SAPC  C317 9210   1.842   3.975   5.282 -0.4321  0.2622 -0.1941
   94SAPC  H17X 9211   1.905   4.066   5.294 -2.2755  1.8701 -1.9771
   94SAPC  H17Y 9212   1.815   3.932   5.380 -0.6287 -0.1936 -0.4486
   94SAPC  C318 9213   1.717   4.018   5.212  0.0720 -0.2957  0.1946
   94SAPC  H18X 9214   1.726   4.078   5.119  0.2176  0.9261  0.9657
   94SAPC  H18Y 9215   1.642   4.069   5.277  0.9874 -0.6752  1.5939
   94SAPC  H18Z 9216   1.656   3.937   5.168 -3.2553  1.7459  0.6801
   95SAPC     N 9217   0.457   0.574   2.529  0.1782 -0.0301 -0.2157
   95SAPC   C12 9218   0.521   0.665   2.624 -0.4950 -0.3254  0.1362
   95SAPC  H12A 9219   0.622   0.628   2.633 -0.3808  0.1835  1.0032
   95SAPC  H12B 9220   0.480   0.650   2.722  0.0495 -1.3871  0.2131
   95SAPC   C13 9221   0.544   0.555   2.407  0.2810 -0.5615 -0.5979
   95SAPC  H13A 9222   0.642   0.521   2.436  0.2262  0.5966  1.0842
   95SAPC  H13B 9223   0.499   0.492   2.331 -1.8748 -1.9867  1.6979
   95SAPC  H13C 9224   0.555   0.649   2.356 -0.6507 -1.1228 -1.9087
   95SAPC   C14 9225   0.437   0.437   2.592 -0.0363  0.8995 -0.2146
   95SAPC  H14A 9226   0.371   0.381   2.528  0.2953  0.3831 -0.1034
   95SAPC  H14B 9227   0.528   0.387   2.622 -0.6746 -0.1025  0.0896
   95SAPC  H14C 9228   0.380   0.450   2.683  1.9705  1.5835  1.0200
   95SAPC   C15 9229   0.324   0.619   2.487  0.3277 -0.0208  0.0950
   95SAPC  H15A 9230   0.270   0.556   2.418  1.4259 -2.2679  1.1995
   95SAPC  H15B 9231   0.255   0.620   2.570  0.2516  0.8516  0.0353
   95SAPC  H15C 9232   0.331   0.719   2.446 -0.1774  0.9291  2.1782
   95SAPC   C11 9233   0.525   0.819   2.584  0.0311 -0.1638 -0.6068
   95SAPC  H11A 9234   0.570   0.824   2.482 -2.4690 -1.2403 -1.8734
   95SAPC  H11B 9235   0.589   0.865   2.661 -1.5834 -0.7927  1.1826
   95SAPC     P 9236   0.326   0.937   2.701  0.4822  0.5816  0.2860
   95SAPC   O13 9237   0.420   1.034   2.766  0.4552 -0.6243  0.3388
   95SAPC   O14 9238   0.190   0.980   2.669 -1.2196 -0.1032  0.1048
   95SAPC   O12 9239   0.390   0.866   2.579 -0.7097  0.3140 -0.6112
   95SAPC   O11 9240   0.313   0.806   2.790  0.3221 -0.2736  0.2424
   95SAPC    C1 9241   0.363   0.806   2.923 -0.2327  0.3664 -0.1556
   95SAPC    HA 9242   0.457   0.747   2.920 -0.8152 -0.6173  0.3432
   95SAPC    HB 9243   0.384   0.906   2.968  2.5539 -0.3901  0.4630
   95SAPC    C2 9244   0.270   0.723   3.023  0.1268  0.0133 -0.0909
   95SAPC    HS 9245   0.242   0.629   2.972 -0.5294  1.1187 -1.8842
   95SAPC   O21 9246   0.152   0.809   3.040  0.7337  0.3438 -0.2053
   95SAPC   C21 9247   0.046   0.753   3.094  0.2628 -0.3148 -0.0652
   95SAPC   O22 9248   0.003   0.642   3.093 -0.2144  0.7874 -0.0729
   95SAPC   C22 9249  -0.016   0.870   3.184  0.4355 -0.0771  0.8842
   95SAPC   H2R 9250   0.060   0.948   3.203 -0.3847  1.0493 -0.3389
   95SAPC   H2S 9251  -0.106   0.899   3.126  1.7496 -1.3882 -1.9856
   95SAPC    C3 9252   0.337   0.694   3.159  0.4256  0.0551  1.0517
   95SAPC    HX 9253   0.351   0.792   3.211 -0.7167  0.5386  0.4907
   95SAPC    HY 9254   0.436   0.652   3.135 -0.1592 -0.7355 -0.0287
   95SAPC   O31 9255   0.262   0.608   3.250 -0.2234 -0.1534  0.3070
   95SAPC   C31 9256   0.256   0.483   3.225 -0.3666  0.4280  0.0490
   95SAPC   O32 9257   0.302   0.425   3.126 -1.0547 -0.4617 -0.4011
   95SAPC   C32 9258   0.183   0.412   3.335  1.5546 -0.4523 -0.6392
   95SAPC   H2X 9259   0.084   0.387   3.291  0.8905  0.4647  0.2882
   95SAPC   H2Y 9260   0.158   0.480   3.420  1.0315 -0.9870 -0.3645
   95SAPC   C23 9261  -0.055   0.811   3.321  0.2919 -0.4905 -0.3502
   95SAPC   H3R 9262   0.031   0.769   3.377  0.3155 -0.6865 -0.5304
   95SAPC   H3S 9263  -0.129   0.730   3.306  0.1421 -0.0679 -2.1074
   95SAPC   C24 9264  -0.108   0.925   3.411 -0.0212  0.5904 -0.5393
   95SAPC   H4R 9265  -0.130   0.870   3.505 -0.1388  0.7879 -0.4498
   95SAPC   H4S 9266  -0.209   0.953   3.375 -0.2984  0.7633  0.3675
   95SAPC   C25 9267  -0.018   1.044   3.442  0.4801 -0.5816 -0.7053
   95SAPC   H5R 9268  -0.018   1.129   3.371 -1.2637 -0.4744 -0.6163
   95SAPC   C26 9269   0.062   1.056   3.548  1.0334  0.1024  0.7927
   95SAPC   H6R 9270   0.132   1.141   3.546  2.9666 -1.4320 -0.8023
   95SAPC   C27 9271   0.091   0.955   3.658 -0.0120  0.4749 -0.6595
   95SAPC   H7R 9272   0.091   0.853   3.615  1.9463  0.9375 -1.8551
   95SAPC   H7S 9273   0.013   0.960   3.737  0.8551  2.8004  0.1244
   95SAPC   C28 9274   0.229   0.971   3.714  0.2530 -0.4724 -0.7752
   95SAPC   H8R 9275   0.296   1.026   3.646  0.3815  0.8503  0.3945
   95SAPC   C29 9276   0.268   0.938   3.840 -0.4412 -0.3976 -0.4043
   95SAPC   H9R 9277   0.371   0.964   3.869 -0.5822  0.5845 -0.7521
   95SAPC  C210 9278   0.188   0.870   3.949 -0.0672  0.3170 -0.4807
   95SAPC  H10R 9279   0.235   0.829   4.040 -0.5359  0.6024 -0.1058
   95SAPC  H10S 9280   0.139   0.788   3.891  0.7981  0.2894 -1.2018
   95SAPC  C211 9281   0.085   0.968   4.002  0.3040  0.1653 -0.8246
   95SAPC  H11R 9282  -0.010   0.969   3.946  0.1714 -0.0418 -0.6032
   95SAPC  C212 9283   0.096   1.039   4.119  0.3434  0.4703  0.1668
   95SAPC  H12R 9284   0.014   1.105   4.151  0.7305  0.4021  1.3580
   95SAPC  C213 9285   0.209   1.026   4.211 -0.0498  0.1810  0.6270
   95SAPC  H13R 9286   0.227   1.119   4.269  0.7607  1.6856 -1.8738
   95SAPC  H13S 9287   0.297   1.041   4.145 -1.5100  0.6054 -1.3072
   95SAPC  C214 9288   0.216   0.901   4.300  0.1144  0.0611  0.2243
   95SAPC  H14R 9289   0.153   0.815   4.273  1.9395 -1.0229 -0.7826
   95SAPC  C215 9290   0.313   0.886   4.398 -0.2146 -0.0927  0.0519
   95SAPC  H15R 9291   0.306   0.792   4.454 -2.0835  0.6908  1.2382
   95SAPC  C216 9292   0.413   0.991   4.438  0.0859 -0.4673  0.2278
   95SAPC  H16R 9293   0.362   1.089   4.455 -0.6648 -1.1919  2.5761
   95SAPC  H16S 9294   0.482   1.015   4.355  0.5820  4.7257  1.7793
   95SAPC  C217 9295   0.498   0.972   4.565  0.4203 -0.4716 -0.0221
   95SAPC  H17R 9296   0.548   0.873   4.573  0.2171 -0.4627  1.9395
   95SAPC  H17S 9297   0.420   0.971   4.645 -1.7603  0.4030 -2.0084
   95SAPC  C218 9298   0.596   1.092   4.585  0.1483 -0.6915 -0.3371
   95SAPC  H18R 9299   0.551   1.191   4.558 -2.3125 -2.2758 -2.5213
   95SAPC  H18S 9300   0.662   1.071   4.498 -1.1593 -3.3642 -0.7855
   95SAPC  C219 9301   0.677   1.105   4.714  1.0795 -0.4189  0.0007
   95SAPC  H19R 9302   0.725   1.005   4.718  1.2502 -0.3060  1.6391
   95SAPC  H19S 9303   0.600   1.109   4.794  1.4456 -0.5010  0.3631
   95SAPC  C220 9304   0.780   1.216   4.728  0.3208  0.1965 -0.1192
   95SAPC  H20R 9305   0.835   1.210   4.824 -0.1887 -0.4280  0.1422
   95SAPC  H20S 9306   0.729   1.314   4.730 -0.2302 -0.0938  0.7850
   95SAPC  H20T 9307   0.840   1.210   4.635  1.0638 -1.4717  0.4302
   95SAPC   C33 9308   0.251   0.290   3.401 -0.2620  0.2994 -0.1056
   95SAPC   H3X 9309   0.345   0.320   3.453  0.3529 -1.2257 -0.2574
   95SAPC   H3Y 9310   0.278   0.209   3.329 -2.6600  0.3452 -1.1356
   95SAPC   C34 9311   0.172   0.221   3.509  0.4897  0.4717  0.3970
   95SAPC   H4X 9312   0.087   0.158   3.476  0.8948  0.0061  0.2356
   95SAPC   H4Y 9313   0.135   0.304   3.573 -0.2589  0.8016 -0.4446
   95SAPC   C35 9314   0.256   0.123   3.599 -0.0874 -0.2409  0.2692
   95SAPC   H5X 9315   0.330   0.184   3.656  2.2960 -0.4038 -2.4186
   95SAPC   H5Y 9316   0.319   0.050   3.544  0.7904 -1.1196  2.3056
   95SAPC   C36 9317   0.168   0.036   3.699  0.8564 -0.0479  0.1246
   95SAPC   H6X 9318   0.112  -0.031   3.631  0.5647 -0.3748  0.6739
   95SAPC   H6Y 9319   0.091   0.107   3.736  0.2203 -0.4636 -0.3862
   95SAPC   C37 9320   0.245  -0.046   3.806  0.0608 -0.1800 -0.5179
   95SAPC   H7X 9321   0.311  -0.117   3.752 -0.8506 -0.5755 -1.1377
   95SAPC   H7Y 9322   0.175  -0.105   3.870 -1.3542  1.2103 -0.7073
   95SAPC   C38 9323   0.330   0.028   3.912 -0.0350 -0.8009  0.1403
   95SAPC   H8X 9324   0.269   0.112   3.952  1.8266  0.0970  1.2425
   95SAPC   H8Y 9325   0.407   0.079   3.850  1.3400 -0.9397  1.6696
   95SAPC   C39 9326   0.401  -0.061   4.021  0.4974 -0.3023 -0.2927
   95SAPC   H9X 9327   0.486  -0.107   3.966  0.4481  2.4372 -2.9155
   95SAPC   H9Y 9328   0.333  -0.145   4.047  0.2519 -0.4913 -1.4612
   95SAPC  C310 9329   0.451   0.017   4.138 -0.0386  0.7251  0.3039
   95SAPC  H10X 9330   0.365   0.075   4.178  1.0873  2.6448  0.0457
   95SAPC  H10Y 9331   0.536   0.082   4.108  2.4452 -2.1247  0.7346
   95SAPC  C311 9332   0.499  -0.073   4.254  0.0376  0.1870 -0.0194
   95SAPC  H11X 9333   0.576  -0.141   4.211  0.3217 -1.2094  2.4881
   95SAPC  H11Y 9334   0.406  -0.124   4.287  0.0034 -0.4976 -1.1325
   95SAPC  C312 9335   0.560   0.012   4.363  0.1370 -0.8283  0.3759
   95SAPC  H12X 9336   0.591  -0.061   4.441 -0.5929 -1.0831  0.4317
   95SAPC  H12Y 9337   0.490   0.079   4.416  2.1097  1.3073  0.4217
   95SAPC  C313 9338   0.682   0.099   4.322 -0.2777  0.0096 -0.0908
   95SAPC  H13X 9339   0.661   0.182   4.251 -0.1951  1.7582  1.8511
   95SAPC  H13Y 9340   0.761   0.038   4.272  0.5361  0.9999 -0.0380
   95SAPC  C314 9341   0.741   0.164   4.456  0.2689  0.0631  0.2130
   95SAPC  H14X 9342   0.851   0.175   4.459  0.2607 -0.0511  2.0335
   95SAPC  H14Y 9343   0.713   0.096   4.540 -0.3738 -0.0442 -0.0767
   95SAPC  C315 9344   0.669   0.291   4.490 -0.6128  0.0010 -0.1284
   95SAPC  H15X 9345   0.560   0.289   4.465 -0.6383  1.0826 -0.1497
   95SAPC  H15Y 9346   0.713   0.377   4.435  2.5089 -1.1738  0.3461
   95SAPC  C316 9347   0.681   0.327   4.643  0.3719 -1.1269  0.6496
   95SAPC  H16X 9348   0.606   0.276   4.707 -2.6462  2.6513  0.4932
   95SAPC  H16Y 9349   0.652   0.433   4.658  2.1893 -0.1085 -2.2775
   95SAPC  C317 9350   0.822   0.298   4.698  0.1146 -0.0404  0.3400
   95SAPC  H17X 9351   0.893   0.343   4.626  1.7211 -0.6236  1.5107
   95SAPC  H17Y 9352   0.831   0.187   4.695  1.2750 -0.0310  2.1355
   95SAPC  C318 9353   0.864   0.337   4.845  0.0924  0.3751  0.3197
   95SAPC  H18X 9354   0.820   0.267   4.919  0.7189  0.8394  1.1552
   95SAPC  H18Y 9355   0.831   0.439   4.876 -0.2584 -0.9217  4.8949
   95SAPC  H18Z 9356   0.974   0.332   4.851  0.3309 -0.1066 -2.7305
   96SAPC     N 9357   5.960   1.770   1.980 -1.1565  0.3410  0.1039
   96SAPC   C12 9358   5.972   1.870   2.092  0.3492 -0.1438  0.2832
   96SAPC  H12A 9359   5.875   1.917   2.098  0.0665 -0.7185  0.2919
   96SAPC  H12B 9360   6.044   1.941   2.055  1.3725 -1.1189  0.3415
   96SAPC   C13 9361   5.934   1.837   1.851  0.0558  0.0806 -1.1643
   96SAPC  H13A 9362   5.936   1.766   1.769 -0.3621  0.9135 -1.9100
   96SAPC  H13B 9363   5.840   1.890   1.849 -0.9756 -1.4893  0.8133
   96SAPC  H13C 9364   6.018   1.899   1.824 -0.3496  0.4279 -1.6401
   96SAPC   C14 9365   6.094   1.708   1.974 -0.3088  0.6415  0.1035
   96SAPC  H14A 9366   6.119   1.652   2.063 -2.5816 -0.6110  0.0259
   96SAPC  H14B 9367   6.092   1.637   1.893  3.0308  1.5851 -0.9894
   96SAPC  H14C 9368   6.170   1.779   1.945  0.1023 -0.9351 -3.1228
   96SAPC   C15 9369   5.852   1.673   2.015  0.1035  0.0904  0.2219
   96SAPC  H15A 9370   5.755   1.720   2.023 -0.7286 -1.6313  0.6177
   96SAPC  H15B 9371   5.850   1.594   1.942 -0.7673 -0.5405  0.8949
   96SAPC  H15C 9372   5.886   1.636   2.111 -0.6678  0.5289  0.6772
   96SAPC   C11 9373   5.995   1.821   2.233  0.7325 -0.4476 -0.0717
   96SAPC  H11A 9374   6.015   1.913   2.293  1.7715 -0.2296 -0.7335
   96SAPC  H11B 9375   6.092   1.770   2.252  0.3198 -1.3285 -0.2928
   96SAPC     P 9376   5.785   1.761   2.375 -0.2479  0.2843 -0.0615
   96SAPC   O13 9377   5.671   1.839   2.322 -0.3667  0.0587  0.3627
   96SAPC   O14 9378   5.752   1.629   2.441 -1.0051  0.0951 -0.3791
   96SAPC   O12 9379   5.889   1.734   2.266  0.4192 -0.0998 -0.2391
   96SAPC   O11 9380   5.857   1.845   2.486  0.0789  0.0705 -0.1100
   96SAPC    C1 9381   5.976   1.812   2.554 -0.1776 -0.5311  0.1678
   96SAPC    HA 9382   6.048   1.756   2.490  1.5489  0.6820  0.9710
   96SAPC    HB 9383   6.029   1.905   2.584  1.0550 -0.6153 -1.6185
   96SAPC    C2 9384   5.937   1.728   2.679  0.3420  0.8138  0.3069
   96SAPC    HS 9385   5.873   1.647   2.639  1.2206  0.7721 -1.0850
   96SAPC   O21 9386   5.864   1.818   2.765 -0.3095  0.0014  0.4044
   96SAPC   C21 9387   5.772   1.756   2.835  0.3630 -0.3381 -0.1145
   96SAPC   O22 9388   5.724   1.647   2.811  0.4762  0.5349 -0.1540
   96SAPC   C22 9389   5.713   1.870   2.928  0.1531  0.2581  0.2121
   96SAPC   H2R 9390   5.709   1.964   2.869 -0.1067 -0.4878 -1.0017
   96SAPC   H2S 9391   5.614   1.829   2.956 -0.1315  0.2840 -0.7087
   96SAPC    C3 9392   6.062   1.675   2.756 -0.2847  0.3027 -0.2737
   96SAPC    HX 9393   6.105   1.757   2.817 -1.2016 -0.3129  1.2601
   96SAPC    HY 9394   6.138   1.645   2.682  0.0054  0.4156 -0.0207
   96SAPC   O31 9395   6.025   1.567   2.843 -0.0191  0.4844 -0.3320
   96SAPC   C31 9396   6.008   1.449   2.786  0.9146  0.3989 -0.1124
   96SAPC   O32 9397   6.038   1.426   2.671  0.6078  0.1108 -0.1063
   96SAPC   C32 9398   5.923   1.359   2.877  0.1211 -0.2298 -0.0654
   96SAPC   H2X 9399   5.917   1.258   2.830  0.7500 -0.0170 -0.6169
   96SAPC   H2Y 9400   5.820   1.400   2.877  0.1888 -0.0348  1.0335
   96SAPC   C23 9401   5.801   1.887   3.057  0.5194  0.4768  0.4028
   96SAPC   H3R 9402   5.741   1.939   3.134  2.0435  2.3388  0.4020
   96SAPC   H3S 9403   5.881   1.959   3.029 -1.7001  3.2726  0.9546
   96SAPC   C24 9404   5.867   1.758   3.120  0.6085 -0.0092 -0.4470
   96SAPC   H4R 9405   5.935   1.797   3.198 -1.1711  1.8587  0.2736
   96SAPC   H4S 9406   5.925   1.707   3.040 -0.5495  1.1701 -2.1268
   96SAPC   C25 9407   5.778   1.662   3.186 -0.2655  0.3860  0.4218
   96SAPC   H5R 9408   5.743   1.574   3.129 -0.8878 -0.8248  2.5482
   96SAPC   C26 9409   5.723   1.670   3.307  0.1775  0.6439 -0.0852
   96SAPC   H6R 9410   5.644   1.599   3.336 -0.1224  0.5370 -1.1021
   96SAPC   C27 9411   5.755   1.771   3.416  0.1473 -0.0290 -0.5612
   96SAPC   H7R 9412   5.676   1.757   3.493  0.3560  1.8125  0.0423
   96SAPC   H7S 9413   5.758   1.878   3.384 -0.1196  0.3456  0.6046
   96SAPC   C28 9414   5.892   1.747   3.471 -0.2811 -0.4250  0.4480
   96SAPC   H8R 9415   5.977   1.769   3.404 -0.0730 -3.2075 -0.3345
   96SAPC   C29 9416   5.916   1.698   3.591 -0.3024  0.2274 -0.0426
   96SAPC   H9R 9417   6.023   1.693   3.615 -0.3842 -0.5338  0.1655
   96SAPC  C210 9418   5.833   1.636   3.696  1.0735 -0.0957 -0.3353
   96SAPC  H10R 9419   5.742   1.599   3.645 -0.4246  0.1276  2.0081
   96SAPC  H10S 9420   5.783   1.707   3.765  2.6695 -0.4871  1.3045
   96SAPC  C211 9421   5.901   1.526   3.775  0.7039 -0.2334  0.1119
   96SAPC  H11R 9422   5.915   1.432   3.720  0.2444 -1.0022  1.2854
   96SAPC  C212 9423   5.951   1.538   3.901  0.5709  0.2670  1.0891
   96SAPC  H12R 9424   5.992   1.443   3.939 -0.6894 -1.0599 -0.6618
   96SAPC  C213 9425   5.953   1.656   3.993 -0.9009 -0.0620  0.4903
   96SAPC  H13R 9426   5.975   1.623   4.097  0.9954 -0.8396 -0.1262
   96SAPC  H13S 9427   5.852   1.704   3.992  0.0558  2.0771 -0.8211
   96SAPC  C214 9428   6.043   1.775   3.961 -0.2513  0.2342 -0.4962
   96SAPC  H14R 9429   6.115   1.765   3.878  0.5415  0.9542  0.0821
   96SAPC  C215 9430   6.041   1.890   4.044 -0.4932  0.3310  0.2884
   96SAPC  H15R 9431   6.107   1.977   4.030  0.7586 -0.1622  2.6212
   96SAPC  C216 9432   5.946   1.918   4.163  0.3978  0.1135 -0.1532
   96SAPC  H16R 9433   5.852   1.859   4.164 -2.1652  3.8292 -0.4321
   96SAPC  H16S 9434   5.900   2.019   4.157 -2.2639 -1.0615 -1.3633
   96SAPC  C217 9435   6.016   1.919   4.301  0.0444 -0.8925  0.3564
   96SAPC  H17R 9436   5.939   1.964   4.368 -3.2943 -1.5278 -2.7054
   96SAPC  H17S 9437   6.102   1.989   4.304 -0.4743 -0.2848  1.8677
   96SAPC  C218 9438   6.061   1.785   4.358  0.5813  0.1970 -1.1231
   96SAPC  H18R 9439   6.116   1.730   4.279  0.2154 -2.0254  0.0747
   96SAPC  H18S 9440   5.978   1.719   4.389  0.6428  0.3655 -0.5853
   96SAPC  C219 9441   6.146   1.816   4.481 -0.0633 -0.5786 -0.3706
   96SAPC  H19R 9442   6.193   1.916   4.476  2.7631 -1.8003 -0.2491
   96SAPC  H19S 9443   6.226   1.739   4.489 -0.4331 -0.9691 -0.3327
   96SAPC  C220 9444   6.052   1.791   4.605  1.0042 -0.7729 -0.0633
   96SAPC  H20R 9445   6.013   1.689   4.624  1.0015 -0.1466  4.5709
   96SAPC  H20S 9446   5.962   1.856   4.600  0.8855 -0.5810  2.6699
   96SAPC  H20T 9447   6.093   1.826   4.703 -2.7905  2.8877  0.5108
   96SAPC   C33 9448   5.974   1.356   3.024  0.7479 -0.1007  0.1604
   96SAPC   H3X 9449   5.978   1.461   3.059 -1.7224  0.1309 -0.0911
   96SAPC   H3Y 9450   6.073   1.305   3.024  1.1165  0.5506 -1.6807
   96SAPC   C34 9451   5.876   1.282   3.113  0.5850 -0.0611  0.5937
   96SAPC   H4X 9452   5.879   1.173   3.089  0.8188  0.3931 -1.7169
   96SAPC   H4Y 9453   5.772   1.319   3.100  1.1745  2.0687  1.5065
   96SAPC   C35 9454   5.925   1.300   3.257  0.5434  0.1106  0.5798
   96SAPC   H5X 9455   5.923   1.405   3.292  1.8541  1.1036 -2.0177
   96SAPC   H5Y 9456   6.028   1.258   3.263 -0.0488 -1.7723 -1.1526
   96SAPC   C36 9457   5.838   1.222   3.351  0.4920 -0.0756 -0.2898
   96SAPC   H6X 9458   5.822   1.126   3.297  0.6372 -0.6623  0.6838
   96SAPC   H6Y 9459   5.740   1.271   3.367  1.1545  1.2541 -0.1459
   96SAPC   C37 9460   5.899   1.191   3.486 -0.0158 -0.3422  0.3792
   96SAPC   H7X 9461   5.930   1.290   3.527 -1.1710 -0.0389  0.5532
   96SAPC   H7Y 9462   5.985   1.131   3.450  1.5056  2.1011 -0.3273
   96SAPC   C38 9463   5.824   1.110   3.584 -0.7156  0.1120  0.3134
   96SAPC   H8X 9464   5.815   1.005   3.549  1.2215 -0.8558  2.4694
   96SAPC   H8Y 9465   5.722   1.151   3.601 -0.7113 -0.3109  1.3849
   96SAPC   C39 9466   5.908   1.110   3.717  0.2084  0.3124  0.3140
   96SAPC   H9X 9467   5.956   1.208   3.734 -1.3754  1.7989 -3.0610
   96SAPC   H9Y 9468   5.984   1.032   3.695  1.0202  1.8750 -2.9919
   96SAPC  C310 9469   5.824   1.076   3.843 -0.7916 -0.0408 -0.9848
   96SAPC  H10X 9470   5.756   0.995   3.808 -2.7877  1.9417 -1.9386
   96SAPC  H10Y 9471   5.757   1.161   3.868 -0.7281 -0.0333 -0.8399
   96SAPC  C311 9472   5.908   1.041   3.969 -0.4362 -0.6553  0.2861
   96SAPC  H11X 9473   5.990   0.974   3.936  0.1812  0.7279 -1.1402
   96SAPC  H11Y 9474   5.839   0.980   4.032 -1.0364 -0.0985  0.1758
   96SAPC  C312 9475   5.970   1.156   4.051 -0.1891 -0.2328 -0.3338
   96SAPC  H12X 9476   6.038   1.225   3.997  1.1906 -1.4902 -0.2526
   96SAPC  H12Y 9477   6.024   1.100   4.130 -0.0113 -1.0277 -1.0098
   96SAPC  C313 9478   5.866   1.244   4.114  0.5836 -0.2459 -0.4534
   96SAPC  H13X 9479   5.794   1.188   4.177  0.4119  0.9916  0.4923
   96SAPC  H13Y 9480   5.809   1.311   4.046  1.4254  0.8945 -0.0558
   96SAPC  C314 9481   5.930   1.341   4.217  0.6169 -0.1471 -0.2399
   96SAPC  H14X 9482   6.006   1.415   4.184 -0.1074  1.6053  1.7971
   96SAPC  H14Y 9483   5.981   1.263   4.278  0.3817 -0.0998  0.0181
   96SAPC  C315 9484   5.822   1.399   4.308  0.4762 -0.3470 -0.2049
   96SAPC  H15X 9485   5.732   1.334   4.314 -0.1214  0.2896 -1.6895
   96SAPC  H15Y 9486   5.778   1.480   4.246  1.2966  0.5208  0.3115
   96SAPC  C316 9487   5.848   1.447   4.451  0.3171  0.2893 -0.3219
   96SAPC  H16X 9488   5.750   1.449   4.504 -0.2672 -0.3797 -1.3425
   96SAPC  H16Y 9489   5.895   1.548   4.456  2.0353 -0.4647 -0.4621
   96SAPC  C317 9490   5.937   1.354   4.527  0.7213 -0.2346 -0.5507
   96SAPC  H17X 9491   5.972   1.411   4.616 -0.4462  0.0745 -0.2741
   96SAPC  H17Y 9492   6.028   1.341   4.465 -0.4985 -0.6150 -2.3124
   96SAPC  C318 9493   5.873   1.220   4.565 -0.8997 -0.4928  0.2222
   96SAPC  H18X 9494   5.949   1.150   4.607  0.3134  0.3713 -0.4820
   96SAPC  H18Y 9495   5.842   1.166   4.473 -1.5030 -1.5962  1.0383
   96SAPC  H18Z 9496   5.784   1.234   4.631 -0.8719 -0.9027  0.3552
   97SAPC     N 9497   0.065   6.404   2.581  0.5611  0.0302 -0.1325
   97SAPC   C12 9498   0.050   6.373   2.732  0.1683 -0.0263  0.5197
   97SAPC  H12A 9499  -0.020   6.442   2.776 -0.5976 -0.4728  0.0163
   97SAPC  H12B 9500   0.145   6.392   2.782  0.2825 -0.9541  0.6782
   97SAPC   C13 9501   0.087   6.548   2.561  0.0769  0.1135 -0.3469
   97SAPC  H13A 9502   0.098   6.571   2.456  0.3475 -0.1312 -0.3752
   97SAPC  H13B 9503   0.006   6.608   2.598  0.8391  0.1287  1.3742
   97SAPC  H13C 9504   0.181   6.574   2.608  0.1374 -0.5981 -0.0699
   97SAPC   C14 9505   0.192   6.328   2.534  0.6804  0.4855 -0.5840
   97SAPC  H14A 9506   0.278   6.341   2.597  0.1883  0.2711  0.1397
   97SAPC  H14B 9507   0.177   6.221   2.534  0.8422  0.4167 -2.7443
   97SAPC  H14C 9508   0.206   6.356   2.430 -0.2652  1.0733 -0.5641
   97SAPC   C15 9509  -0.065   6.365   2.508 -0.4575  0.8855 -0.5814
   97SAPC  H15A 9510  -0.151   6.404   2.560  2.0734  3.2255  2.2305
   97SAPC  H15B 9511  -0.070   6.396   2.404  0.2396  0.1529 -0.8452
   97SAPC  H15C 9512  -0.085   6.259   2.507 -0.6710  0.9156  0.3154
   97SAPC   C11 9513   0.000   6.237   2.773  0.0893  0.2355  0.4908
   97SAPC  H11A 9514  -0.096   6.212   2.724  0.6227 -2.5602  0.7159
   97SAPC  H11B 9515  -0.019   6.241   2.882 -1.1088  0.3044  0.2874
   97SAPC     P 9516   0.198   6.063   2.853  0.2431  0.1255 -0.1909
   97SAPC   O13 9517   0.280   5.969   2.778 -0.0164  0.0529 -0.1709
   97SAPC   O14 9518   0.276   6.158   2.928  0.2457 -0.1803  0.2275
   97SAPC   O12 9519   0.104   6.140   2.746  0.2655  0.4353  0.2866
   97SAPC   O11 9520   0.091   5.982   2.946 -0.2360  0.1495 -0.0623
   97SAPC    C1 9521   0.016   5.867   2.901  0.2634  0.9850  0.1250
   97SAPC    HA 9522  -0.007   5.863   2.793  1.5336 -0.9212 -0.1202
   97SAPC    HB 9523   0.076   5.777   2.923 -0.1774  0.8884  0.9941
   97SAPC    C2 9524  -0.122   5.857   2.967  0.2486  0.2077  0.3011
   97SAPC    HS 9525  -0.183   5.938   2.922  1.3568  1.6200  1.2365
   97SAPC   O21 9526  -0.105   5.867   3.104  0.3310 -0.4281  0.1676
   97SAPC   C21 9527  -0.184   5.955   3.164  0.0201 -0.1478  0.4646
   97SAPC   O22 9528  -0.257   6.036   3.106 -0.1223  0.0277  0.2552
   97SAPC   C22 9529  -0.184   5.941   3.316 -0.4975  0.4365 -0.4443
   97SAPC   H2R 9530  -0.194   5.832   3.334  0.0129  0.0595 -2.2711
   97SAPC   H2S 9531  -0.085   5.982   3.345  0.0841 -1.4748  0.3944
   97SAPC    C3 9532  -0.181   5.710   2.930 -0.2039  0.1652 -0.2834
   97SAPC    HX 9533  -0.093   5.643   2.919  0.2520  0.9907 -2.0612
   97SAPC    HY 9534  -0.224   5.704   2.827  0.0636  0.9194 -0.4469
   97SAPC   O31 9535  -0.270   5.660   3.036 -0.5798 -0.0709  0.0360
   97SAPC   C31 9536  -0.396   5.702   3.040 -0.3457 -0.0768  0.6806
   97SAPC   O32 9537  -0.442   5.770   2.947  0.6120 -0.3099  0.0822
   97SAPC   C32 9538  -0.466   5.670   3.171 -0.0184  0.4593 -0.1752
   97SAPC   H2X 9539  -0.404   5.711   3.254 -0.6267 -0.4238  0.7429
   97SAPC   H2Y 9540  -0.477   5.560   3.182  0.0590  0.5849  1.3576
   97SAPC   C23 9541  -0.305   6.002   3.398  0.1055  0.5552  0.5012
   97SAPC   H3R 9542  -0.307   5.952   3.497 -0.7625  1.8378  1.1639
   97SAPC   H3S 9543  -0.400   5.990   3.341  1.9321  0.6103 -2.7949
   97SAPC   C24 9544  -0.274   6.148   3.434  0.0238 -0.1376  0.2213
   97SAPC   H4R 9545  -0.236   6.193   3.340  1.5230 -2.1138 -0.1875
   97SAPC   H4S 9546  -0.184   6.139   3.500  0.6875  0.2174 -0.6158
   97SAPC   C25 9547  -0.402   6.217   3.490  0.0534  1.1363  0.1340
   97SAPC   H5R 9548  -0.498   6.187   3.445 -0.1217  3.4171 -1.1760
   97SAPC   C26 9549  -0.411   6.293   3.600  0.2611 -0.8003  0.1397
   97SAPC   H6R 9550  -0.507   6.334   3.634  1.3659  1.0554  1.1567
   97SAPC   C27 9551  -0.294   6.329   3.694 -0.0918 -0.4449  0.3810
   97SAPC   H7R 9552  -0.274   6.438   3.688 -1.6219 -0.0838  1.3077
   97SAPC   H7S 9553  -0.203   6.271   3.669  0.8264  1.5946 -1.2910
   97SAPC   C28 9554  -0.332   6.285   3.837 -0.3052  0.0645  0.3994
   97SAPC   H8R 9555  -0.362   6.179   3.832 -1.3725  0.4059 -1.4378
   97SAPC   C29 9556  -0.347   6.350   3.954 -0.1622 -0.4228 -0.3294
   97SAPC   H9R 9557  -0.385   6.287   4.036  0.8482  0.4180  0.8123
   97SAPC  C210 9558  -0.318   6.494   3.967  0.0741  0.0920 -0.5269
   97SAPC  H10R 9559  -0.400   6.552   3.919  1.4868  2.2912 -0.4297
   97SAPC  H10S 9560  -0.234   6.507   3.895  0.4037  1.3015  0.0368
   97SAPC  C211 9561  -0.303   6.535   4.116 -0.1581  0.1109  1.1007
   97SAPC  H11R 9562  -0.378   6.498   4.188  0.1467 -0.7599  0.9844
   97SAPC  C212 9563  -0.198   6.613   4.157  0.1175 -0.1773  0.0032
   97SAPC  H12R 9564  -0.188   6.625   4.266 -0.1968 -1.9031  0.2399
   97SAPC  C213 9565  -0.085   6.667   4.074  0.1149  0.1069 -0.2163
   97SAPC  H13R 9566  -0.053   6.603   3.989 -0.1824  0.6184 -0.7266
   97SAPC  H13S 9567   0.008   6.680   4.132  0.7141  1.1570 -1.3429
   97SAPC  C214 9568  -0.121   6.802   4.002 -0.0778  0.4329 -0.3627
   97SAPC  H14R 9569  -0.170   6.803   3.903 -1.6977 -0.2663  0.3866
   97SAPC  C215 9570  -0.117   6.918   4.068 -0.3514 -0.3303 -0.0864
   97SAPC  H15R 9571  -0.146   7.013   4.021 -1.4524  0.2926  1.7265
   97SAPC  C216 9572  -0.058   6.941   4.201  0.7831  0.6728 -0.1150
   97SAPC  H16R 9573  -0.048   6.844   4.253  1.2347  0.3387 -0.8073
   97SAPC  H16S 9574  -0.133   6.992   4.266 -0.0185 -0.3674 -0.1840
   97SAPC  C217 9575   0.067   7.015   4.213 -0.3536 -0.3459 -0.2608
   97SAPC  H17R 9576   0.040   7.122   4.199  0.2244 -0.0234  0.9338
   97SAPC  H17S 9577   0.136   6.978   4.134  0.0905  1.4938 -0.7728
   97SAPC  C218 9578   0.138   6.998   4.355  0.7288 -0.5691  0.7867
   97SAPC  H18R 9579   0.130   6.892   4.388 -3.6227 -1.4137 -2.0042
   97SAPC  H18S 9580   0.082   7.061   4.427 -2.7128  0.0688 -2.0978
   97SAPC  C219 9581   0.286   7.043   4.349  0.7943 -0.6694  0.2257
   97SAPC  H19R 9582   0.330   6.990   4.262  2.9233 -2.1459  2.0835
   97SAPC  H19S 9583   0.335   7.013   4.444  0.5229  2.5661  1.5190
   97SAPC  C220 9584   0.306   7.195   4.339  0.1688 -0.3127  0.5995
   97SAPC  H20R 9585   0.412   7.212   4.310  0.4169 -0.0012  1.6527
   97SAPC  H20S 9586   0.295   7.250   4.434 -2.1517  1.4056 -0.5594
   97SAPC  H20T 9587   0.244   7.240   4.258  0.4040 -1.4962 -0.2713
   97SAPC   C33 9588  -0.600   5.742   3.176  1.1245 -0.0611 -0.6326
   97SAPC   H3X 9589  -0.671   5.686   3.112 -0.3154  1.1196 -0.1158
   97SAPC   H3Y 9590  -0.591   5.847   3.142  0.1626  0.1735 -0.1885
   97SAPC   C34 9591  -0.667   5.743   3.320  0.5769  1.0263 -0.0211
   97SAPC   H4X 9592  -0.719   5.645   3.328  0.5156  0.7403 -2.9242
   97SAPC   H4Y 9593  -0.752   5.814   3.320  1.6078  2.4236  2.7135
   97SAPC   C35 9594  -0.575   5.767   3.440  0.2186  0.2665  0.0110
   97SAPC   H5X 9595  -0.544   5.874   3.434  0.1270  0.2361 -1.1845
   97SAPC   H5Y 9596  -0.483   5.708   3.425  0.0321  0.8087 -4.4747
   97SAPC   C36 9597  -0.648   5.739   3.576  1.0754  0.0763  0.4893
   97SAPC   H6X 9598  -0.624   5.633   3.599  0.0585  0.1621  2.1338
   97SAPC   H6Y 9599  -0.759   5.735   3.564  0.6602  1.7038  2.8835
   97SAPC   C37 9600  -0.606   5.828   3.686 -1.0436 -0.0529  0.7314
   97SAPC   H7X 9601  -0.656   5.927   3.675 -0.1054  0.4353  0.7450
   97SAPC   H7Y 9602  -0.497   5.850   3.684 -0.3942 -2.9455 -1.1654
   97SAPC   C38 9603  -0.631   5.789   3.823  0.6795 -0.1976 -1.0783
   97SAPC   H8X 9604  -0.604   5.682   3.832  0.9747 -0.2734 -2.5538
   97SAPC   H8Y 9605  -0.740   5.790   3.845  1.0113 -0.9913  0.7317
   97SAPC   C39 9606  -0.567   5.889   3.922  0.5038 -0.1745  0.1417
   97SAPC   H9X 9607  -0.592   5.992   3.889  1.3802 -0.7017 -2.4448
   97SAPC   H9Y 9608  -0.458   5.875   3.903  0.3185  0.6587 -1.7750
   97SAPC  C310 9609  -0.593   5.853   4.070  0.5602 -0.3372  0.2909
   97SAPC  H10X 9610  -0.558   5.751   4.097 -0.3760 -1.0647 -1.0997
   97SAPC  H10Y 9611  -0.704   5.853   4.085  0.6847  2.8076  2.1920
   97SAPC  C311 9612  -0.524   5.962   4.146 -0.5996 -0.2641 -0.3819
   97SAPC  H11X 9613  -0.514   6.051   4.080  0.0867 -0.9076 -1.1682
   97SAPC  H11Y 9614  -0.421   5.925   4.166 -1.2850 -1.2217  1.6097
   97SAPC  C312 9615  -0.591   5.977   4.282  0.0173 -0.2256 -0.1623
   97SAPC  H12X 9616  -0.599   5.880   4.336  0.4703  1.0143  2.3151
   97SAPC  H12Y 9617  -0.691   6.022   4.265  0.2928  0.4184 -0.0967
   97SAPC  C313 9618  -0.508   6.078   4.366  0.0745 -0.3936 -0.1292
   97SAPC  H13X 9619  -0.562   6.109   4.459  2.8818 -0.7260  1.7389
   97SAPC  H13Y 9620  -0.476   6.171   4.314 -0.1126 -0.3945 -0.2472
   97SAPC  C314 9621  -0.380   6.018   4.408 -0.8822 -1.5144 -0.3805
   97SAPC  H14X 9622  -0.314   6.027   4.320 -0.0875  2.6288  0.4497
   97SAPC  H14Y 9623  -0.388   5.908   4.424  2.0676 -1.6401  1.0346
   97SAPC  C315 9624  -0.323   6.087   4.533 -0.9179 -0.5185  0.2559
   97SAPC  H15X 9625  -0.371   6.069   4.632  1.6519  1.4529  1.9960
   97SAPC  H15Y 9626  -0.347   6.195   4.523 -2.7572 -0.6856  2.1745
   97SAPC  C316 9627  -0.170   6.096   4.542  0.2418 -0.5286  0.2294
   97SAPC  H16X 9628  -0.139   6.124   4.439  0.0601 -0.8221  0.0939
   97SAPC  H16Y 9629  -0.129   5.993   4.536 -0.8054 -0.8872 -1.2716
   97SAPC  C317 9630  -0.096   6.181   4.643 -0.3779 -0.1635 -0.1519
   97SAPC  H17X 9631  -0.126   6.288   4.633 -0.3267  0.0861  1.9008
   97SAPC  H17Y 9632   0.014   6.172   4.629 -0.4568  0.9498 -1.8417
   97SAPC  C318 9633  -0.122   6.154   4.796  0.6323 -0.0950  1.1500
   97SAPC  H18X 9634  -0.049   6.219   4.848  2.2793 -0.5378 -0.4797
   97SAPC  H18Y 9635  -0.110   6.044   4.806 -1.9181 -0.5783 -0.2042
   97SAPC  H18Z 9636  -0.227   6.168   4.828  0.9610 -0.5571  2.4832
   98SAPC     N 9637   1.939   0.895   2.721  0.5580 -0.6843  0.2682
   98SAPC   C12 9638   1.963   0.997   2.840 -0.5024  0.5711 -0.1806
   98SAPC  H12A 9639   1.981   0.942   2.931 -0.7604  0.4553 -0.2006
   98SAPC  H12B 9640   1.875   1.059   2.840 -2.1003 -1.5482 -1.4040
   98SAPC   C13 9641   1.789   0.857   2.723 -0.1872  0.3777  0.6999
   98SAPC  H13A 9642   1.721   0.936   2.692  0.4117  0.0984 -1.5007
   98SAPC  H13B 9643   1.768   0.773   2.658 -1.3409  1.1841 -0.0099
   98SAPC  H13C 9644   1.758   0.827   2.822 -1.0078 -2.4572 -0.3175
   98SAPC   C14 9645   1.962   0.953   2.587  0.0491  0.5093 -0.1441
   98SAPC  H14A 9646   1.968   0.874   2.515 -0.5854 -1.0734  1.4751
   98SAPC  H14B 9647   1.884   1.019   2.551 -1.2292 -0.4552  0.7812
   98SAPC  H14C 9648   2.055   1.009   2.585 -0.1574  1.0293  2.0139
   98SAPC   C15 9649   2.015   0.774   2.746  0.0149 -0.2490 -0.2073
   98SAPC  H15A 9650   1.970   0.690   2.694  0.0479  1.4170 -3.1659
   98SAPC  H15B 9651   2.121   0.777   2.725 -0.0885  2.8255 -0.6384
   98SAPC  H15C 9652   2.018   0.749   2.851  2.8420 -0.0265 -0.1576
   98SAPC   C11 9653   2.087   1.091   2.834 -0.8220 -0.2563 -0.1006
   98SAPC  H11A 9654   2.091   1.167   2.915  1.8597  0.0181 -0.4159
   98SAPC  H11B 9655   2.087   1.154   2.743  0.2195  0.0106  0.0727
   98SAPC     P 9656   2.263   0.947   2.962  0.0743 -0.0036 -0.4607
   98SAPC   O13 9657   2.177   0.984   3.076 -0.1320  0.0218 -0.2902
   98SAPC   O14 9658   2.300   0.803   2.936 -0.7060  0.2800 -0.2987
   98SAPC   O12 9659   2.202   1.013   2.828  0.6161  0.1123  0.3416
   98SAPC   O11 9660   2.403   1.027   2.965  0.9312 -0.2306  0.2176
   98SAPC    C1 9661   2.406   1.160   3.004  0.2653 -0.0828 -0.6915
   98SAPC    HA 9662   2.505   1.195   2.967  0.4306 -1.4684 -1.6272
   98SAPC    HB 9663   2.328   1.226   2.960 -0.9359 -0.6057  0.5937
   98SAPC    C2 9664   2.409   1.176   3.156 -0.0481  0.9439 -0.2185
   98SAPC    HS 9665   2.308   1.149   3.192 -0.8738 -1.8077 -4.0195
   98SAPC   O21 9666   2.432   1.318   3.169  0.4180 -0.1221 -1.1622
   98SAPC   C21 9667   2.408   1.371   3.287 -0.3180  0.4388 -0.0877
   98SAPC   O22 9668   2.341   1.316   3.378  0.1002  0.1021  0.2465
   98SAPC   C22 9669   2.478   1.507   3.291 -0.3142  0.2179 -0.0874
   98SAPC   H2R 9670   2.581   1.472   3.270 -0.9862 -0.4859 -2.6137
   98SAPC   H2S 9671   2.443   1.569   3.205  1.5172  0.3691 -0.7661
   98SAPC    C3 9672   2.520   1.094   3.228  0.0866  0.3069  0.1519
   98SAPC    HX 9673   2.621   1.119   3.190  0.8644  0.2941  2.0950
   98SAPC    HY 9674   2.514   0.986   3.204  0.4674  0.4199 -0.4883
   98SAPC   O31 9675   2.525   1.116   3.373  0.1953  0.0418 -0.2333
   98SAPC   C31 9676   2.442   1.055   3.451  0.1665  0.4067 -0.0111
   98SAPC   O32 9677   2.386   0.952   3.420  0.0752 -0.0251  0.2487
   98SAPC   C32 9678   2.429   1.111   3.586  0.1226 -0.4889  0.0103
   98SAPC   H2X 9679   2.368   1.204   3.582  2.5219  1.1986  0.3834
   98SAPC   H2Y 9680   2.532   1.133   3.622  0.9522 -1.2678 -1.7266
   98SAPC   C23 9681   2.443   1.573   3.422  0.0963  0.5333  0.0410
   98SAPC   H3R 9682   2.334   1.591   3.427  0.1575  1.0225 -0.3308
   98SAPC   H3S 9683   2.484   1.676   3.432  1.1833  0.1464 -0.2505
   98SAPC   C24 9684   2.499   1.508   3.556  1.1333  0.4210  0.1595
   98SAPC   H4R 9685   2.443   1.413   3.568  1.3704  0.0415 -1.4554
   98SAPC   H4S 9686   2.458   1.578   3.632 -0.1922 -2.0451  1.8441
   98SAPC   C25 9687   2.646   1.492   3.590 -0.4469  0.0864 -0.0496
   98SAPC   H5R 9688   2.707   1.473   3.501  0.7388  1.1395  0.4923
   98SAPC   C26 9689   2.711   1.504   3.707  0.4407 -0.4111 -0.1284
   98SAPC   H6R 9690   2.820   1.490   3.704  0.5612  0.4353  0.1078
   98SAPC   C27 9691   2.654   1.515   3.847  0.3834 -1.0133  0.1206
   98SAPC   H7R 9692   2.734   1.487   3.919  1.3229  1.2837  0.0501
   98SAPC   H7S 9693   2.571   1.446   3.872  2.3362 -2.8368  1.8868
   98SAPC   C28 9694   2.615   1.661   3.868  0.5330 -0.3183  0.0211
   98SAPC   H8R 9695   2.609   1.728   3.781  0.9999  0.1690  0.3551
   98SAPC   C29 9696   2.581   1.704   3.989 -0.2845 -0.6583  0.2239
   98SAPC   H9R 9697   2.561   1.811   3.999  0.9779 -0.4775  1.0658
   98SAPC  C210 9698   2.566   1.625   4.117 -0.3395 -0.0888 -0.7589
   98SAPC  H10R 9699   2.575   1.694   4.203 -1.0549 -1.1967  0.2446
   98SAPC  H10S 9700   2.646   1.551   4.138  2.5718  3.4973  2.1293
   98SAPC  C211 9701   2.433   1.555   4.127 -0.6201  0.0389 -0.1480
   98SAPC  H11R 9702   2.357   1.567   4.049 -1.6202  1.3506  0.9749
   98SAPC  C212 9703   2.385   1.500   4.242 -0.8264 -0.0735 -0.4064
   98SAPC  H12R 9704   2.290   1.447   4.233  0.0395 -1.5881 -0.9003
   98SAPC  C213 9705   2.448   1.497   4.381 -0.7863  1.2176 -0.5831
   98SAPC  H13R 9706   2.544   1.553   4.389  0.5492 -0.8594 -1.3488
   98SAPC  H13S 9707   2.482   1.394   4.402 -0.4244  1.1394 -1.4855
   98SAPC  C214 9708   2.350   1.548   4.484 -0.3050  0.6038 -0.0526
   98SAPC  H14R 9709   2.257   1.600   4.458 -0.4871  1.3545  1.9326
   98SAPC  C215 9710   2.376   1.561   4.615  0.1722  0.1292 -0.1081
   98SAPC  H15R 9711   2.294   1.607   4.674  0.1096  0.5661 -0.5277
   98SAPC  C216 9712   2.498   1.530   4.697 -0.3024 -0.3535  0.7405
   98SAPC  H16R 9713   2.548   1.625   4.726 -3.2979  1.7814 -0.5292
   98SAPC  H16S 9714   2.564   1.473   4.628 -1.0461  1.1082 -1.2508
   98SAPC  C217 9715   2.454   1.444   4.821 -0.7616  0.4266 -0.0845
   98SAPC  H17R 9716   2.391   1.361   4.779  0.1374  0.8537 -2.4659
   98SAPC  H17S 9717   2.391   1.497   4.896 -2.1236  0.2024 -1.0238
   98SAPC  C218 9718   2.576   1.388   4.905  0.1566 -0.2205  0.2722
   98SAPC  H18R 9719   2.615   1.476   4.959 -1.7281 -0.0450  1.4541
   98SAPC  H18S 9720   2.648   1.352   4.828 -1.4204  1.6883 -2.2565
   98SAPC  C219 9721   2.541   1.267   4.998  1.0520 -0.5309  0.2693
   98SAPC  H19R 9722   2.629   1.239   5.060  0.4261 -1.4783  0.7543
   98SAPC  H19S 9723   2.522   1.184   4.928 -0.8181 -0.6831  0.9075
   98SAPC  C220 9724   2.410   1.282   5.073  0.6529 -0.0935  0.0422
   98SAPC  H20R 9725   2.425   1.359   5.151  3.0452 -1.4784  1.0713
   98SAPC  H20S 9726   2.389   1.185   5.124  0.2736 -0.5156 -0.8841
   98SAPC  H20T 9727   2.328   1.312   5.004  1.5337 -0.9681 -1.4576
   98SAPC   C33 9728   2.350   1.029   3.681  0.4753 -0.3568  0.6933
   98SAPC   H3X 9729   2.387   0.925   3.691 -1.6342 -1.0310  2.0314
   98SAPC   H3Y 9730   2.245   1.028   3.645  0.5523 -1.4306  0.4830
   98SAPC   C34 9731   2.336   1.085   3.824 -0.2808  0.4843  0.6662
   98SAPC   H4X 9732   2.282   1.007   3.881 -0.1435 -0.0166  0.1173
   98SAPC   H4Y 9733   2.276   1.178   3.827  2.8915  2.6774  1.2505
   98SAPC   C35 9734   2.474   1.106   3.887 -0.4309  0.1729 -0.1187
   98SAPC   H5X 9735   2.508   1.202   3.841 -3.1571  0.9596 -0.6557
   98SAPC   H5Y 9736   2.542   1.029   3.845 -3.2278 -1.0376 -2.7696
   98SAPC   C36 9737   2.483   1.106   4.038 -0.2476  0.0478  0.3249
   98SAPC   H6X 9738   2.465   1.001   4.072 -1.2000 -0.3494 -1.2813
   98SAPC   H6Y 9739   2.400   1.161   4.087 -0.0921  0.9896 -0.4359
   98SAPC   C37 9740   2.620   1.156   4.083 -0.2352  0.0431 -0.5844
   98SAPC   H7X 9741   2.631   1.255   4.036 -1.1884  1.6745  2.3704
   98SAPC   H7Y 9742   2.693   1.074   4.066  0.7657  0.1018  2.6684
   98SAPC   C38 9743   2.622   1.173   4.240  0.0477 -0.5530  0.4733
   98SAPC   H8X 9744   2.615   1.068   4.276  1.4503 -1.1026 -0.7532
   98SAPC   H8Y 9745   2.532   1.226   4.276  1.6585  1.0751  2.4083
   98SAPC   C39 9746   2.753   1.233   4.282  0.1734  0.3871 -0.5792
   98SAPC   H9X 9747   2.761   1.341   4.257 -0.8191  0.8319  0.9162
   98SAPC   H9Y 9748   2.837   1.184   4.228 -1.9735  0.1871 -4.0528
   98SAPC  C310 9749   2.768   1.222   4.433  0.4799  0.1861 -0.2614
   98SAPC  H10X 9750   2.780   1.115   4.461 -3.9434 -0.6896 -1.0572
   98SAPC  H10Y 9751   2.680   1.262   4.487 -0.5781 -2.9831  0.5822
   98SAPC  C311 9752   2.876   1.310   4.498 -0.2456 -0.4290  0.3985
   98SAPC  H11X 9753   2.976   1.269   4.473 -1.1502 -1.3923 -1.8913
   98SAPC  H11Y 9754   2.858   1.297   4.607 -2.0285  1.7061  0.4399
   98SAPC  C312 9755   2.863   1.462   4.474 -0.3333 -0.0978  0.0370
   98SAPC  H12X 9756   2.766   1.502   4.512 -1.1522 -1.8068 -0.1574
   98SAPC  H12Y 9757   2.865   1.491   4.367 -0.4808  0.5187  0.1978
   98SAPC  C313 9758   2.973   1.543   4.547  0.2049  0.6431  0.2406
   98SAPC  H13X 9759   3.076   1.507   4.523  0.5795  0.9793  1.3120
   98SAPC  H13Y 9760   2.959   1.512   4.652 -2.1668  0.6686 -0.0101
   98SAPC  C314 9761   2.969   1.692   4.510 -0.1902  0.0302  0.7938
   98SAPC  H14X 9762   2.879   1.744   4.548 -1.9329 -2.7385  0.7136
   98SAPC  H14Y 9763   2.966   1.707   4.400  1.7222 -2.0426  0.3764
   98SAPC  C315 9764   3.093   1.767   4.555 -0.2613  0.1042 -0.6378
   98SAPC  H15X 9765   3.110   1.859   4.496 -0.1569 -0.5142 -1.5920
   98SAPC  H15Y 9766   3.179   1.697   4.542 -0.2915 -0.4225  1.6104
   98SAPC  C316 9767   3.093   1.797   4.708  0.0783 -0.0439  0.3752
   98SAPC  H16X 9768   3.046   1.714   4.765  2.7509 -1.1016  1.1822
   98SAPC  H16Y 9769   3.040   1.894   4.714  0.8813  0.3778  0.6902
   98SAPC  C317 9770   3.234   1.826   4.772 -0.5301  0.5671 -0.6008
   98SAPC  H17X 9771   3.301   1.745   4.736  1.3301  2.1753 -0.9259
   98SAPC  H17Y 9772   3.226   1.820   4.883 -0.2853  0.8684 -0.5673
   98SAPC  C318 9773   3.311   1.957   4.733  0.2470  0.1928  0.3313
   98SAPC  H18X 9774   3.405   1.970   4.789  1.8435 -0.0679 -2.1213
   98SAPC  H18Y 9775   3.246   2.044   4.755 -0.9120 -1.4915  4.3812
   98SAPC  H18Z 9776   3.341   1.945   4.626  0.6482 -1.5095  0.6014
   99SAPC     N 9777   0.667   3.935   2.193  0.5666 -0.3610 -0.1632
   99SAPC   C12 9778   0.771   4.011   2.281  0.2919  0.0149 -0.7483
   99SAPC  H12A 9779   0.773   4.108   2.235 -0.1844  0.8417  0.8938
   99SAPC  H12B 9780   0.868   3.965   2.268 -0.2210 -1.2029 -0.4319
   99SAPC   C13 9781   0.531   4.003   2.207 -0.7304  0.1051  0.4965
   99SAPC  H13A 9782   0.486   4.008   2.305  1.5234  1.8200  1.5232
   99SAPC  H13B 9783   0.535   4.103   2.167 -0.3502  0.6694  1.8938
   99SAPC  H13C 9784   0.459   3.939   2.157 -0.9119  0.8671 -0.2510
   99SAPC   C14 9785   0.717   3.951   2.051  0.5863  0.9106 -0.1389
   99SAPC  H14A 9786   0.717   4.056   2.025  0.7282  1.5037  2.0632
   99SAPC  H14B 9787   0.807   3.898   2.025 -1.0789 -1.8664 -0.6666
   99SAPC  H14C 9788   0.648   3.904   1.982  2.0554 -2.0942  0.2854
   99SAPC   C15 9789   0.649   3.792   2.237  0.2446  0.1822  0.5167
   99SAPC  H15A 9790   0.745   3.745   2.250  1.9968  3.2856 -0.1588
   99SAPC  H15B 9791   0.584   3.778   2.322 -1.2812  1.3708 -0.4069
   99SAPC  H15C 9792   0.613   3.732   2.155  0.2397  0.6190  0.1982
   99SAPC   C11 9793   0.752   4.020   2.435 -0.5271 -0.2273  0.5613
   99SAPC  H11A 9794   0.721   3.924   2.483  0.1498 -0.5115  0.4539
   99SAPC  H11B 9795   0.673   4.090   2.468 -1.7695 -1.5766  0.5575
   99SAPC     P 9796   1.000   3.970   2.513 -0.0762  0.0399 -0.2759
   99SAPC   O13 9797   0.998   3.874   2.402  0.3880  0.4947  0.1188
   99SAPC   O14 9798   1.117   4.051   2.533 -0.3559  0.0700 -0.4558
   99SAPC   O12 9799   0.871   4.067   2.495 -0.4646 -0.8751 -0.0992
   99SAPC   O11 9800   0.978   3.873   2.633  0.2154 -0.1601  0.3166
   99SAPC    C1 9801   0.895   3.902   2.747 -0.3879 -0.3478 -0.1554
   99SAPC    HA 9802   0.903   4.006   2.786 -1.7753 -0.4508  0.4637
   99SAPC    HB 9803   0.787   3.883   2.730 -0.2430 -2.4536  0.9540
   99SAPC    C2 9804   0.925   3.813   2.869  0.1380 -0.3677 -1.0163
   99SAPC    HS 9805   1.030   3.837   2.895  0.3462 -0.1980 -1.9796
   99SAPC   O21 9806   0.913   3.677   2.825  0.1354 -1.2421  0.0441
   99SAPC   C21 9807   0.977   3.596   2.915 -0.3734 -0.1792  0.0998
   99SAPC   O22 9808   1.040   3.638   3.011  0.2903 -0.7308 -0.5016
   99SAPC   C22 9809   0.951   3.448   2.895 -1.3748  0.1349  0.0971
   99SAPC   H2R 9810   1.019   3.421   2.811 -0.9820 -0.2066  0.5154
   99SAPC   H2S 9811   0.984   3.383   2.980 -1.9873  0.9604  0.9942
   99SAPC    C3 9812   0.831   3.847   2.985 -0.2146  1.3133 -0.6705
   99SAPC    HX 9813   0.849   3.797   3.082 -1.7044  2.6550  0.3516
   99SAPC    HY 9814   0.724   3.830   2.958 -1.0314  4.4975  0.1169
   99SAPC   O31 9815   0.844   3.985   3.007  0.3589  0.7099 -0.0097
   99SAPC   C31 9816   0.774   4.039   3.114 -0.3074 -0.3135 -0.4554
   99SAPC   O32 9817   0.708   3.976   3.196 -0.1677  0.1058 -0.1009
   99SAPC   C32 9818   0.803   4.187   3.109  0.4996  0.7032 -0.0344
   99SAPC   H2X 9819   0.763   4.225   3.012  1.3773  0.0700 -0.6636
   99SAPC   H2Y 9820   0.912   4.208   3.111  0.5931  0.3864 -1.1036
   99SAPC   C23 9821   0.814   3.411   2.850 -0.0262  0.3407 -0.4274
   99SAPC   H3R 9822   0.812   3.307   2.811  0.3937 -0.1563  0.8169
   99SAPC   H3S 9823   0.780   3.484   2.774 -1.4997 -0.7260 -0.8519
   99SAPC   C24 9824   0.701   3.408   2.962  0.5320 -0.2131 -0.0849
   99SAPC   H4R 9825   0.727   3.330   3.036 -0.1619  1.3141  1.8406
   99SAPC   H4S 9826   0.601   3.380   2.923  0.4121  3.4958 -3.0217
   99SAPC   C25 9827   0.690   3.544   3.022 -0.1149 -0.0178 -0.3620
   99SAPC   H5R 9828   0.682   3.630   2.955 -0.4996 -0.7663 -1.3025
   99SAPC   C26 9829   0.690   3.570   3.155 -0.6543  0.0766 -0.5106
   99SAPC   H6R 9830   0.678   3.674   3.189  1.0028 -0.0696  0.6258
   99SAPC   C27 9831   0.680   3.468   3.263  0.3726 -0.0139  0.3976
   99SAPC   H7R 9832   0.608   3.397   3.216  0.1738  1.2966 -1.3724
   99SAPC   H7S 9833   0.625   3.504   3.353 -0.6007 -0.6106  0.0568
   99SAPC   C28 9834   0.803   3.397   3.312 -0.0074 -0.0612 -0.5536
   99SAPC   H8R 9835   0.856   3.342   3.233  0.6899  0.1138 -0.2143
   99SAPC   C29 9836   0.848   3.398   3.442  0.2161  0.1409  0.0105
   99SAPC   H9R 9837   0.942   3.343   3.461 -0.8123 -1.2762  1.2244
   99SAPC  C210 9838   0.797   3.478   3.563 -0.1800  0.1668 -0.0816
   99SAPC  H10R 9839   0.754   3.572   3.525  3.5153  0.8648 -3.2488
   99SAPC  H10S 9840   0.883   3.508   3.627 -1.1308  1.2109  0.7451
   99SAPC  C211 9841   0.698   3.395   3.647 -0.6618 -0.5238 -0.0998
   99SAPC  H11R 9842   0.632   3.333   3.584 -0.7087  0.2837 -0.8716
   99SAPC  C212 9843   0.690   3.377   3.783 -0.7990 -0.0072 -0.4730
   99SAPC  H12R 9844   0.616   3.304   3.820  0.3972 -0.5440  0.9164
   99SAPC  C213 9845   0.783   3.443   3.877 -0.2269 -0.5769  0.1757
   99SAPC  H13R 9846   0.734   3.489   3.965  0.3127  2.3982 -0.9339
   99SAPC  H13S 9847   0.827   3.530   3.823 -2.5301 -0.0050 -0.8969
   99SAPC  C214 9848   0.901   3.350   3.911  0.3729 -0.9048  0.4336
   99SAPC  H14R 9849   0.968   3.324   3.827  0.8853 -2.1987  1.2113
   99SAPC  C215 9850   0.930   3.306   4.038  0.2832 -0.3289  0.4996
   99SAPC  H15R 9851   1.020   3.242   4.040  1.1471  0.8555  0.8064
   99SAPC  C216 9852   0.853   3.324   4.164  0.0866  0.3232  0.0354
   99SAPC  H16R 9853   0.757   3.379   4.150  0.5183  0.6577 -2.0336
   99SAPC  H16S 9854   0.912   3.387   4.234  0.0102 -1.5952  1.8977
   99SAPC  C217 9855   0.826   3.184   4.227  0.4037 -0.3726  0.1398
   99SAPC  H17R 9856   0.923   3.133   4.247  0.8660  0.3226 -0.2631
   99SAPC  H17S 9857   0.778   3.119   4.151 -1.1685 -1.4742  1.9981
   99SAPC  C218 9858   0.718   3.191   4.341  0.0364 -0.0589 -0.3334
   99SAPC  H18R 9859   0.691   3.085   4.361  1.3030 -0.1183  1.2765
   99SAPC  H18S 9860   0.629   3.246   4.303 -0.3328 -0.0172  0.5513
   99SAPC  C219 9861   0.772   3.260   4.464 -0.5996  0.5320 -0.2760
   99SAPC  H19R 9862   0.832   3.351   4.448  1.9074 -0.6852  1.5435
   99SAPC  H19S 9863   0.831   3.194   4.532 -0.0419  0.0371 -1.2318
   99SAPC  C220 9864   0.663   3.299   4.564  0.2514 -0.2071  0.3184
   99SAPC  H20R 9865   0.614   3.202   4.588  0.3405 -0.6003 -1.0017
   99SAPC  H20S 9866   0.588   3.364   4.515 -0.9031 -1.5890  0.1555
   99SAPC  H20T 9867   0.693   3.344   4.661 -0.2898  1.6087 -0.3138
   99SAPC   C33 9868   0.736   4.271   3.218  0.8214 -0.0531  0.2663
   99SAPC   H3X 9869   0.630   4.239   3.215  0.4984  1.0326 -0.9494
   99SAPC   H3Y 9870   0.740   4.381   3.201  1.2313 -0.0283  0.5136
   99SAPC   C34 9871   0.788   4.249   3.361 -0.7412  0.3955 -0.2515
   99SAPC   H4X 9872   0.784   4.140   3.383  0.6013  0.6425  1.5142
   99SAPC   H4Y 9873   0.728   4.297   3.442  1.2900  1.3511  0.7734
   99SAPC   C35 9874   0.926   4.298   3.386  0.6221  0.1716  0.5870
   99SAPC   H5X 9875   0.937   4.408   3.390 -0.3267  0.2636  0.8715
   99SAPC   H5Y 9876   1.003   4.276   3.309  1.6658 -2.3440  2.1812
   99SAPC   C36 9877   0.978   4.236   3.519  0.8927  0.3303 -0.2908
   99SAPC   H6X 9878   1.075   4.281   3.546  0.0504  1.0704  1.6892
   99SAPC   H6Y 9879   1.004   4.132   3.489 -0.7359  0.6029 -2.9085
   99SAPC   C37 9880   0.881   4.239   3.636  0.1389 -0.3853 -0.6129
   99SAPC   H7X 9881   0.788   4.188   3.602 -2.0339  1.1771  2.4821
   99SAPC   H7Y 9882   0.852   4.344   3.660  0.9804 -0.7797  2.4629
   99SAPC   C38 9883   0.919   4.175   3.770 -0.2125 -0.3808  0.1735
   99SAPC   H8X 9884   1.019   4.217   3.791 -0.9078  0.4955  1.9666
   99SAPC   H8Y 9885   0.926   4.065   3.751 -3.3869 -0.6116 -0.2432
   99SAPC   C39 9886   0.821   4.192   3.886 -0.5446  0.5592 -0.0835
   99SAPC   H9X 9887   0.720   4.169   3.844 -1.9015  1.6940  2.3193
   99SAPC   H9Y 9888   0.802   4.300   3.900  0.2660  0.7908 -0.7305
   99SAPC  C310 9889   0.832   4.086   3.995  0.5221  0.5778 -0.7096
   99SAPC  H10X 9890   0.930   4.073   4.044  0.2588 -2.1230 -0.7443
   99SAPC  H10Y 9891   0.788   3.987   3.974 -0.8331  1.1709 -0.7964
   99SAPC  C311 9892   0.737   4.120   4.119 -0.0056  0.1417 -0.6540
   99SAPC  H11X 9893   0.635   4.119   4.075 -0.4138  1.4896  0.1892
   99SAPC  H11Y 9894   0.755   4.225   4.153  2.3685  0.1819 -1.8422
   99SAPC  C312 9895   0.765   4.020   4.237  0.0237  0.1077 -0.1001
   99SAPC  H12X 9896   0.870   4.005   4.268  1.0464  1.9810 -2.3232
   99SAPC  H12Y 9897   0.732   3.922   4.196  0.9034 -0.2000 -0.0936
   99SAPC  C313 9898   0.670   4.043   4.358 -0.0189 -0.8216 -0.7233
   99SAPC  H13X 9899   0.568   4.020   4.322 -0.2736  0.0613 -0.5814
   99SAPC  H13Y 9900   0.669   4.148   4.393  0.5136 -1.4592  1.3333
   99SAPC  C314 9901   0.703   3.975   4.491  0.2993 -0.8114  0.2665
   99SAPC  H14X 9902   0.640   4.025   4.567  1.1079  0.4584  0.1232
   99SAPC  H14Y 9903   0.809   3.998   4.513 -0.1638  1.7459  0.0447
   99SAPC  C315 9904   0.664   3.817   4.502  0.5749  0.1315 -0.2083
   99SAPC  H15X 9905   0.719   3.760   4.424 -0.4893 -0.5120 -0.5072
   99SAPC  H15Y 9906   0.557   3.801   4.475 -0.0010  2.2377  0.6350
   99SAPC  C316 9907   0.697   3.770   4.641 -0.2382 -0.0688  0.2365
   99SAPC  H16X 9908   0.658   3.835   4.722  0.6082 -0.4283  0.9432
   99SAPC  H16Y 9909   0.808   3.768   4.646 -0.1580 -1.5467 -1.2599
   99SAPC  C317 9910   0.635   3.633   4.671  0.5451 -0.0663  0.2542
   99SAPC  H17X 9911   0.677   3.557   4.601  1.8513  1.2677 -0.4631
   99SAPC  H17Y 9912   0.527   3.643   4.650  0.9814  2.4473 -1.1239
   99SAPC  C318 9913   0.666   3.579   4.815 -0.0118 -0.3055  0.5239
   99SAPC  H18X 9914   0.759   3.630   4.846 -0.4755  2.2210 -1.8328
   99SAPC  H18Y 9915   0.669   3.468   4.817  1.2587 -0.3123 -0.3028
   99SAPC  H18Z 9916   0.587   3.620   4.881 -0.5658 -0.4971 -0.0003
  100SAPC     N 9917   3.765   4.971   2.507 -0.4720 -0.5700  0.3616
  100SAPC   C12 9918   3.645   4.951   2.596  0.0689  0.0664  0.5801
  100SAPC  H12A 9919   3.580   4.875   2.554  0.9006 -0.3103 -0.0485
  100SAPC  H12B 9920   3.593   5.045   2.597 -0.9231 -0.4625  1.7518
  100SAPC   C13 9921   3.713   5.001   2.367  0.5084  0.3292  0.1274
  100SAPC  H13A 9922   3.655   4.916   2.334 -0.6466  1.7283 -1.5991
  100SAPC  H13B 9923   3.663   5.096   2.356  1.4798  0.8883  0.4123
  100SAPC  H13C 9924   3.788   4.996   2.290  0.1404  0.6787 -0.2574
  100SAPC   C14 9925   3.861   5.081   2.551 -0.4149 -0.3373 -0.6644
  100SAPC  H14A 9926   3.862   5.082   2.659 -1.2400 -1.7648 -0.6133
  100SAPC  H14B 9927   3.962   5.071   2.515 -0.2371 -1.3097  0.0620
  100SAPC  H14C 9928   3.827   5.177   2.516  0.4315  0.0562 -0.4286
  100SAPC   C15 9929   3.842   4.845   2.493 -1.1211 -0.3758  0.0014
  100SAPC  H15A 9930   3.770   4.776   2.452 -0.3151  0.6121 -3.3121
  100SAPC  H15B 9931   3.912   4.858   2.413 -1.6324  1.0218 -0.2472
  100SAPC  H15C 9932   3.885   4.823   2.590 -0.8746 -0.5553 -0.1475
  100SAPC   C11 9933   3.675   4.918   2.741 -0.1008 -0.2988 -0.4535
  100SAPC  H11A 9934   3.739   4.830   2.761 -1.4678 -0.9227  1.3827
  100SAPC  H11B 9935   3.577   4.892   2.786 -0.1302 -2.4141 -1.6265
  100SAPC     P 9936   3.769   5.023   2.958  0.5597 -0.4483  0.4402
  100SAPC   O13 9937   3.808   4.891   3.001 -0.5582 -0.2377  0.0450
  100SAPC   O14 9938   3.859   5.135   2.990 -0.0238  0.1139  0.2723
  100SAPC   O12 9939   3.726   5.031   2.802  0.1829  0.1839  0.1392
  100SAPC   O11 9940   3.628   5.061   3.015 -0.0253  0.4929  0.0299
  100SAPC    C1 9941   3.597   5.029   3.150  0.3723  0.0876 -0.5500
  100SAPC    HA 9942   3.487   5.022   3.162  0.3363  1.6963  0.2962
  100SAPC    HB 9943   3.625   4.925   3.178  0.5565 -0.1778 -1.6805
  100SAPC    C2 9944   3.670   5.121   3.263  0.1862 -0.4740  0.4552
  100SAPC    HS 9945   3.664   5.221   3.215  1.2281 -2.5199 -4.5448
  100SAPC   O21 9946   3.803   5.075   3.288  0.7050 -0.1179 -0.0064
  100SAPC   C21 9947   3.895   5.176   3.286  0.1258 -0.0355 -0.4986
  100SAPC   O22 9948   3.867   5.296   3.281  0.5463 -0.1829  0.5113
  100SAPC   C22 9949   4.037   5.122   3.313  0.2858 -0.1560  0.7042
  100SAPC   H2R 9950   4.027   5.088   3.418 -2.1636  1.3858  1.0565
  100SAPC   H2S 9951   4.029   5.031   3.251 -1.7457 -0.6648  1.6254
  100SAPC    C3 9952   3.599   5.126   3.399 -0.1672 -0.3518 -0.2744
  100SAPC    HX 9953   3.628   5.035   3.456  0.3825 -1.2636 -1.9444
  100SAPC    HY 9954   3.490   5.135   3.381  0.0663  0.1945 -1.4789
  100SAPC   O31 9955   3.637   5.248   3.468 -0.5062 -0.1037 -0.2771
  100SAPC   C31 9956   3.726   5.237   3.562  0.2396 -0.1770  0.0614
  100SAPC   O32 9957   3.779   5.133   3.597 -0.5643  0.3934 -0.1556
  100SAPC   C32 9958   3.760   5.381   3.616  0.0510  0.3621  0.1603
  100SAPC   H2X 9959   3.691   5.451   3.565  1.6197  1.2665 -0.7971
  100SAPC   H2Y 9960   3.864   5.398   3.581  0.2427  1.8986  1.3357
  100SAPC   C23 9961   4.151   5.214   3.274 -0.2734  0.1519  0.0861
  100SAPC   H3R 9962   4.125   5.307   3.218  0.3547  0.9315  1.0557
  100SAPC   H3S 9963   4.219   5.156   3.210 -1.4911  0.2084 -1.3181
  100SAPC   C24 9964   4.227   5.260   3.395  0.3313 -0.3930 -0.1597
  100SAPC   H4R 9965   4.320   5.315   3.368  1.1758 -2.9994 -3.1910
  100SAPC   H4S 9966   4.249   5.175   3.463 -0.2894  0.8613  1.6893
  100SAPC   C25 9967   4.144   5.357   3.474  0.0035 -0.9173 -1.2352
  100SAPC   H5R 9968   4.075   5.427   3.424 -1.8014 -2.7076 -1.3782
  100SAPC   C26 9969   4.133   5.356   3.610  0.6359 -0.6332 -0.2217
  100SAPC   H6R 9970   4.062   5.423   3.662 -0.6101 -3.6485  2.2984
  100SAPC   C27 9971   4.203   5.278   3.715 -0.1096 -0.0095  1.0792
  100SAPC   H7R 9972   4.210   5.330   3.812  0.0815  2.2251 -0.0694
  100SAPC   H7S 9973   4.311   5.269   3.689 -0.1284 -1.3065  1.3579
  100SAPC   C28 9974   4.137   5.144   3.736 -0.5194  0.6218 -0.1803
  100SAPC   H8R 9975   4.081   5.102   3.651 -0.4071 -0.8113  0.4184
  100SAPC   C29 9976   4.123   5.075   3.848 -0.0789 -0.4834 -0.1364
  100SAPC   H9R 9977   4.056   4.988   3.850  0.8152 -1.2132  2.1175
  100SAPC  C210 9978   4.163   5.120   3.984 -0.2193  0.5708 -0.6773
  100SAPC  H10R 9979   4.087   5.192   4.022  0.4994  1.9589 -1.7485
  100SAPC  H10S 9980   4.253   5.185   3.985  0.7769 -0.7725 -0.4631
  100SAPC  C211 9981   4.180   5.001   4.075  0.2628  1.0204 -0.0109
  100SAPC  H11R 9982   4.252   4.930   4.032  0.8890 -0.6900  3.5175
  100SAPC  C212 9983   4.100   4.968   4.180 -0.2717  0.0494 -0.4509
  100SAPC  H12R 9984   4.125   4.873   4.229  1.4096 -0.9373 -3.0359
  100SAPC  C213 9985   3.980   5.048   4.225 -0.0598 -0.1276 -0.0270
  100SAPC  H13R 9986   3.921   5.076   4.135  1.1700  1.0012 -0.5220
  100SAPC  H13S 9987   4.005   5.148   4.269  0.2950 -0.6228  0.9211
  100SAPC  C214 9988   3.881   4.970   4.304  0.1362 -0.3092  0.5711
  100SAPC  H14R 9989   3.866   4.869   4.262 -0.7139  0.2918 -0.6264
  100SAPC  C215 9990   3.810   5.025   4.407 -0.6026 -0.6580 -0.2600
  100SAPC  H15R 9991   3.737   4.976   4.473 -1.0364 -1.1964 -1.1246
  100SAPC  C216 9992   3.824   5.170   4.446 -0.0181  0.2543  0.0409
  100SAPC  H16R 9993   3.725   5.221   4.441  0.5862  1.3287 -1.9833
  100SAPC  H16S 9994   3.902   5.230   4.395 -0.2401  0.6386  0.1495
  100SAPC  C217 9995   3.868   5.192   4.593 -0.0940 -0.2556  0.1031
  100SAPC  H17R 9996   3.930   5.283   4.608  2.6177 -2.1841  1.4582
  100SAPC  H17S 9997   3.931   5.108   4.627 -0.2136 -0.2947  0.2276
  100SAPC  C218 9998   3.749   5.208   4.686  0.1244  0.0771 -0.3223
  100SAPC  H18R 9999   3.673   5.128   4.669 -0.9495  0.6554  1.4943
  100SAPC  H18S10000   3.701   5.304   4.659 -0.1532  0.0928  0.2271
  100SAPC  C21910001   3.777   5.199   4.840  0.4317  0.3592  0.5244
  100SAPC  H19R10002   3.852   5.275   4.868  0.7736  0.1511  0.1815
  100SAPC  H19S10003   3.820   5.097   4.855 -0.2378 -0.1187 -0.6449
  100SAPC  C22010004   3.650   5.211   4.918  0.3104  0.4045  0.9004
  100SAPC  H20R10005   3.621   5.318   4.922  0.9798  0.5536  2.7724
  100SAPC  H20S10006   3.668   5.172   5.021 -2.1334 -2.0661  0.5012
  100SAPC  H20T10007   3.570   5.149   4.873  0.4702 -0.0241  1.1875
  100SAPC   C3310008   3.727   5.390   3.770  0.2067 -0.0321  0.5749
  100SAPC   H3X10009   3.703   5.290   3.811  0.7489 -0.4726 -0.1385
  100SAPC   H3Y10010   3.639   5.457   3.769 -1.0729 -1.6520  0.8487
  100SAPC   C3410011   3.836   5.440   3.863  0.5628 -0.1623 -0.8838
  100SAPC   H4X10012   3.891   5.525   3.818 -0.8526  0.3268 -1.7413
  100SAPC   H4Y10013   3.906   5.358   3.889 -1.5353 -1.7584  0.0878
  100SAPC   C3510014   3.783   5.492   3.998 -0.1030  0.8121  0.1481
  100SAPC   H5X10015   3.705   5.567   3.972  0.7557  1.3443 -1.0012
  100SAPC   H5Y10016   3.861   5.539   4.061 -0.8642 -0.2135  1.9175
  100SAPC   C3610017   3.722   5.383   4.085  0.2600  0.7658  0.2046
  100SAPC   H6X10018   3.807   5.331   4.134  0.5286  1.0345  0.0280
  100SAPC   H6Y10019   3.664   5.304   4.033 -0.7137  0.6165  1.4732
  100SAPC   C3710020   3.630   5.429   4.202  0.5804  0.5313 -0.2131
  100SAPC   H7X10021   3.586   5.341   4.254  2.1781 -0.1327  0.0574
  100SAPC   H7Y10022   3.546   5.488   4.157  1.9565  1.2180 -2.0220
  100SAPC   C3810023   3.700   5.532   4.294  0.4336  0.0373 -0.1580
  100SAPC   H8X10024   3.736   5.624   4.243 -2.7864  2.0779  0.9674
  100SAPC   H8Y10025   3.775   5.481   4.357  1.1870  0.7275 -0.4765
  100SAPC   C3910026   3.584   5.584   4.386  0.1439  0.1753 -0.0586
  100SAPC   H9X10027   3.530   5.493   4.423 -0.5747  1.2764  1.7663
  100SAPC   H9Y10028   3.517   5.652   4.330 -0.2881  0.3226  0.6185
  100SAPC  C31010029   3.643   5.668   4.499 -1.0431  0.0530  0.0235
  100SAPC  H10X10030   3.712   5.749   4.469 -0.3845  0.4810  2.4854
  100SAPC  H10Y10031   3.706   5.596   4.556  0.7313  3.2088  2.2963
  100SAPC  C31110032   3.543   5.725   4.601  0.9755  0.0186  0.3284
  100SAPC  H11X10033   3.469   5.793   4.554  1.2634  0.5750  0.6634
  100SAPC  H11Y10034   3.594   5.792   4.673 -0.5428 -0.0216  1.4843
  100SAPC  C31210035   3.469   5.621   4.679 -0.2474 -0.1346 -0.8259
  100SAPC  H12X10036   3.532   5.544   4.729  1.2588  0.1942 -2.1322
  100SAPC  H12Y10037   3.395   5.565   4.619 -0.7674  0.1230 -0.4346
  100SAPC  C31310038   3.392   5.687   4.796 -0.3889 -0.4858 -0.0962
  100SAPC  H13X10039   3.308   5.755   4.768  0.4430  0.3906 -0.5250
  100SAPC  H13Y10040   3.470   5.742   4.851  0.2699 -1.1083 -0.3934
  100SAPC  C31410041   3.338   5.585   4.901 -0.0970 -0.6955 -0.6830
  100SAPC  H14X10042   3.422   5.517   4.930  2.3541  2.1394 -0.6087
  100SAPC  H14Y10043   3.249   5.529   4.866 -0.4134  0.5510 -1.9582
  100SAPC  C31510044   3.296   5.672   5.022 -0.1984 -0.0849  0.6828
  100SAPC  H15X10045   3.215   5.740   4.989 -0.3125 -0.9136 -0.8194
  100SAPC  H15Y10046   3.376   5.736   5.066 -0.1551 -0.7594  1.6117
  100SAPC  C31610047   3.234   5.589   5.136 -0.7991 -0.4031  0.8939
  100SAPC  H16X10048   3.307   5.517   5.179  0.6192 -0.3728 -1.3040
  100SAPC  H16Y10049   3.152   5.523   5.099 -0.3472 -0.8496  0.6787
  100SAPC  C31710050   3.185   5.689   5.247  0.4473  0.5551 -0.0964
  100SAPC  H17X10051   3.106   5.656   5.318  0.8227  1.4893  0.7903
  100SAPC  H17Y10052   3.126   5.765   5.193 -1.4536 -1.1047 -0.4487
  100SAPC  C31810053   3.300   5.730   5.332 -0.3773  0.4160  0.5184
  100SAPC  H18X10054   3.278   5.830   5.376  3.0901  1.4439  0.2325
  100SAPC  H18Y10055   3.392   5.757   5.274 -0.7277  1.5501  0.4555
  100SAPC  H18Z10056   3.325   5.658   5.412 -0.5752  0.3488  0.5188
  101OSM      N10057   5.551   0.634   7.357 -0.3281  0.3249  0.4023
  101OSM    C1510058   5.674   0.710   7.373 -0.2855  0.0007  0.1637
  101OSM   H15A10059   5.734   0.668   7.453  1.0033  1.0877 -0.1989
  101OSM   H15B10060   5.648   0.810   7.402 -0.6161 -0.0347 -0.0130
  101OSM   H15C10061   5.729   0.717   7.280  3.5810  1.5626  2.3248
  101OSM    C1410062   5.595   0.492   7.324 -0.1002 -0.4920  0.0480
  101OSM   H14A10063   5.653   0.457   7.408 -1.6871  2.3214  2.5105
  101OSM   H14B10064   5.651   0.476   7.232 -0.7070 -1.2569 -0.1990
  101OSM   H14C10065   5.508   0.428   7.324 -0.3821 -0.2955 -3.1209
  101OSM    C1310066   5.477   0.642   7.493  0.4965  0.1490  0.1032
  101OSM   H13A10067   5.548   0.645   7.575  0.7426  0.3281 -0.1134
  101OSM   H13B10068   5.409   0.562   7.517  0.5802 -0.1173 -0.5270
  101OSM   H13C10069   5.430   0.739   7.492  3.3148  1.6171 -1.1676
  101OSM    C1210070   5.454   0.678   7.241 -0.1328  0.1251  0.6169
  101OSM   H12A10071   5.376   0.744   7.276  0.6622  2.5616 -1.9009
  101OSM   H12B10072   5.410   0.584   7.212  5.0567 -2.1590 -1.0815
  101OSM    C1110073   5.528   0.744   7.122  1.3354 -0.9808  0.3327
  101OSM   H11A10074   5.575   0.841   7.147 -1.8736  0.9089 -0.3983
  101OSM   H11B10075   5.443   0.770   7.055  0.3084 -2.2455  1.0982
  101OSM      P10076   5.759   0.679   6.997  0.3835  0.3447  0.1330
  101OSM    O1310077   5.747   0.789   6.900  0.2126  0.1434  0.0375
  101OSM    O1410078   5.852   0.694   7.108 -1.0099  0.4251 -0.7793
  101OSM    O1110079   5.799   0.549   6.917  0.2295  0.2188 -0.3960
  101OSM    O1210080   5.613   0.651   7.050  0.7363  0.0304 -0.7642
  101OSM    C1S10081   5.720   0.501   6.812  0.5008  0.5897 -0.0957
  101OSM    H1S10082   5.611   0.505   6.836  0.7107 -1.9443  1.6975
  101OSM    H1T10083   5.740   0.393   6.795 -0.6769  0.6122 -1.9342
  101OSM     NF10084   5.680   0.492   6.574 -0.5941 -0.1060  0.2432
  101OSM    HNF10085   5.718   0.434   6.503 -2.7248 -2.5521  0.9418
  101OSM    C2S10086   5.768   0.558   6.676  0.2421  0.1264  0.3543
  101OSM    H2S10087   5.748   0.667   6.671 -1.9291 -0.2264  0.0606
  101OSM    C3S10088   5.920   0.538   6.656 -0.8537  0.0084 -0.0948
  101OSM    H3S10089   5.942   0.432   6.635  3.0085  0.6326  0.0053
  101OSM     O310090   6.004   0.582   6.764  0.0374  0.7751  0.5533
  101OSM    HO310091   5.942   0.584   6.837 -0.6715 -0.4212  0.0284
  101OSM    C4S10092   5.957   0.611   6.526  0.3646 -0.0755  0.1776
  101OSM    H4S10093   5.918   0.555   6.440  0.7940  0.9660 -0.7271
  101OSM    C5S10094   6.027   0.722   6.509 -0.4851 -0.5041  0.2652
  101OSM    H5S10095   6.072   0.766   6.599  1.3497 -0.4132 -0.6569
  101OSM    C6S10096   6.077   0.793   6.380 -0.1215  0.6275  0.1819
  101OSM    H6S10097   6.187   0.806   6.373 -0.0730  0.2381  0.2040
  101OSM    H6T10098   6.020   0.887   6.391 -0.9630  0.1362  0.1069
  101OSM    C7S10099   6.041   0.712   6.256 -0.0911 -0.3835  0.5384
  101OSM    H7S10100   5.933   0.692   6.242 -0.5320  2.6056 -1.1804
  101OSM    H7T10101   6.089   0.612   6.248 -1.2179 -1.1972  2.8717
  101OSM    C8S10102   6.077   0.801   6.125  0.2093 -0.4454 -0.4677
  101OSM    H8S10103   6.185   0.824   6.123  0.1503 -0.1610 -2.2674
  101OSM    H8T10104   6.014   0.892   6.135  0.5849 -0.0986 -1.1622
  101OSM    C9S10105   6.051   0.724   6.000 -0.4753 -1.1317  0.1978
  101OSM    H9S10106   5.946   0.688   6.002 -0.4895 -1.1332 -0.2641
  101OSM    H9T10107   6.127   0.644   5.987  1.1010  0.1470  1.1954
  101OSM   C10S10108   6.065   0.820   5.876 -0.2805  0.8310 -1.1532
  101OSM   H10S10109   6.166   0.866   5.867  0.4075 -0.9078 -3.2341
  101OSM   H10T10110   5.996   0.905   5.891  1.7821  2.1979  1.5363
  101OSM   C11S10111   6.020   0.751   5.742 -0.0572 -0.4264 -0.0332
  101OSM   H11S10112   5.939   0.677   5.758 -0.1588 -1.8421 -5.2553
  101OSM   H11T10113   6.106   0.692   5.704  0.6544  1.6417 -1.8915
  101OSM   C12S10114   5.986   0.850   5.627  0.7098 -0.0891 -0.7396
  101OSM   H12S10115   6.066   0.928   5.630 -0.6407  1.4159 -1.9513
  101OSM   H12T10116   5.889   0.898   5.650  0.6650 -0.0813 -0.9430
  101OSM   C13S10117   5.979   0.782   5.486  0.3747  0.1835 -0.1769
  101OSM   H13S10118   5.888   0.719   5.495  0.4809 -0.3099 -2.1015
  101OSM   H13T10119   6.076   0.730   5.470 -0.3222 -1.0560 -0.5559
  101OSM   C14S10120   5.963   0.888   5.371  0.8458  0.0895  0.8519
  101OSM   H14S10121   6.056   0.949   5.360  0.5006  0.1362 -4.5974
  101OSM   H14T10122   5.877   0.952   5.401 -0.4713 -1.9855  1.6826
  101OSM   C15S10123   5.953   0.823   5.235  0.4525  0.2293  0.1930
  101OSM   H15S10124   5.856   0.770   5.224  0.4956  0.2741 -0.4347
  101OSM   H15T10125   6.039   0.756   5.218 -0.3048 -0.6416 -0.2802
  101OSM   C16S10126   5.966   0.927   5.118  0.6188  0.1832 -0.1218
  101OSM   H16S10127   6.063   0.977   5.141  0.4924  1.5124 -2.2126
  101OSM   H16T10128   5.881   0.999   5.120 -1.0831 -1.7102 -0.7501
  101OSM   C17S10129   5.982   0.845   4.981  0.4080  0.0538 -0.2930
  101OSM   H17S10130   5.888   0.788   4.964  1.3820 -1.7799  0.2610
  101OSM   H17T10131   6.070   0.778   4.986 -0.1688 -1.0017 -2.8256
  101OSM   C18S10132   5.998   0.933   4.856 -0.4366 -0.4740 -0.4935
  101OSM   H18S10133   5.905   0.989   4.835 -0.7103 -0.9815 -0.6573
  101OSM   H18T10134   6.019   0.870   4.767 -0.7445  1.7356 -2.2170
  101OSM   H18U10135   6.084   1.001   4.870  1.7464 -2.8214 -1.6281
  101OSM    C1F10136   5.551   0.510   6.571  0.6315  0.3687  0.0479
  101OSM     OF10137   5.491   0.578   6.655  0.6345 -0.0459  0.0949
  101OSM    C2F10138   5.480   0.448   6.451 -0.1613  0.5130 -0.6210
  101OSM    H2F10139   5.508   0.341   6.442 -3.0551 -0.5974  1.8138
  101OSM    H2G10140   5.526   0.500   6.365  0.6630  0.9978  0.0940
  101OSM    C3F10141   5.332   0.462   6.459  0.1447  0.0010 -0.6344
  101OSM    H3F10142   5.305   0.569   6.472  3.1389  0.8055 -0.2408
  101OSM    H3G10143   5.296   0.403   6.547  1.3567 -0.5369 -0.4769
  101OSM    C4F10144   5.256   0.407   6.338  0.0278 -0.1804 -0.0291
  101OSM    H4F10145   5.153   0.380   6.369  0.2726  0.3003  1.2876
  101OSM    H4G10146   5.303   0.316   6.295  0.0646  0.8740 -2.4067
  101OSM    C5F10147   5.252   0.497   6.211  0.1894  0.8126 -0.2985
  101OSM    H5F10148   5.344   0.501   6.148  0.1521 -4.4008 -1.1095
  101OSM    H5G10149   5.229   0.603   6.235  2.5818  1.4636 -0.5723
  101OSM    C6F10150   5.159   0.438   6.116 -0.3116  0.3411 -0.0060
  101OSM    H6F10151   5.063   0.419   6.169  0.3335  0.5721  1.2832
  101OSM    H6G10152   5.197   0.339   6.086 -0.9872 -0.3458  1.3034
  101OSM    C7F10153   5.127   0.519   5.994  0.2470 -0.7347  0.2374
  101OSM    H7F10154   5.223   0.510   5.938 -0.5798 -1.5595 -1.1274
  101OSM    H7G10155   5.106   0.624   6.024 -1.7918 -1.6236  2.1559
  101OSM    C8F10156   5.015   0.477   5.912  0.1971  0.1275  0.3887
  101OSM    H8F10157   4.997   0.553   5.833 -2.9329 -0.1871  0.6834
  101OSM    H8G10158   4.928   0.477   5.980 -0.1338  0.8113 -0.0198
  101OSM    C9F10159   5.038   0.345   5.843  0.1648 -0.7448  0.4052
  101OSM    H9F10160   5.012   0.251   5.894 -2.0290 -1.7564 -2.3249
  101OSM   C10F10161   5.091   0.320   5.722 -0.1179 -0.3006  0.6169
  101OSM   H10F10162   5.076   0.218   5.684 -1.0965 -1.2789  3.3837
  101OSM   C11F10163   5.132   0.435   5.637 -0.6018  0.1981 -0.0755
  101OSM   H11F10164   5.234   0.476   5.657 -0.2820 -1.4368  1.9977
  101OSM   H11G10165   5.064   0.523   5.640  0.2946  0.9106 -0.0181
  101OSM   C12F10166   5.113   0.397   5.486 -0.4019 -0.1547 -0.1031
  101OSM   H12F10167   5.023   0.333   5.477 -0.9372  0.6453 -0.5276
  101OSM   H12G10168   5.200   0.335   5.453  0.0378  0.3903  0.0250
  101OSM   C13F10169   5.110   0.512   5.385 -0.1769  0.1920  0.7309
  101OSM   H13F10170   5.198   0.577   5.402  1.3816 -1.2381 -1.2559
  101OSM   H13G10171   5.016   0.568   5.404  0.3342  0.6570  1.9403
  101OSM   C14F10172   5.102   0.461   5.239  0.3823 -0.4776  0.0136
  101OSM   H14F10173   4.993   0.464   5.214  0.2595 -2.1581  0.2322
  101OSM   H14G10174   5.120   0.351   5.231 -1.3639 -0.7349 -0.9480
  101OSM   C15F10175   5.185   0.543   5.139 -0.5519 -0.1363  1.1549
  101OSM   H15F10176   5.172   0.653   5.149  2.8303  0.7219 -1.8725
  101OSM   H15G10177   5.144   0.510   5.041  1.5356  0.6173 -0.0288
  101OSM   C16F10178   5.341   0.532   5.157  0.6784 -0.0156  0.0316
  101OSM   H16F10179   5.381   0.429   5.157 -1.5951 -0.9748 -1.8203
  101OSM   H16G10180   5.370   0.580   5.253  2.4488  2.5504 -1.6358
  101OSM   C17F10181   5.415   0.597   5.043 -0.2742  0.6160 -0.2029
  101OSM   H17F10182   5.405   0.708   5.037 -0.9615  0.4923 -1.6567
  101OSM   H17G10183   5.357   0.568   4.953  0.5660 -1.4406 -0.1210
  101OSM   C18F10184   5.568   0.583   5.039 -0.2935  0.3787  0.2500
  101OSM   H18F10185   5.608   0.624   5.134 -1.4463  0.1935  0.8331
  101OSM   H18G10186   5.614   0.633   4.952  1.7001 -1.5433  0.0977
  101OSM   H18H10187   5.592   0.475   5.028 -0.1111  0.3276  1.0566
  102OSM      N10188   6.581   0.411   7.348 -0.6205 -0.8109  0.3744
  102OSM    C1510189   6.527   0.341   7.467 -0.5646 -0.2619 -0.2103
  102OSM   H15A10190   6.419   0.343   7.472 -0.5280  0.4956  0.5778
  102OSM   H15B10191   6.558   0.398   7.554 -1.0396  0.6056 -0.5985
  102OSM   H15C10192   6.549   0.235   7.466 -1.2332 -0.4106 -1.5522
  102OSM    C1410193   6.504   0.365   7.233  0.1889  0.3664  0.8334
  102OSM   H14A10194   6.512   0.259   7.213 -0.9526  0.7702 -2.3109
  102OSM   H14B10195   6.537   0.421   7.146 -1.4705 -0.8166 -0.6260
  102OSM   H14C10196   6.398   0.377   7.249 -0.2277  0.2983 -1.4913
  102OSM    C1310197   6.570   0.561   7.359  0.2045 -0.0944  0.0290
  102OSM   H13A10198   6.468   0.594   7.352  0.8981  2.0772 -0.7098
  102OSM   H13B10199   6.641   0.610   7.293 -0.0659 -0.2740 -0.4049
  102OSM   H13C10200   6.610   0.589   7.455  1.3096 -1.4824  0.0150
  102OSM    C1210201   6.726   0.375   7.325  0.1026  0.7556 -0.1558
  102OSM   H12A10202   6.738   0.271   7.351  2.2503  1.2259  1.0577
  102OSM   H12B10203   6.792   0.401   7.407  1.4220 -2.1158 -0.1662
  102OSM    C1110204   6.795   0.426   7.193  0.4578  0.9500 -0.5042
  102OSM   H11A10205   6.733   0.395   7.107 -0.4040 -0.3112  0.5300
  102OSM   H11B10206   6.890   0.370   7.181 -1.3482 -2.8021  0.8469
  102OSM      P10207   6.942   0.622   7.258  1.1238 -0.1157  0.0692
  102OSM    O1310208   6.915   0.689   7.386 -0.0734 -0.0823 -0.0767
  102OSM    O1410209   7.047   0.523   7.254 -0.5497  0.1581  0.0462
  102OSM    O1110210   6.977   0.746   7.160 -0.5374  0.2027 -0.3833
  102OSM    O1210211   6.810   0.567   7.196  0.4811 -0.4276  0.4862
  102OSM    C1S10212   6.993   0.726   7.019 -0.1480  0.1357 -0.6225
  102OSM    H1S10213   6.937   0.636   6.985 -0.5075 -0.8018  2.1730
  102OSM    H1T10214   7.091   0.683   6.987 -2.0808 -3.5443 -2.2245
  102OSM     NF10215   6.962   0.812   6.798  0.2509 -0.6857  0.3005
  102OSM    HNF10216   7.040   0.860   6.758  0.3569  0.0958  1.3727
  102OSM    C2S10217   6.941   0.842   6.936  0.0530  0.6634  0.5614
  102OSM    H2S10218   6.830   0.847   6.942 -0.0701  0.3735 -1.0680
  102OSM    C3S10219   6.997   0.978   6.985 -0.7836 -0.3932 -0.6463
  102OSM    H3S10220   7.107   0.970   6.970 -0.4802  1.9463 -0.0724
  102OSM     O310221   6.986   1.010   7.125  0.4937 -0.6419  0.4431
  102OSM    HO310222   6.977   0.924   7.167 -0.3454 -0.7490  0.0629
  102OSM    C4S10223   6.951   1.093   6.900 -0.1357 -0.3770 -0.8220
  102OSM    H4S10224   7.028   1.131   6.831 -1.0901  2.0064 -0.6896
  102OSM    C5S10225   6.837   1.165   6.907  0.0521  0.1277 -0.0627
  102OSM    H5S10226   6.772   1.126   6.986  2.9951 -2.2030  1.4315
  102OSM    C6S10227   6.803   1.286   6.823 -0.9316 -0.5396 -0.2005
  102OSM    H6S10228   6.847   1.376   6.870  1.4897 -1.2215 -1.0080
  102OSM    H6T10229   6.692   1.282   6.823 -0.9865 -1.0632  2.5135
  102OSM    C7S10230   6.855   1.301   6.675  0.1932 -0.4968 -0.0367
  102OSM    H7S10231   6.835   1.205   6.624 -0.6235 -0.7903  0.8069
  102OSM    H7T10232   6.966   1.302   6.669  0.2682 -2.1938  0.3676
  102OSM    C8S10233   6.797   1.429   6.617  0.7436  0.2138  0.1651
  102OSM    H8S10234   6.820   1.516   6.681 -1.9041  0.6429  0.6440
  102OSM    H8T10235   6.687   1.416   6.607  0.9039 -1.2757  0.1221
  102OSM    C9S10236   6.838   1.463   6.473 -0.0113  0.4150 -0.1844
  102OSM    H9S10237   6.946   1.490   6.471  0.5086 -1.5578 -0.7286
  102OSM    H9T10238   6.783   1.548   6.427 -0.6824  0.6723  1.0727
  102OSM   C10S10239   6.820   1.350   6.366  0.2679  0.0274 -0.3879
  102OSM   H10S10240   6.713   1.320   6.369  0.5754 -1.0950 -0.3307
  102OSM   H10T10241   6.880   1.262   6.397  0.6920  0.3606 -0.2510
  102OSM   C11S10242   6.854   1.405   6.225 -0.1246  0.6372 -0.5215
  102OSM   H11S10243   6.963   1.429   6.218 -0.0811  0.0303 -3.3435
  102OSM   H11T10244   6.791   1.495   6.207 -2.5784 -1.1370 -1.3567
  102OSM   C12S10245   6.800   1.308   6.118  1.0996  1.4940 -0.5169
  102OSM   H12S10246   6.694   1.284   6.142  1.6728 -0.1536  0.5372
  102OSM   H12T10247   6.844   1.207   6.134  0.7864  1.2228 -1.3043
  102OSM   C13S10248   6.822   1.360   5.971 -0.1789 -0.4548 -0.2174
  102OSM   H13S10249   6.932   1.356   5.955  0.0864  2.5428  0.2733
  102OSM   H13T10250   6.787   1.465   5.986  1.0550 -0.2592  1.6929
  102OSM   C14S10251   6.743   1.303   5.858  0.3164  0.2990 -0.3776
  102OSM   H14S10252   6.636   1.309   5.885  0.7892 -2.1408  2.6056
  102OSM   H14T10253   6.768   1.195   5.858 -1.2609 -0.1526  1.9691
  102OSM   C15S10254   6.774   1.363   5.714  0.3029  0.1522 -0.0990
  102OSM   H15S10255   6.873   1.324   5.682 -0.0327  0.7640 -2.0482
  102OSM   H15T10256   6.781   1.474   5.720 -0.2864  0.3864 -2.5283
  102OSM   C16S10257   6.673   1.314   5.605 -0.4035 -0.4775 -1.2721
  102OSM   H16S10258   6.570   1.338   5.641  0.6137  3.2953 -0.4527
  102OSM   H16T10259   6.691   1.205   5.597  3.0352 -0.1815  0.8524
  102OSM   C17S10260   6.699   1.375   5.467 -0.0905 -0.7526 -0.7476
  102OSM   H17S10261   6.654   1.477   5.463 -1.7883 -1.4654 -0.8152
  102OSM   H17T10262   6.640   1.318   5.392  0.2230 -0.8005 -0.9600
  102OSM   C18S10263   6.844   1.371   5.416  0.4259 -0.4071 -0.0622
  102OSM   H18S10264   6.897   1.278   5.447  0.5331 -0.2669  0.1715
  102OSM   H18T10265   6.894   1.462   5.455 -0.1560 -1.2733  2.9647
  102OSM   H18U10266   6.853   1.378   5.305  0.3621 -0.6396 -0.0830
  102OSM    C1F10267   6.892   0.716   6.728 -0.4267 -0.4161 -0.3525
  102OSM     OF10268   6.784   0.681   6.769  0.1790 -0.1221 -0.0024
  102OSM    C2F10269   6.948   0.652   6.603  0.1716  0.1034 -1.3981
  102OSM    H2F10270   6.971   0.544   6.614 -1.4151 -0.2104 -0.8392
  102OSM    H2G10271   7.039   0.712   6.583  1.9361 -1.5376  1.2127
  102OSM    C3F10272   6.849   0.673   6.489  0.0917  0.2061  0.8745
  102OSM    H3F10273   6.824   0.781   6.477  2.7371  0.7196 -0.7051
  102OSM    H3G10274   6.758   0.620   6.524 -0.7896  1.1946  0.1182
  102OSM    C4F10275   6.906   0.625   6.353  0.2626 -0.4998 -0.3364
  102OSM    H4F10276   6.946   0.522   6.366  1.4675  0.0792  0.8507
  102OSM    H4G10277   7.001   0.676   6.324  1.0315  0.5960  3.5277
  102OSM    C5F10278   6.805   0.633   6.237 -0.5987  0.0306  0.7254
  102OSM    H5F10279   6.784   0.742   6.225 -0.1965  0.2107  1.5336
  102OSM    H5G10280   6.712   0.582   6.268 -0.0172 -0.6675  1.3642
  102OSM    C6F10281   6.868   0.577   6.104 -0.0002 -0.4136 -0.1360
  102OSM    H6F10282   6.880   0.468   6.120  1.6984 -0.0650  1.2982
  102OSM    H6G10283   6.969   0.624   6.096 -1.0791  2.5584  1.7092
  102OSM    C7F10284   6.790   0.619   5.982 -0.1107 -0.4517  0.0468
  102OSM    H7F10285   6.823   0.713   5.931 -1.1626  0.3350  0.7642
  102OSM    H7G10286   6.686   0.634   6.016 -0.1434  2.1326 -0.9143
  102OSM    C8F10287   6.776   0.513   5.868  1.1979 -0.2385 -0.1403
  102OSM    H8F10288   6.717   0.556   5.783  0.6166  1.2298  0.9520
  102OSM    H8G10289   6.717   0.427   5.907 -1.1120  1.2170 -0.1927
  102OSM    C9F10290   6.904   0.466   5.816 -0.8039 -0.0181 -0.4149
  102OSM    H9F10291   6.997   0.489   5.871  0.5207 -0.1400 -2.4900
  102OSM   C10F10292   6.908   0.399   5.699 -0.1487 -0.0604 -0.4328
  102OSM   H10F10293   7.000   0.349   5.667 -1.5016 -3.3009  0.4004
  102OSM   C11F10294   6.793   0.362   5.607  0.3114  0.5541 -1.6239
  102OSM   H11F10295   6.700   0.362   5.668  1.1327 -1.0898 -0.2549
  102OSM   H11G10296   6.806   0.255   5.579 -0.7528 -0.3753  1.0650
  102OSM   C12F10297   6.775   0.452   5.483  0.0539  1.0837  0.2815
  102OSM   H12F10298   6.754   0.554   5.521 -2.8575  1.1854 -1.3673
  102OSM   H12G10299   6.687   0.412   5.428  0.8737 -0.1111 -0.2047
  102OSM   C13F10300   6.886   0.437   5.383  0.5123  0.3915  0.3249
  102OSM   H13F10301   6.899   0.327   5.370  1.0232  0.6646 -1.8882
  102OSM   H13G10302   6.979   0.473   5.432  0.3505 -0.7823  1.5204
  102OSM   C14F10303   6.855   0.495   5.251  0.6407  0.6580 -0.2335
  102OSM   H14F10304   6.952   0.493   5.195 -0.0202  1.1192 -1.4354
  102OSM   H14G10305   6.793   0.587   5.259  0.2757  0.4415 -0.5598
  102OSM   C15F10306   6.759   0.409   5.172 -0.0858 -0.1647  0.8973
  102OSM   H15F10307   6.657   0.423   5.213 -0.0210  0.9064  0.7191
  102OSM   H15G10308   6.783   0.301   5.185  1.1675 -0.0309 -0.1699
  102OSM   C16F10309   6.743   0.460   5.027  0.0264  0.4613  0.0914
  102OSM   H16F10310   6.840   0.488   4.980 -0.1094 -1.2149 -1.2879
  102OSM   H16G10311   6.687   0.556   5.031  2.4790  1.9197  2.8670
  102OSM   C17F10312   6.655   0.367   4.934  0.0155 -0.1744 -0.2567
  102OSM   H17F10313   6.672   0.259   4.950  1.5973  0.0089 -0.5556
  102OSM   H17G10314   6.702   0.379   4.834  0.0150  0.6107 -0.1684
  102OSM   C18F10315   6.503   0.390   4.933  0.0864 -0.2053 -0.1462
  102OSM   H18F10316   6.451   0.299   4.895  2.7536 -2.5100  1.2975
  102OSM   H18G10317   6.471   0.477   4.872 -0.7224 -0.3765  0.0150
  102OSM   H18H10318   6.463   0.405   5.035  0.0864 -1.5012  0.0714
  103OSM      N10319   3.481   1.799   7.267  0.1113  0.0749 -0.1548
  103OSM    C1510320   3.558   1.697   7.338  0.2816  0.2772  0.2438
  103OSM   H15A10321   3.613   1.743   7.419  1.4567 -0.1251 -0.3046
  103OSM   H15B10322   3.622   1.649   7.265  0.2707  0.8452 -0.1406
  103OSM   H15C10323   3.499   1.618   7.381 -0.1343  1.3692  1.7418
  103OSM    C1410324   3.402   1.740   7.158 -0.0307  0.4594 -0.1190
  103OSM   H14A10325   3.332   1.668   7.198  0.9051 -1.0005 -1.0190
  103OSM   H14B10326   3.473   1.713   7.081  2.8107  0.8651  2.1723
  103OSM   H14C10327   3.328   1.805   7.115 -2.1897 -1.1146  1.0285
  103OSM    C1310328   3.379   1.841   7.365 -0.5114  0.0609  0.3040
  103OSM   H13A10329   3.313   1.757   7.376  1.4311 -1.3756  1.7422
  103OSM   H13B10330   3.331   1.934   7.337  1.1039  1.5264  2.1043
  103OSM   H13C10331   3.428   1.857   7.460  2.3670 -1.9936 -0.7193
  103OSM    C1210332   3.562   1.921   7.228 -0.1104  0.2163 -0.3443
  103OSM   H12A10333   3.551   2.014   7.282  3.3812  0.8115 -0.4638
  103OSM   H12B10334   3.523   1.951   7.131 -0.5130 -1.0010 -0.5734
  103OSM    C1110335   3.718   1.904   7.202 -0.0233 -0.2620 -0.1459
  103OSM   H11A10336   3.768   1.881   7.299  0.7828  1.4769 -0.1060
  103OSM   H11B10337   3.754   2.003   7.167  0.5663 -0.1524  0.7319
  103OSM      P10338   3.881   1.751   7.081  0.2978  0.1429 -0.4324
  103OSM    O1310339   3.973   1.867   7.070 -0.9080  0.0728 -0.1273
  103OSM    O1410340   3.914   1.654   7.193 -0.0531  0.0366  0.3355
  103OSM    O1110341   3.874   1.679   6.947 -0.0239 -0.3389  0.6117
  103OSM    O1210342   3.732   1.803   7.097 -0.3503 -0.3897 -0.3422
  103OSM    C1S10343   3.935   1.726   6.830 -0.5276 -0.0877  0.3503
  103OSM    H1S10344   4.046   1.719   6.837 -0.5440 -1.2410 -0.2687
  103OSM    H1T10345   3.910   1.832   6.807 -1.4839 -0.4156 -0.1610
  103OSM     NF10346   3.989   1.680   6.588  0.5226 -0.2426  0.3328
  103OSM    HNF10347   3.960   1.759   6.535 -2.1514 -0.7325  0.8996
  103OSM    C2S10348   3.905   1.641   6.699  0.7078 -0.1036 -0.6152
  103OSM    H2S10349   3.930   1.534   6.717  0.0042 -0.7526 -3.0832
  103OSM    C3S10350   3.756   1.667   6.678  0.6045 -0.0773  0.6181
  103OSM    H3S10351   3.737   1.776   6.667 -0.1369 -0.0121  2.2837
  103OSM     O310352   3.681   1.625   6.788 -0.4117  0.1345  0.0921
  103OSM    HO310353   3.751   1.628   6.853  0.1227 -1.8792 -0.3025
  103OSM    C4S10354   3.700   1.585   6.565  0.6883  0.7015  0.2949
  103OSM    H4S10355   3.686   1.483   6.603  0.6152  1.2172  1.6957
  103OSM    C5S10356   3.678   1.622   6.439 -0.7453 -0.4542 -0.1238
  103OSM    H5S10357   3.721   1.719   6.410 -1.5988 -0.2021 -0.5895
  103OSM    C6S10358   3.634   1.539   6.316 -0.3391 -0.6562 -1.3767
  103OSM    H6S10359   3.549   1.590   6.266 -0.9432  0.2488  0.4818
  103OSM    H6T10360   3.591   1.445   6.357  0.9024 -0.5859  0.1920
  103OSM    C7S10361   3.745   1.518   6.211 -0.0833  0.3523 -0.5268
  103OSM    H7S10362   3.799   1.426   6.241  3.1134  2.0236 -0.7879
  103OSM    H7T10363   3.808   1.610   6.208 -1.1359  1.0689 -1.7545
  103OSM    C8S10364   3.687   1.503   6.068  0.6518 -0.1319 -0.0917
  103OSM    H8S10365   3.619   1.590   6.049  1.8287  1.0665  0.9692
  103OSM    H8T10366   3.624   1.412   6.058  1.7360 -0.6748 -2.7012
  103OSM    C9S10367   3.782   1.505   5.951 -0.4124 -0.0584 -0.4549
  103OSM    H9S10368   3.844   1.415   5.937 -1.8513 -1.2410  0.4851
  103OSM    H9T10369   3.850   1.591   5.969  1.2218 -1.5226  0.6004
  103OSM   C10S10370   3.704   1.529   5.819 -0.1604  0.7343  0.5063
  103OSM   H10S10371   3.619   1.600   5.825 -0.3329  0.5947 -0.1796
  103OSM   H10T10372   3.675   1.424   5.798  1.8610  0.2189  0.0607
  103OSM   C11S10373   3.807   1.592   5.712  0.3544  0.5221 -0.1588
  103OSM   H11S10374   3.901   1.533   5.720  1.3965  2.2355  0.7037
  103OSM   H11T10375   3.830   1.694   5.747 -1.5012  1.0297 -0.3559
  103OSM   C12S10376   3.739   1.584   5.570  0.2552  0.2068  0.2941
  103OSM   H12S10377   3.636   1.625   5.577  0.0250 -0.4659  1.0867
  103OSM   H12T10378   3.720   1.478   5.543 -1.8726  0.9633 -1.4430
  103OSM   C13S10379   3.814   1.661   5.458  0.2698 -0.6220 -0.2612
  103OSM   H13S10380   3.912   1.608   5.453  1.5729  1.4511  1.3275
  103OSM   H13T10381   3.818   1.769   5.481  0.1255 -1.0633  2.1055
  103OSM   C14S10382   3.735   1.651   5.330  0.3503  0.7838 -0.0357
  103OSM   H14S10383   3.629   1.664   5.361  0.1232 -0.9592 -0.0188
  103OSM   H14T10384   3.730   1.548   5.290  1.1626  0.0326  1.6774
  103OSM   C15S10385   3.781   1.749   5.216 -0.3929 -0.0858 -0.4891
  103OSM   H15S10386   3.880   1.726   5.172 -0.0561  0.6530 -0.1249
  103OSM   H15T10387   3.784   1.856   5.244 -0.2027  0.1648 -1.4352
  103OSM   C16S10388   3.684   1.757   5.099  0.4863  0.4618 -0.3261
  103OSM   H16S10389   3.676   1.859   5.056  2.0974  1.0812  0.7508
  103OSM   H16T10390   3.583   1.730   5.137  0.6934  0.4301  0.2062
  103OSM   C17S10391   3.717   1.655   4.992 -0.4440 -0.1167 -0.2376
  103OSM   H17S10392   3.736   1.558   5.042  0.8925  0.9857  1.4914
  103OSM   H17T10393   3.809   1.669   4.932  1.2641  0.7074  2.3996
  103OSM   C18S10394   3.597   1.631   4.892  0.2254  0.3422 -0.3768
  103OSM   H18S10395   3.504   1.629   4.952  0.3270 -0.7194 -0.2443
  103OSM   H18T10396   3.616   1.534   4.843 -0.0418 -0.2015  0.5764
  103OSM   H18U10397   3.595   1.713   4.817  0.2294 -0.6790 -1.5191
  103OSM    C1F10398   4.119   1.632   6.578 -0.0878  0.9269  0.0376
  103OSM     OF10399   4.162   1.555   6.663 -0.0826  0.1458  0.6371
  103OSM    C2F10400   4.202   1.678   6.459  0.0555 -0.6111  0.1477
  103OSM    H2F10401   4.280   1.743   6.504  1.1107 -1.0349 -0.9967
  103OSM    H2G10402   4.151   1.747   6.388  0.3347  0.6260  1.0934
  103OSM    C3F10403   4.280   1.571   6.382 -0.4219  0.3721 -0.5007
  103OSM    H3F10404   4.349   1.524   6.455 -1.5289  0.5568  0.6970
  103OSM    H3G10405   4.356   1.622   6.319 -1.6933  0.6807 -1.8354
  103OSM    C4F10406   4.198   1.479   6.298 -0.4981  0.3239 -0.0042
  103OSM    H4F10407   4.138   1.421   6.371 -0.7375 -1.1297 -1.3215
  103OSM    H4G10408   4.252   1.395   6.250 -1.9125 -1.8429  1.9669
  103OSM    C5F10409   4.107   1.552   6.189  0.3957  0.0062 -0.3905
  103OSM    H5F10410   4.042   1.617   6.251  2.1473  0.9531  0.5189
  103OSM    H5G10411   4.033   1.477   6.152 -0.0153  0.2417 -0.0526
  103OSM    C6F10412   4.172   1.613   6.065 -0.0546 -0.2859  0.2298
  103OSM    H6F10413   4.252   1.680   6.104  2.7342 -1.8820 -2.3384
  103OSM    H6G10414   4.093   1.671   6.014  1.1379 -0.4456 -1.8939
  103OSM    C7F10415   4.238   1.521   5.964 -0.0764  0.3396 -0.9900
  103OSM    H7F10416   4.157   1.465   5.912 -0.1903 -0.1422 -0.3194
  103OSM    H7G10417   4.295   1.449   6.027 -2.7606 -0.2984  0.9048
  103OSM    C8F10418   4.319   1.606   5.866  0.0429  0.1862  0.0833
  103OSM    H8F10419   4.359   1.535   5.791 -1.0285  0.9511 -1.2507
  103OSM    H8G10420   4.403   1.655   5.920 -0.9876 -0.3285  2.3151
  103OSM    C9F10421   4.238   1.702   5.795  0.4380 -0.0582 -0.4038
  103OSM    H9F10422   4.234   1.803   5.838  1.5301 -0.0021 -0.4245
  103OSM   C10F10423   4.188   1.702   5.671 -0.2287  0.4767 -0.0777
  103OSM   H10F10424   4.139   1.794   5.635  0.4846  0.7128 -0.4720
  103OSM   C11F10425   4.203   1.584   5.576 -0.9266  0.2402  0.1854
  103OSM   H11F10426   4.101   1.545   5.556 -1.3418  2.0085 -1.4214
  103OSM   H11G10427   4.259   1.502   5.627  0.8605  2.0366  1.2857
  103OSM   C12F10428   4.275   1.614   5.442  0.3175  0.4733 -0.1401
  103OSM   H12F10429   4.278   1.509   5.406  0.6141  0.2081  0.6174
  103OSM   H12G10430   4.379   1.648   5.464 -0.4942  1.6036  2.3474
  103OSM   C13F10431   4.220   1.717   5.349 -0.4535  0.4832  0.0742
  103OSM   H13F10432   4.223   1.824   5.380 -0.5772  0.5110 -0.0092
  103OSM   H13G10433   4.109   1.705   5.343 -0.2890 -0.7519 -0.7049
  103OSM   C14F10434   4.278   1.716   5.201 -0.1210  0.5712 -0.5697
  103OSM   H14F10435   4.281   1.613   5.159  1.8773  0.3077  0.0767
  103OSM   H14G10436   4.387   1.738   5.205  0.4738 -1.9764 -0.9112
  103OSM   C15F10437   4.194   1.787   5.093 -0.6692  0.2941  0.0670
  103OSM   H15F10438   4.190   1.892   5.131  0.9829 -0.3671  2.3048
  103OSM   H15G10439   4.089   1.751   5.087 -0.5626 -0.0714  0.3739
  103OSM   C16F10440   4.266   1.793   4.956 -0.0082  0.3976  0.1014
  103OSM   H16F10441   4.277   1.688   4.922  2.8800  0.8843 -0.7904
  103OSM   H16G10442   4.373   1.821   4.969  0.2788 -0.3529 -0.5608
  103OSM   C17F10443   4.192   1.884   4.860  0.4026  0.3071 -0.1844
  103OSM   H17F10444   4.170   1.975   4.920  2.4557 -0.5021  1.9323
  103OSM   H17G10445   4.093   1.832   4.857  0.9171 -0.6847 -0.3440
  103OSM   C18F10446   4.249   1.917   4.724 -0.6443 -0.9109  0.0302
  103OSM   H18F10447   4.171   1.978   4.673  0.7396  0.1217 -0.9342
  103OSM   H18G10448   4.276   1.832   4.659 -1.0301 -1.4352  0.5459
  103OSM   H18H10449   4.340   1.981   4.728  0.2070 -2.0876 -0.1898
  104OSM      N10450   5.614   4.053   7.823  0.3031  0.5473 -0.2023
  104OSM    C1510451   5.689   3.923   7.835 -0.0208  0.7700  0.1479
  104OSM   H15A10452   5.664   3.883   7.932  0.1517 -2.3162 -0.9894
  104OSM   H15B10453   5.795   3.946   7.840  0.4046 -1.1298  0.9946
  104OSM   H15C10454   5.654   3.856   7.759 -0.5285  0.5659  0.5582
  104OSM    C1410455   5.466   4.026   7.818  0.1628  0.1754 -0.5599
  104OSM   H14A10456   5.410   4.097   7.876  0.3879 -1.8668  2.4062
  104OSM   H14B10457   5.439   3.937   7.873 -1.7438  1.0090 -0.0649
  104OSM   H14C10458   5.427   4.019   7.717  0.0792 -0.7247 -0.4780
  104OSM    C1310459   5.643   4.142   7.934 -0.1890 -0.4652  0.3901
  104OSM   H13A10460   5.599   4.100   8.023  3.7444 -0.1781  2.7009
  104OSM   H13B10461   5.606   4.243   7.929 -1.9728 -1.1495 -1.5517
  104OSM   H13C10462   5.748   4.149   7.957 -0.6160  1.9381  1.9911
  104OSM    C1210463   5.667   4.110   7.692  0.6315  0.5102 -0.2746
  104OSM   H12A10464   5.771   4.085   7.702  0.4193 -0.0039  0.8066
  104OSM   H12B10465   5.649   4.216   7.679  1.8341  1.1340  2.5291
  104OSM    C1110466   5.618   4.046   7.559 -0.9550 -0.2477  0.1475
  104OSM   H11A10467   5.628   3.935   7.561 -0.8219 -0.2516 -0.5908
  104OSM   H11B10468   5.694   4.069   7.482 -0.5272  1.1550  0.9485
  104OSM      P10469   5.443   4.227   7.470  0.3384 -0.0642 -0.0854
  104OSM    O1310470   5.312   4.263   7.528 -0.0199 -0.1129 -0.4295
  104OSM    O1410471   5.549   4.328   7.491 -0.1570 -0.2541 -0.0722
  104OSM    O1110472   5.431   4.200   7.321  0.0118  0.7237  0.4583
  104OSM    O1210473   5.483   4.092   7.541 -0.1122 -0.2490 -0.8857
  104OSM    C1S10474   5.513   4.114   7.246  0.0107 -0.5195 -0.3913
  104OSM    H1S10475   5.491   4.008   7.273 -0.8872 -0.4071 -0.6318
  104OSM    H1T10476   5.619   4.143   7.261 -0.6410  2.9210 -1.5406
  104OSM     NF10477   5.546   4.021   7.022 -0.5426 -0.1562 -0.2770
  104OSM    HNF10478   5.637   4.028   6.981 -1.0296  1.5413 -1.1818
  104OSM    C2S10479   5.499   4.140   7.093 -0.4540 -0.2882  0.1169
  104OSM    H2S10480   5.390   4.149   7.073 -0.4570  0.7776  0.5749
  104OSM    C3S10481   5.574   4.263   7.050 -0.1950  0.1731 -0.6141
  104OSM    H3S10482   5.680   4.238   7.070 -0.5160  1.2926  3.3999
  104OSM     O310483   5.548   4.384   7.127  0.1201 -0.7198 -0.3778
  104OSM    HO310484   5.484   4.366   7.195 -1.4596 -1.0002 -1.8692
  104OSM    C4S10485   5.561   4.288   6.900  0.8517  0.0641  0.5892
  104OSM    H4S10486   5.651   4.270   6.839  0.5801 -1.2734  0.5408
  104OSM    C5S10487   5.457   4.341   6.842  0.3930 -0.4559  0.4374
  104OSM    H5S10488   5.374   4.379   6.903  2.4507  2.3184  1.7235
  104OSM    C6S10489   5.452   4.375   6.702 -0.3199 -0.0687  0.9008
  104OSM    H6S10490   5.452   4.486   6.700 -1.7187 -0.0503  1.3466
  104OSM    H6T10491   5.354   4.355   6.654  0.8396 -0.5729 -1.3937
  104OSM    C7S10492   5.547   4.321   6.599  0.4748 -0.8249  0.3348
  104OSM    H7S10493   5.531   4.211   6.595 -0.3700 -0.6788 -1.3560
  104OSM    H7T10494   5.651   4.346   6.629  0.6995  0.4605 -1.3599
  104OSM    C8S10495   5.533   4.384   6.457 -0.0352 -0.3473  0.2186
  104OSM    H8S10496   5.558   4.492   6.454 -0.0771 -0.3308  0.4358
  104OSM    H8T10497   5.433   4.361   6.416  0.0991 -0.4929 -0.0278
  104OSM    C9S10498   5.630   4.317   6.352 -0.3015  0.6723 -0.6437
  104OSM    H9S10499   5.565   4.240   6.305 -0.3689 -1.2805  2.3796
  104OSM    H9T10500   5.715   4.260   6.396  0.0296  0.2561 -1.7821
  104OSM   C10S10501   5.683   4.422   6.251 -0.0417  0.7786  0.5234
  104OSM   H10S10502   5.749   4.500   6.295  1.0788  0.1703 -0.0650
  104OSM   H10T10503   5.589   4.474   6.222 -0.8619 -0.8358  0.1522
  104OSM   C11S10504   5.749   4.361   6.129  0.5874  0.1972  1.0186
  104OSM   H11S10505   5.691   4.273   6.096 -1.4513  1.6894  0.3719
  104OSM   H11T10506   5.850   4.330   6.163  0.3521 -0.3379  1.2208
  104OSM   C12S10507   5.759   4.456   6.001 -0.3976  0.0586 -0.3430
  104OSM   H12S10508   5.842   4.529   6.012 -2.3826  2.9639 -2.9986
  104OSM   H12T10509   5.677   4.531   5.997 -0.2546  0.1761 -1.4337
  104OSM   C13S10510   5.783   4.393   5.867 -0.0204  0.0363  0.2538
  104OSM   H13S10511   5.703   4.316   5.868 -0.0505  0.0436 -0.6810
  104OSM   H13T10512   5.887   4.353   5.869  0.2045  0.6390  1.5149
  104OSM   C14S10513   5.773   4.481   5.743  0.1174 -0.0177  0.0018
  104OSM   H14S10514   5.863   4.546   5.746  0.3307 -0.2372 -1.2102
  104OSM   H14T10515   5.681   4.544   5.740  1.2141  1.7172  1.0228
  104OSM   C15S10516   5.779   4.395   5.608 -0.1043 -0.1073 -0.5453
  104OSM   H15S10517   5.691   4.329   5.620 -0.4512  0.5860  1.0473
  104OSM   H15T10518   5.873   4.336   5.612 -0.9804 -1.4929  0.2514
  104OSM   C16S10519   5.769   4.479   5.484 -0.4347  0.0405 -0.3855
  104OSM   H16S10520   5.866   4.528   5.459 -0.0608  0.7674  2.2329
  104OSM   H16T10521   5.698   4.560   5.510 -0.0743  0.5438 -0.9271
  104OSM   C17S10522   5.729   4.402   5.358  0.7450  0.9251 -0.0150
  104OSM   H17S10523   5.633   4.351   5.382  0.6119  0.9486 -0.4860
  104OSM   H17T10524   5.800   4.317   5.346 -0.1322  0.4729 -2.4188
  104OSM   C18S10525   5.708   4.493   5.243 -0.3815  0.2136 -0.2111
  104OSM   H18S10526   5.621   4.558   5.265 -0.3291  0.6255 -1.1963
  104OSM   H18T10527   5.670   4.434   5.157  0.7895  0.1581 -0.7021
  104OSM   H18U10528   5.795   4.553   5.211 -0.8350  1.7564  1.2996
  104OSM    C1F10529   5.484   3.905   7.024 -0.4071  0.3091 -0.6959
  104OSM     OF10530   5.364   3.894   7.071 -0.2701  0.2371  0.4938
  104OSM    C2F10531   5.570   3.782   6.985 -0.2856  0.2478 -0.5122
  104OSM    H2F10532   5.510   3.689   6.982  2.6059 -2.0017  2.7418
  104OSM    H2G10533   5.632   3.784   7.077  2.0549 -0.6601 -1.9723
  104OSM    C3F10534   5.643   3.790   6.849 -0.0542 -0.6359 -0.0455
  104OSM    H3F10535   5.679   3.687   6.830  0.6429 -0.3269 -0.4289
  104OSM    H3G10536   5.733   3.855   6.845 -0.1915 -0.3412  1.2078
  104OSM    C4F10537   5.552   3.848   6.733  0.9770 -0.1478 -0.5076
  104OSM    H4F10538   5.538   3.957   6.745  0.4334 -0.3650  1.1269
  104OSM    H4G10539   5.455   3.794   6.738  0.3834  0.9146 -0.2773
  104OSM    C5F10540   5.624   3.828   6.601  1.1632  0.0218  0.2235
  104OSM    H5F10541   5.647   3.721   6.583 -0.1395 -0.2359  0.0026
  104OSM    H5G10542   5.729   3.864   6.609  2.2277 -2.3751 -1.7012
  104OSM    C6F10543   5.567   3.899   6.478 -0.3913 -0.1566  0.4789
  104OSM    H6F10544   5.554   4.005   6.511  2.1329 -0.4018  2.6339
  104OSM    H6G10545   5.471   3.851   6.450 -1.1803  2.3157 -1.4815
  104OSM    C7F10546   5.658   3.894   6.355 -0.2591  0.1538 -0.1954
  104OSM    H7F10547   5.728   3.808   6.366  1.0542  1.3018  0.9177
  104OSM    H7G10548   5.727   3.980   6.371 -0.8175  0.2243  2.3793
  104OSM    C8F10549   5.576   3.888   6.223 -0.2927 -0.1469 -0.7454
  104OSM    H8F10550   5.486   3.953   6.232  1.1562  2.0498 -1.3751
  104OSM    H8G10551   5.544   3.783   6.206  1.3107 -0.6839 -0.5743
  104OSM    C9F10552   5.660   3.940   6.112 -0.4186  0.2643  0.1851
  104OSM    H9F10553   5.766   3.951   6.139 -0.9637 -0.9108  3.1191
  104OSM   C10F10554   5.606   3.977   5.990 -0.6497  0.5413 -0.5609
  104OSM   H10F10555   5.670   4.010   5.907 -1.4601 -1.5631 -2.1367
  104OSM   C11F10556   5.472   3.945   5.933  0.5325  0.5021  0.1108
  104OSM   H11F10557   5.399   4.029   5.933  1.8082  1.6741 -1.5403
  104OSM   H11G10558   5.432   3.861   5.995 -0.2160  0.0928 -0.9045
  104OSM   C12F10559   5.474   3.877   5.793 -0.3710 -0.1558 -0.0929
  104OSM   H12F10560   5.366   3.867   5.769 -0.2552 -0.8190 -0.3584
  104OSM   H12G10561   5.524   3.779   5.778 -0.8817 -0.3384 -0.6410
  104OSM   C13F10562   5.532   3.973   5.686  0.0442 -0.0078  1.0747
  104OSM   H13F10563   5.639   3.989   5.712  0.3854  0.5509 -0.5577
  104OSM   H13G10564   5.481   4.071   5.675  3.2742  1.6422 -1.1385
  104OSM   C14F10565   5.534   3.901   5.541 -0.9513  0.0370  0.0386
  104OSM   H14F10566   5.426   3.880   5.521 -1.8932  2.5284  1.8866
  104OSM   H14G10567   5.593   3.807   5.546  4.0247  2.8674  0.4664
  104OSM   C15F10568   5.605   3.985   5.429  0.2306  0.0579  0.2343
  104OSM   H15F10569   5.689   4.028   5.489  0.9375  0.3375 -0.9206
  104OSM   H15G10570   5.538   4.059   5.381 -2.1958 -2.1371  0.0490
  104OSM   C16F10571   5.661   3.907   5.317 -1.0125  0.2567  0.8879
  104OSM   H16F10572   5.705   3.807   5.338 -1.7314  0.0122  1.2609
  104OSM   H16G10573   5.745   3.966   5.273  0.6689 -2.6063 -0.0123
  104OSM   C17F10574   5.556   3.888   5.207  0.2712  0.1516  0.0877
  104OSM   H17F10575   5.536   3.990   5.167 -2.1141  0.9905  3.0409
  104OSM   H17G10576   5.469   3.843   5.259  0.4902 -0.3732  0.0096
  104OSM   C18F10577   5.605   3.792   5.100 -0.4302 -0.1210  0.2369
  104OSM   H18F10578   5.694   3.833   5.048  0.1015 -1.9659 -0.3713
  104OSM   H18G10579   5.517   3.780   5.033  0.2021  0.3445 -0.6976
  104OSM   H18H10580   5.628   3.689   5.135  0.7317  0.5700  1.6233
  105OSM      N10581   6.661   4.430   7.640 -0.4816  0.5144 -0.1139
  105OSM    C1510582   6.515   4.431   7.666 -0.2860  0.9448  1.1232
  105OSM   H15A10583   6.473   4.515   7.613  0.1867 -0.5757 -1.8882
  105OSM   H15B10584   6.484   4.442   7.769  0.9471 -0.5899  1.7103
  105OSM   H15C10585   6.461   4.346   7.625  0.2818  1.6909 -1.3668
  105OSM    C1410586   6.724   4.532   7.732 -0.1630 -0.5835 -0.5046
  105OSM   H14A10587   6.688   4.634   7.725  2.4264  0.5693  1.1447
  105OSM   H14B10588   6.830   4.526   7.714  0.5078  0.4006  2.4334
  105OSM   H14C10589   6.725   4.505   7.837  3.8389  1.3669  0.1696
  105OSM    C1310590   6.719   4.297   7.664 -0.2957  0.4874  0.2964
  105OSM   H13A10591   6.676   4.229   7.592 -1.4099  0.2538  1.1607
  105OSM   H13B10592   6.690   4.277   7.766  2.1971  3.9318  1.9002
  105OSM   H13C10593   6.826   4.299   7.648  0.1573 -1.9267  2.5248
  105OSM    C1210594   6.692   4.466   7.502  0.3032  0.2933  0.3388
  105OSM   H12A10595   6.629   4.412   7.432  1.6182 -0.0098 -0.6604
  105OSM   H12B10596   6.795   4.437   7.485  0.0174 -1.2119  1.0172
  105OSM    C1110597   6.669   4.616   7.463 -0.3489  0.4507  0.6365
  105OSM   H11A10598   6.569   4.650   7.498 -0.9205 -1.1123  0.5975
  105OSM   H11B10599   6.669   4.621   7.352  0.0495 -1.5899  0.5060
  105OSM      P10600   6.754   4.858   7.509 -0.1720  0.1741 -0.6202
  105OSM    O1310601   6.615   4.882   7.476 -0.4103 -0.0412  0.0530
  105OSM    O1410602   6.796   4.907   7.643 -1.2138 -0.2967 -0.2609
  105OSM    O1110603   6.854   4.904   7.393 -0.2087  0.0465 -0.9224
  105OSM    O1210604   6.773   4.699   7.503  0.4470  0.2135  0.3791
  105OSM    C1S10605   6.867   4.824   7.273 -0.2496 -0.7743  0.0627
  105OSM    H1S10606   6.769   4.833   7.220  0.1269  1.0711 -0.3909
  105OSM    H1T10607   6.890   4.717   7.292  2.0577 -0.1177  1.3572
  105OSM     NF10608   6.972   4.804   7.050 -0.4483  0.0503  0.0679
  105OSM    HNF10609   7.041   4.732   7.048  0.3915  0.8004 -2.6881
  105OSM    C2S10610   6.978   4.878   7.181  0.3928  0.0382  0.0302
  105OSM    H2S10611   6.945   4.980   7.152 -2.9922 -0.9899 -0.2304
  105OSM    C3S10612   7.114   4.867   7.257  0.2868 -0.2407 -0.1929
  105OSM    H3S10613   7.129   4.760   7.281  0.7885  0.4037  2.7943
  105OSM     O310614   7.110   4.920   7.393 -0.2292  0.1388  0.1705
  105OSM    HO310615   7.018   4.935   7.411 -0.4449  0.2641 -0.9281
  105OSM    C4S10616   7.228   4.920   7.180 -0.7181 -0.3483 -0.3225
  105OSM    H4S10617   7.258   4.846   7.105  1.5931  0.0237  0.1531
  105OSM    C5S10618   7.291   5.040   7.195  0.6161  0.2125  0.1026
  105OSM    H5S10619   7.248   5.109   7.268 -4.8256 -2.4111 -0.1397
  105OSM    C6S10620   7.406   5.093   7.113 -0.7052 -0.1438 -0.3651
  105OSM    H6S10621   7.500   5.110   7.169 -0.7163  1.1904 -0.7163
  105OSM    H6T10622   7.379   5.193   7.073  0.6170  0.6751  0.7057
  105OSM    C7S10623   7.450   5.011   6.995 -1.2680 -0.5285  0.3680
  105OSM    H7S10624   7.368   4.980   6.927 -1.2179  1.3044 -0.5741
  105OSM    H7T10625   7.497   4.922   7.041 -0.6560 -0.3224  0.1495
  105OSM    C8S10626   7.556   5.084   6.913  0.9803  1.2438  0.2398
  105OSM    H8S10627   7.654   5.074   6.964  0.4961 -0.6552  0.8875
  105OSM    H8T10628   7.526   5.191   6.901  0.6963  1.0345 -1.1153
  105OSM    C9S10629   7.565   5.040   6.769 -0.3515  0.0431 -0.2066
  105OSM    H9S10630   7.551   4.930   6.777  1.7818 -0.4206 -1.7927
  105OSM    H9T10631   7.668   5.066   6.737 -0.4693  1.1192  0.2455
  105OSM   C10S10632   7.464   5.103   6.675 -0.8485  0.1347  0.0126
  105OSM   H10S10633   7.450   5.212   6.694 -0.2758  0.4966 -1.4335
  105OSM   H10T10634   7.366   5.059   6.701 -1.3686 -1.2308 -3.6701
  105OSM   C11S10635   7.491   5.090   6.526 -0.2148 -0.1396  0.1327
  105OSM   H11S10636   7.588   5.134   6.496 -0.3827 -0.3357 -0.7330
  105OSM   H11T10637   7.419   5.158   6.476  0.2018 -0.8527 -1.4976
  105OSM   C12S10638   7.490   4.948   6.470 -0.3584  0.6631 -0.4555
  105OSM   H12S10639   7.411   4.888   6.521  1.3835 -0.3177  1.2060
  105OSM   H12T10640   7.581   4.889   6.495 -0.9625 -2.4171 -4.4172
  105OSM   C13S10641   7.472   4.932   6.321  0.6779 -0.2912  0.3169
  105OSM   H13S10642   7.371   4.972   6.296  0.8067  0.2928  0.7109
  105OSM   H13T10643   7.468   4.824   6.295  0.8001 -0.2798  0.2518
  105OSM   C14S10644   7.578   4.978   6.224  0.7715  0.0908 -0.0621
  105OSM   H14S10645   7.675   4.934   6.252 -0.2032 -1.8545  0.4114
  105OSM   H14T10646   7.586   5.087   6.245 -2.5012 -0.0962  3.2776
  105OSM   C15S10647   7.534   4.963   6.080  0.0686 -0.3675  0.2522
  105OSM   H15S10648   7.432   5.006   6.080 -0.0669 -0.6862  0.7802
  105OSM   H15T10649   7.517   4.854   6.069  0.1821 -0.2943 -0.8162
  105OSM   C16S10650   7.626   5.027   5.983 -0.0215  0.4065 -0.4905
  105OSM   H16S10651   7.728   4.990   6.007 -0.8621 -1.7945  0.0241
  105OSM   H16T10652   7.627   5.138   5.984 -1.7619  0.4580 -1.0930
  105OSM   C17S10653   7.607   4.976   5.841  0.9415 -0.2133 -0.4368
  105OSM   H17S10654   7.597   4.866   5.848  0.0865 -0.1289 -0.1094
  105OSM   H17T10655   7.697   4.986   5.777  0.4769 -2.3551 -1.5190
  105OSM   C18S10656   7.485   5.027   5.766  0.2874  0.6935  0.1317
  105OSM   H18S10657   7.501   5.133   5.735 -1.1332  1.2213  1.1487
  105OSM   H18T10658   7.402   5.011   5.838  0.4994 -0.7793  0.0754
  105OSM   H18U10659   7.458   4.965   5.678 -1.6948 -0.1246  1.2647
  105OSM    C1F10660   6.885   4.816   6.947 -0.6849 -0.0861  0.7208
  105OSM     OF10661   6.773   4.858   6.964  0.1594  0.1935 -0.1270
  105OSM    C2F10662   6.936   4.759   6.823 -0.1865  0.2504 -0.3073
  105OSM    H2F10663   6.921   4.651   6.805  2.5556 -0.0493 -1.3296
  105OSM    H2G10664   7.046   4.759   6.807 -0.5605 -0.3727 -3.7058
  105OSM    C3F10665   6.877   4.837   6.696 -0.7416 -0.7920  0.1599
  105OSM    H3F10666   6.902   4.945   6.699  1.7427 -1.3387  0.9034
  105OSM    H3G10667   6.767   4.843   6.711 -0.3276  0.9670  3.3788
  105OSM    C4F10668   6.906   4.788   6.551  0.3428 -0.4433  0.0588
  105OSM    H4F10669   6.857   4.855   6.477  1.8099 -1.0796 -1.5376
  105OSM    H4G10670   6.883   4.680   6.538 -0.5697 -0.4378  1.3592
  105OSM    C5F10671   7.062   4.789   6.523  0.2350  0.4222  0.7125
  105OSM    H5F10672   7.118   4.738   6.605 -0.5062  0.4693  1.2577
  105OSM    H5G10673   7.088   4.897   6.524  0.4857  0.4464 -1.8148
  105OSM    C6F10674   7.105   4.734   6.384 -0.0092 -0.7276 -0.8996
  105OSM    H6F10675   7.082   4.626   6.373 -2.3971 -0.8022  2.9888
  105OSM    H6G10676   7.215   4.740   6.367  0.2481 -2.2838  0.0642
  105OSM    C7F10677   7.027   4.803   6.263 -0.5425  0.7938 -0.2995
  105OSM    H7F10678   7.056   4.908   6.243  0.3633  0.2821 -1.7962
  105OSM    H7G10679   6.918   4.792   6.283 -0.4844  0.9579  0.1218
  105OSM    C8F10680   7.047   4.726   6.130 -0.5052  0.2831 -0.2938
  105OSM    H8F10681   6.973   4.761   6.055  1.4818  1.9690 -1.5853
  105OSM    H8G10682   7.030   4.618   6.147 -2.5185  0.5817 -0.1463
  105OSM    C9F10683   7.188   4.742   6.084 -0.2453  0.3383  0.2188
  105OSM    H9F10684   7.260   4.681   6.140 -0.2882  1.3161  1.3716
  105OSM   C10F10685   7.226   4.800   5.973  0.5589  0.0494  0.4286
  105OSM   H10F10686   7.334   4.801   5.952  0.8852  0.4344  2.0323
  105OSM   C11F10687   7.136   4.858   5.861 -0.1162 -0.8059 -0.2649
  105OSM   H11F10688   7.205   4.941   5.834 -0.1749 -0.5665  0.3089
  105OSM   H11G10689   7.044   4.902   5.904  0.7215 -1.0702  1.9297
  105OSM   C12F10690   7.125   4.767   5.737  0.3470  0.0582 -0.1570
  105OSM   H12F10691   7.222   4.748   5.687  0.0388 -1.3664 -0.2538
  105OSM   H12G10692   7.067   4.819   5.658  2.0340  1.2618 -0.6629
  105OSM   C13F10693   7.059   4.627   5.754 -0.2238 -0.5964  0.1609
  105OSM   H13F10694   7.107   4.590   5.847 -1.6845  1.9335  2.0682
  105OSM   H13G10695   7.091   4.563   5.669  1.5668  0.2322  0.1502
  105OSM   C14F10696   6.910   4.628   5.776  0.3574  1.0218  0.2065
  105OSM   H14F10697   6.884   4.681   5.870  0.4704  1.8857 -0.2436
  105OSM   H14G10698   6.864   4.530   5.804  0.7124  1.0398  0.8821
  105OSM   C15F10699   6.823   4.681   5.657  0.2748  0.6255  0.2254
  105OSM   H15F10700   6.842   4.790   5.663  0.9769  0.5355 -0.1451
  105OSM   H15G10701   6.716   4.662   5.676 -0.1672  0.6832 -1.8961
  105OSM   C16F10702   6.860   4.624   5.526 -0.3103 -0.0166 -0.4378
  105OSM   H16F10703   6.826   4.519   5.528 -0.3982 -0.0001  2.3743
  105OSM   H16G10704   6.968   4.621   5.498 -0.4098 -1.3150 -0.7269
  105OSM   C17F10705   6.788   4.695   5.413 -0.7788  0.0573 -0.3316
  105OSM   H17F10706   6.679   4.700   5.433 -0.1221  2.8602  3.6381
  105OSM   H17G10707   6.811   4.631   5.325 -0.2241 -2.9920  1.8789
  105OSM   C18F10708   6.830   4.841   5.370 -0.5649  0.0691 -1.3580
  105OSM   H18F10709   6.932   4.841   5.326 -0.2735  0.6425 -0.7017
  105OSM   H18G10710   6.815   4.910   5.455 -2.6285 -0.7019 -1.0258
  105OSM   H18H10711   6.771   4.877   5.284  1.9946  0.1124 -3.2076
  106OSM      N10712   5.735   6.525   7.025  0.2000  1.0339  0.2103
  106OSM    C1510713   5.786   6.593   7.148 -0.7031  0.7921 -0.0864
  106OSM   H15A10714   5.813   6.518   7.221 -0.0930 -1.8602 -2.8299
  106OSM   H15B10715   5.730   6.674   7.192  2.8430  1.1863  4.3262
  106OSM   H15C10716   5.876   6.644   7.119 -0.9068  0.8480 -0.6383
  106OSM    C1410717   5.611   6.452   7.048  0.3272 -0.1651 -0.1921
  106OSM   H14A10718   5.630   6.370   7.116 -0.4955  0.5134  0.9044
  106OSM   H14B10719   5.573   6.416   6.954  2.4530  0.4859 -1.3503
  106OSM   H14C10720   5.536   6.515   7.094 -0.2063 -0.1495 -1.0640
  106OSM    C1310721   5.701   6.640   6.938 -0.7077  0.4915 -0.0175
  106OSM   H13A10722   5.792   6.698   6.926 -0.0082 -0.7975 -1.1902
  106OSM   H13B10723   5.618   6.702   6.969 -2.0742 -0.3652 -1.7883
  106OSM   H13C10724   5.670   6.606   6.841 -1.3286 -0.1652  0.3970
  106OSM    C1210725   5.841   6.427   6.964 -0.0340 -0.5616  0.2715
  106OSM   H12A10726   5.941   6.470   6.959 -0.2085 -0.2801 -1.6678
  106OSM   H12B10727   5.809   6.394   6.867  0.9193  0.0722 -0.2805
  106OSM    C1110728   5.862   6.287   7.027  0.2930 -0.3366  0.4023
  106OSM   H11A10729   5.919   6.206   6.975  0.4343  0.4937 -0.7848
  106OSM   H11B10730   5.761   6.241   7.039 -0.6522  1.5159 -0.0425
  106OSM      P10731   6.048   6.358   7.197  0.5316  0.0794 -0.5836
  106OSM    O1310732   6.032   6.455   7.313 -0.1192 -0.0709  0.2912
  106OSM    O1410733   6.118   6.236   7.232  0.5791  0.4155 -0.0228
  106OSM    O1110734   6.104   6.435   7.077 -0.1845 -0.0468 -0.4250
  106OSM    O1210735   5.899   6.311   7.160 -0.2207  0.1893 -0.1250
  106OSM    C1S10736   6.191   6.361   6.990  0.3924 -0.4495 -0.2469
  106OSM    H1S10737   6.173   6.252   6.974  0.5432 -0.1921 -2.5899
  106OSM    H1T10738   6.293   6.355   7.034 -0.1935 -3.5819  0.9987
  106OSM     NF10739   6.306   6.346   6.764  0.0671 -0.1188 -0.4921
  106OSM    HNF10740   6.402   6.370   6.753  0.3063 -1.4569 -1.7098
  106OSM    C2S10741   6.216   6.423   6.849  0.1614 -0.1222 -0.4373
  106OSM    H2S10742   6.118   6.433   6.798 -0.7812  2.5929  1.6622
  106OSM    C3S10743   6.266   6.576   6.863  0.4993 -0.9820  0.2027
  106OSM    H3S10744   6.362   6.584   6.919  1.8421 -0.5733 -2.0182
  106OSM     O310745   6.184   6.656   6.944  0.1378  0.2394 -0.4563
  106OSM    HO310746   6.163   6.598   7.018  1.2612 -1.8271 -1.6639
  106OSM    C4S10747   6.276   6.635   6.724  0.6172  0.6287  0.6031
  106OSM    H4S10748   6.185   6.682   6.684  2.9631  2.3131 -3.3304
  106OSM    C5S10749   6.394   6.633   6.655 -0.3841  0.0653 -0.4621
  106OSM    H5S10750   6.489   6.615   6.709  0.6900 -0.0682 -2.3136
  106OSM    C6S10751   6.410   6.694   6.514  0.6565 -0.5385  0.5781
  106OSM    H6S10752   6.508   6.746   6.504  0.1165  0.3549 -0.3378
  106OSM    H6T10753   6.330   6.770   6.498  2.0125  0.7641 -0.3425
  106OSM    C7S10754   6.399   6.584   6.406 -0.5309 -0.2214  0.4679
  106OSM    H7S10755   6.311   6.517   6.402  0.2806 -1.2968 -2.7818
  106OSM    H7T10756   6.484   6.517   6.427  1.8741  2.1144 -1.1415
  106OSM    C8S10757   6.439   6.643   6.273  0.0575 -0.0114 -0.1617
  106OSM    H8S10758   6.542   6.683   6.264  0.2929 -0.5878 -0.0704
  106OSM    H8T10759   6.372   6.726   6.243  0.1423  0.6723  1.4549
  106OSM    C9S10760   6.440   6.537   6.156  0.5208  0.0512  0.4530
  106OSM    H9S10761   6.352   6.471   6.172  1.7575 -1.8045 -0.0694
  106OSM    H9T10762   6.523   6.470   6.187 -1.1557 -3.0234 -1.1975
  106OSM   C10S10763   6.469   6.594   6.018 -0.1211  0.0594 -0.5611
  106OSM   H10S10764   6.566   6.649   6.008  0.8442 -1.3467  0.6910
  106OSM   H10T10765   6.384   6.655   5.979  0.1958  1.3842  0.7148
  106OSM   C11S10766   6.479   6.472   5.916  0.4166 -0.2224  0.2996
  106OSM   H11S10767   6.397   6.402   5.943  0.5903 -0.3326  0.5457
  106OSM   H11T10768   6.571   6.416   5.946  0.4775 -0.6513 -0.6565
  106OSM   C12S10769   6.472   6.513   5.770 -0.2842 -0.4469  0.0451
  106OSM   H12S10770   6.376   6.557   5.736 -0.4917 -1.2494 -0.4424
  106OSM   H12T10771   6.483   6.419   5.712 -2.8359 -1.4148  0.9814
  106OSM   C13S10772   6.586   6.614   5.742  0.8529  0.1625  0.7741
  106OSM   H13S10773   6.682   6.564   5.768  1.6618  1.6775  0.7919
  106OSM   H13T10774   6.583   6.711   5.796 -1.4433 -0.7830  2.5073
  106OSM   C14S10775   6.594   6.644   5.588 -0.2909 -0.7108  0.3705
  106OSM   H14S10776   6.610   6.557   5.521  1.5918  0.5679 -0.9625
  106OSM   H14T10777   6.684   6.708   5.577 -1.7520  1.6590  1.3802
  106OSM   C15S10778   6.470   6.731   5.544  0.0961  0.0386  0.1761
  106OSM   H15S10779   6.427   6.796   5.623  1.5766  1.2516  0.0364
  106OSM   H15T10780   6.391   6.657   5.517 -0.1374 -0.3885  1.9160
  106OSM   C16S10781   6.493   6.825   5.428 -0.8851 -0.3644 -0.6704
  106OSM   H16S10782   6.580   6.890   5.449 -1.4659  0.1489  0.2208
  106OSM   H16T10783   6.402   6.885   5.408 -0.7534 -0.1508 -0.6320
  106OSM   C17S10784   6.527   6.756   5.301  0.0339 -0.2769  0.1372
  106OSM   H17S10785   6.454   6.673   5.294 -0.0128 -0.1714 -0.7707
  106OSM   H17T10786   6.629   6.713   5.314  1.1939  1.8266 -1.2737
  106OSM   C18S10787   6.509   6.854   5.180 -0.1300  0.9881 -0.3918
  106OSM   H18S10788   6.563   6.947   5.204 -0.0777  0.1855  3.0696
  106OSM   H18T10789   6.401   6.878   5.168 -0.2558  1.2686  1.1420
  106OSM   H18U10790   6.561   6.811   5.091  2.6857  0.6886  1.3035
  106OSM    C1F10791   6.279   6.218   6.723  0.1647  0.1291  0.6127
  106OSM     OF10792   6.163   6.172   6.711  0.2442 -0.5928  0.6655
  106OSM    C2F10793   6.400   6.131   6.686  0.4213  0.4212 -0.3915
  106OSM    H2F10794   6.393   6.037   6.745  1.2716  0.3862 -0.3312
  106OSM    H2G10795   6.491   6.189   6.714  0.4654  0.0854  0.1842
  106OSM    C3F10796   6.395   6.108   6.539 -0.3636  0.0233 -0.0830
  106OSM    H3F10797   6.419   6.207   6.495 -0.6711  0.5664  0.9385
  106OSM    H3G10798   6.295   6.080   6.500 -0.2212  1.6629 -1.7336
  106OSM    C4F10799   6.480   5.995   6.495 -0.2653  0.2427  0.0951
  106OSM    H4F10800   6.430   5.896   6.497 -0.9368  0.5374 -1.2496
  106OSM    H4G10801   6.565   5.977   6.565  0.1238  0.6742 -0.2566
  106OSM    C5F10802   6.554   6.021   6.367  0.3794 -0.0032  0.1352
  106OSM    H5F10803   6.620   5.936   6.340 -0.2411 -1.4387  2.8403
  106OSM    H5G10804   6.615   6.114   6.379 -2.0502  1.6236  0.5755
  106OSM    C6F10805   6.450   6.042   6.250  0.2679  0.0543 -0.2865
  106OSM    H6F10806   6.390   6.129   6.282  0.6059 -0.2347  1.1784
  106OSM    H6G10807   6.378   5.957   6.253  1.5287 -1.1145 -1.1791
  106OSM    C7F10808   6.500   6.092   6.113 -0.5981  0.5320  0.3196
  106OSM    H7F10809   6.577   6.025   6.070 -1.2079  0.0243 -0.0048
  106OSM    H7G10810   6.573   6.174   6.128  0.0369 -0.3918  2.7003
  106OSM    C8F10811   6.390   6.127   6.007  0.0079 -0.3281 -0.6626
  106OSM    H8F10812   6.437   6.162   5.912 -0.4420  3.8541  0.4759
  106OSM    H8G10813   6.336   6.219   6.038 -0.5881 -0.7697 -0.3751
  106OSM    C9F10814   6.288   6.012   5.983  0.1540 -0.4779 -0.1684
  106OSM    H9F10815   6.207   5.998   6.055  0.3065  0.4562  0.2087
  106OSM   C10F10816   6.303   5.925   5.877 -0.3351 -0.0050  0.3557
  106OSM   H10F10817   6.224   5.848   5.867  1.0036 -1.4868  0.8375
  106OSM   C11F10818   6.405   5.903   5.767  0.4309  0.1325 -0.0722
  106OSM   H11F10819   6.459   5.806   5.771 -0.0186 -0.0898  0.6717
  106OSM   H11G10820   6.479   5.986   5.759 -1.0631  1.3286 -3.1666
  106OSM   C12F10821   6.336   5.900   5.631 -0.6501 -0.1342  0.1286
  106OSM   H12F10822   6.263   5.981   5.613  0.2891  0.7165  0.0692
  106OSM   H12G10823   6.287   5.800   5.626 -0.1493 -0.4254  0.9286
  106OSM   C13F10824   6.446   5.909   5.521 -1.6583 -0.4312 -0.0330
  106OSM   H13F10825   6.520   5.827   5.508 -1.9116 -0.6175 -0.3126
  106OSM   H13G10826   6.498   6.005   5.538 -2.1027 -0.3557  0.9834
  106OSM   C14F10827   6.376   5.909   5.385  1.2003 -0.2961 -0.1534
  106OSM   H14F10828   6.320   6.005   5.387 -0.8106 -1.4245  0.5697
  106OSM   H14G10829   6.305   5.824   5.386  0.3832  0.3616  1.1964
  106OSM   C15F10830   6.466   5.902   5.264 -0.1196 -0.2511 -0.5866
  106OSM   H15F10831   6.516   5.804   5.253  0.9183 -0.0261  1.6250
  106OSM   H15G10832   6.562   5.953   5.286  1.0030 -2.3760 -0.3400
  106OSM   C16F10833   6.415   5.955   5.131  0.3598 -0.6187  0.3696
  106OSM   H16F10834   6.504   5.959   5.063  0.8549 -0.8013  0.9961
  106OSM   H16G10835   6.379   6.058   5.152  1.0943 -0.5424  1.3013
  106OSM   C17F10836   6.298   5.889   5.055  0.6662  0.4897 -0.9553
  106OSM   H17F10837   6.315   5.779   5.053  0.4403  0.4193  0.3356
  106OSM   H17G10838   6.284   5.915   4.948  2.3522 -2.6933 -2.0857
  106OSM   C18F10839   6.163   5.920   5.131 -0.4712  0.6093 -0.3676
  106OSM   H18F10840   6.079   5.875   5.075 -0.2460  0.7323 -0.8043
  106OSM   H18G10841   6.141   6.027   5.151 -0.1841  0.4607  0.8406
  106OSM   H18H10842   6.178   5.867   5.228 -0.2180 -0.9129 -1.2219
  107OSM      N10843   6.332   6.265   7.584  0.0012 -0.6811 -0.1211
  107OSM    C1510844   6.440   6.334   7.659 -0.3080 -0.3240 -0.2212
  107OSM   H15A10845   6.525   6.270   7.681  0.2241  0.5620  0.3923
  107OSM   H15B10846   6.409   6.380   7.752  0.3865  0.2535 -0.2666
  107OSM   H15C10847   6.484   6.416   7.605  1.0002 -1.4280 -0.9013
  107OSM    C1410848   6.309   6.128   7.645  0.9469 -0.5792 -0.5139
  107OSM   H14A10849   6.243   6.063   7.589  1.9230 -1.2569 -0.8925
  107OSM   H14B10850   6.258   6.140   7.739 -1.5505  1.0012 -1.9495
  107OSM   H14C10851   6.400   6.071   7.657  0.9366 -1.0029 -2.1482
  107OSM    C1310852   6.205   6.352   7.573  0.1957  0.8624  0.0614
  107OSM   H13A10853   6.123   6.313   7.514 -1.2706  2.5285  0.9053
  107OSM   H13B10854   6.235   6.448   7.533 -2.6608  1.9513  0.3027
  107OSM   H13C10855   6.155   6.372   7.666 -1.4878 -2.1873 -0.0828
  107OSM    C1210856   6.385   6.258   7.442 -0.3792 -0.0017  0.2955
  107OSM   H12A10857   6.293   6.257   7.384  0.9080  1.6168 -1.9329
  107OSM   H12B10858   6.433   6.165   7.419 -0.5501  0.3815 -1.7629
  107OSM    C1110859   6.459   6.374   7.370  0.0975 -0.4657  0.6864
  107OSM   H11A10860   6.441   6.359   7.261  0.5732  3.0048  0.0091
  107OSM   H11B10861   6.569   6.362   7.384  1.2796  1.4600 -4.5048
  107OSM      P10862   6.494   6.626   7.353  0.0112  0.1418  0.2891
  107OSM    O1310863   6.419   6.745   7.404  0.4610  0.3653 -0.1879
  107OSM    O1410864   6.629   6.613   7.406 -0.0675  0.0007 -0.2071
  107OSM    O1110865   6.492   6.618   7.193 -0.0397  0.1913  0.2722
  107OSM    O1210866   6.409   6.501   7.395 -0.3416  0.1849 -0.1756
  107OSM    C1S10867   6.575   6.532   7.115  0.3926  0.2708  0.2861
  107OSM    H1S10868   6.517   6.451   7.067  1.6455 -0.7892  0.5008
  107OSM    H1T10869   6.648   6.494   7.190  2.5965  0.0407 -1.8342
  107OSM     NF10870   6.740   6.513   6.942 -0.1943 -0.7275 -0.7524
  107OSM    HNF10871   6.823   6.506   6.997 -0.1810 -0.5675 -0.7518
  107OSM    C2S10872   6.643   6.605   7.002 -0.0304 -0.7175 -0.2239
  107OSM    H2S10873   6.572   6.639   6.924  0.3697 -0.8223 -0.6385
  107OSM    C3S10874   6.714   6.740   7.053  0.6429 -0.0660  0.1221
  107OSM    H3S10875   6.787   6.699   7.126  2.8667  0.3146 -1.7733
  107OSM     O310876   6.630   6.835   7.122 -0.3141 -0.0076  0.0156
  107OSM    HO310877   6.556   6.787   7.160 -1.1022  0.8756 -0.3624
  107OSM    C4S10878   6.786   6.808   6.930  0.8141 -0.6618  0.3477
  107OSM    H4S10879   6.862   6.740   6.889  2.8154  0.8498  1.3913
  107OSM    C5S10880   6.766   6.937   6.882 -0.0096  0.5719 -0.2021
  107OSM    H5S10881   6.701   7.009   6.934 -0.9807 -0.3841 -0.0592
  107OSM    C6S10882   6.839   6.977   6.760  0.2926 -0.7664  0.0804
  107OSM    H6S10883   6.936   7.027   6.780 -0.2679  0.7802 -0.9526
  107OSM    H6T10884   6.781   7.057   6.710 -0.5954 -0.9950  0.7180
  107OSM    C7S10885   6.865   6.870   6.649  0.2942  0.3862  0.6650
  107OSM    H7S10886   6.769   6.814   6.638  0.6979 -0.2490  0.3411
  107OSM    H7T10887   6.940   6.794   6.681 -0.6821 -0.3099  1.3933
  107OSM    C8S10888   6.912   6.931   6.513 -0.2707 -0.1260  0.6575
  107OSM    H8S10889   7.012   6.976   6.529 -0.2497 -0.1925  0.7169
  107OSM    H8T10890   6.856   7.024   6.490 -0.1057 -0.5894 -1.8677
  107OSM    C9S10891   6.909   6.842   6.395 -0.3251  0.3913  0.4971
  107OSM    H9S10892   6.828   6.767   6.409 -0.9436  0.6656 -1.3373
  107OSM    H9T10893   7.013   6.807   6.384 -0.4073  0.2765  0.0467
  107OSM   C10S10894   6.880   6.909   6.256 -0.6157  0.0798  0.6153
  107OSM   H10S10895   6.962   6.984   6.247 -0.4880  0.0060  1.1483
  107OSM   H10T10896   6.787   6.970   6.257 -0.2165  0.7065  1.7966
  107OSM   C11S10897   6.872   6.811   6.141  0.1424  0.5417  0.8050
  107OSM   H11S10898   6.792   6.737   6.162  1.9490 -1.6129  0.4097
  107OSM   H11T10899   6.967   6.753   6.140 -1.3173 -1.9806  0.3315
  107OSM   C12S10900   6.866   6.876   5.997 -0.0417  0.3002  0.2364
  107OSM   H12S10901   6.933   6.964   6.002 -0.0221  0.2514  1.0249
  107OSM   H12T10902   6.774   6.934   5.976  1.5131  2.3832 -1.2108
  107OSM   C13S10903   6.875   6.794   5.877 -0.0397  0.1262 -0.3028
  107OSM   H13S10904   6.823   6.854   5.799 -2.4348 -0.3211  0.8412
  107OSM   H13T10905   6.817   6.700   5.890 -2.0603  1.2400 -0.8480
  107OSM   C14S10906   7.013   6.750   5.837 -1.1750 -0.1668 -0.7968
  107OSM   H14S10907   7.049   6.680   5.915 -1.6429  0.3990 -0.0640
  107OSM   H14T10908   7.090   6.830   5.839  0.4390 -1.6529 -0.7759
  107OSM   C15S10909   7.037   6.695   5.692 -0.1567 -0.0595  0.4729
  107OSM   H15S10910   6.947   6.639   5.657 -0.7883 -1.2911  3.6994
  107OSM   H15T10911   7.118   6.620   5.693 -0.6524 -0.6694 -1.2890
  107OSM   C16S10912   7.064   6.798   5.574 -0.4895 -0.2124 -0.0530
  107OSM   H16S10913   7.145   6.869   5.604 -1.2892  1.2988 -1.3109
  107OSM   H16T10914   6.973   6.859   5.558 -1.8866 -1.7382  1.7107
  107OSM   C17S10915   7.098   6.728   5.433  0.1558 -0.5325 -0.4663
  107OSM   H17S10916   7.174   6.648   5.446  0.9876 -0.0574 -2.0675
  107OSM   H17T10917   7.135   6.808   5.365 -0.7220  1.0773  0.8817
  107OSM   C18S10918   6.982   6.665   5.363 -0.2912  0.2691  0.4128
  107OSM   H18S10919   6.890   6.727   5.372 -0.8529 -0.3584 -0.8009
  107OSM   H18T10920   6.963   6.570   5.418  0.9161  0.5708  1.3936
  107OSM   H18U10921   7.008   6.642   5.257 -2.4916 -0.0791 -0.1063
  107OSM    C1F10922   6.694   6.414   6.861  0.5797 -0.0784 -1.0499
  107OSM     OF10923   6.592   6.429   6.797  0.1435  0.0834 -0.1397
  107OSM    C2F10924   6.776   6.289   6.846  0.4156 -0.7315 -0.6464
  107OSM    H2F10925   6.715   6.211   6.897 -0.2845 -0.4248 -0.9988
  107OSM    H2G10926   6.874   6.294   6.898  0.4488  1.8763 -0.8108
  107OSM    C3F10927   6.808   6.258   6.705 -0.8724 -0.2402  0.4141
  107OSM    H3F10928   6.711   6.252   6.650 -1.8663 -0.2421  2.0895
  107OSM    H3G10929   6.860   6.160   6.709  1.6140  0.9565 -0.7365
  107OSM    C4F10930   6.908   6.360   6.639 -0.9930  0.1199  0.1134
  107OSM    H4F10931   7.002   6.360   6.698 -2.1162  2.8736  2.1268
  107OSM    H4G10932   6.875   6.466   6.641  1.1907  0.8195  2.6874
  107OSM    C5F10933   6.938   6.323   6.487 -0.2227  0.8097 -0.1968
  107OSM    H5F10934   6.934   6.212   6.484 -0.2412  0.6729  2.3490
  107OSM    H5G10935   7.044   6.354   6.472  0.0128  0.4754  0.6662
  107OSM    C6F10936   6.846   6.395   6.389 -0.5518 -0.1283 -0.0292
  107OSM    H6F10937   6.849   6.505   6.405 -0.2324 -0.1565  0.1182
  107OSM    H6G10938   6.749   6.344   6.411 -0.3163 -1.3215 -1.6021
  107OSM    C7F10939   6.889   6.374   6.246 -0.3648 -0.3284  0.1792
  107OSM    H7F10940   6.909   6.268   6.221  2.5237  0.5436 -1.7113
  107OSM    H7G10941   6.990   6.421   6.243  0.8332 -2.5560  2.5026
  107OSM    C8F10942   6.791   6.431   6.143 -0.4948  0.4193 -0.4537
  107OSM    H8F10943   6.740   6.519   6.188 -0.7524  0.3474 -0.6069
  107OSM    H8G10944   6.711   6.355   6.130  0.2860 -0.7559  1.2360
  107OSM    C9F10945   6.866   6.481   6.026 -0.1964 -0.0818  0.3334
  107OSM    H9F10946   6.915   6.580   6.036 -3.1325  1.2937  2.9483
  107OSM   C10F10947   6.877   6.420   5.907 -0.0681  0.4083 -0.2307
  107OSM   H10F10948   6.941   6.468   5.831  1.3171 -2.4256 -0.9990
  107OSM   C11F10949   6.831   6.284   5.860  0.2227  0.4337  0.8971
  107OSM   H11F10950   6.728   6.294   5.820  0.0097 -1.2447  0.9398
  107OSM   H11G10951   6.830   6.220   5.951  2.9322 -2.9417 -1.2026
  107OSM   C12F10952   6.926   6.223   5.752 -0.3282 -0.0127  0.9032
  107OSM   H12F10953   6.912   6.113   5.751 -0.9105  0.0345 -1.4911
  107OSM   H12G10954   7.034   6.237   5.775 -0.2648 -1.4787  1.6407
  107OSM   C13F10955   6.897   6.268   5.603  0.3544 -0.1401  0.4836
  107OSM   H13F10956   6.973   6.226   5.534  0.0401  0.7365 -0.4064
  107OSM   H13G10957   6.916   6.377   5.598 -0.7059  0.0472  0.2565
  107OSM   C14F10958   6.758   6.245   5.550  0.0213  0.8726  0.5177
  107OSM   H14F10959   6.693   6.335   5.561 -1.0927  0.0450  0.9580
  107OSM   H14G10960   6.703   6.162   5.601  1.1185 -0.7136 -0.8004
  107OSM   C15F10961   6.750   6.201   5.402  0.1157 -0.6447  0.3781
  107OSM   H15F10962   6.643   6.187   5.374 -0.0151  1.4721 -0.3110
  107OSM   H15G10963   6.817   6.117   5.373  0.2877  0.0326 -1.2900
  107OSM   C16F10964   6.804   6.320   5.317 -0.3408 -0.2225  0.5162
  107OSM   H16F10965   6.915   6.320   5.322 -0.3522 -0.4572  0.7908
  107OSM   H16G10966   6.784   6.410   5.380  0.7799 -0.8966  1.8866
  107OSM   C17F10967   6.743   6.339   5.179 -0.2110  0.6254  0.3363
  107OSM   H17F10968   6.632   6.342   5.174 -0.1831  1.5604 -0.0139
  107OSM   H17G10969   6.782   6.261   5.110  0.3878  2.8404 -1.9980
  107OSM   C18F10970   6.790   6.471   5.109  0.1209  0.5543 -0.4823
  107OSM   H18F10971   6.771   6.460   5.000 -0.7070  1.0266 -0.3958
  107OSM   H18G10972   6.900   6.482   5.109  0.4244 -1.9194 -0.8576
  107OSM   H18H10973   6.738   6.547   5.171  0.5992 -0.3421  1.0536
  108OSM      N10974   2.741   4.081   7.326  0.4944 -0.3305 -0.0838
  108OSM    C1510975   2.667   4.199   7.381  0.7058  0.3082  0.2796
  108OSM   H15A10976   2.571   4.210   7.333  0.7442 -0.3497  0.0371
  108OSM   H15B10977   2.729   4.283   7.355  1.3650 -0.9670 -2.6580
  108OSM   H15C10978   2.644   4.204   7.487 -1.6215 -0.3589 -0.1276
  108OSM    C1410979   2.658   3.958   7.363  0.7806 -0.4787  0.0096
  108OSM   H14A10980   2.708   3.868   7.332 -2.3624 -1.9216 -1.2810
  108OSM   H14B10981   2.564   3.958   7.310 -0.1871 -0.5678  1.6494
  108OSM   H14C10982   2.631   3.947   7.468 -0.2467 -2.5402 -0.4257
  108OSM    C1310983   2.761   4.084   7.175  0.5525 -0.1602  0.8561
  108OSM   H13A10984   2.676   4.066   7.112  0.7862 -0.0540  0.5073
  108OSM   H13B10985   2.828   4.003   7.150 -1.9419 -2.1186  0.0978
  108OSM   H13C10986   2.804   4.175   7.136  0.8669 -1.6120 -2.4825
  108OSM    C1210987   2.879   4.083   7.391 -0.0639 -0.2885 -0.5322
  108OSM   H12A10988   2.936   3.994   7.370 -0.4406 -0.5545 -0.4503
  108OSM   H12B10989   2.870   4.089   7.499  2.5144 -4.0657  0.0623
  108OSM    C1110990   2.971   4.209   7.352 -0.1426 -0.0111  0.1633
  108OSM   H11A10991   2.967   4.216   7.242  0.8552  1.7043  0.1955
  108OSM   H11B10992   3.075   4.191   7.386 -0.3673 -0.5470  0.5885
  108OSM      P10993   2.989   4.456   7.428 -0.1914 -0.0507  0.2234
  108OSM    O1310994   2.916   4.539   7.527 -0.2713  0.3374 -0.5249
  108OSM    O1410995   3.128   4.416   7.463 -0.2846 -0.1549  0.2545
  108OSM    O1110996   2.989   4.540   7.292 -0.6445  0.2093 -0.8075
  108OSM    O1210997   2.902   4.328   7.397 -0.5808 -0.3407 -0.0456
  108OSM    C1S10998   3.032   4.481   7.164 -0.5220  0.2220 -0.8519
  108OSM    H1S10999   3.081   4.383   7.180 -0.0834  0.2920 -1.7306
  108OSM    H1T11000   3.101   4.549   7.110  1.3841 -0.9535 -0.0003
  108OSM     NF11001   2.955   4.424   6.938  0.0373  0.1552  0.7053
  108OSM    HNF11002   2.961   4.494   6.866 -1.3922 -1.3130 -0.9165
  108OSM    C2S11003   2.908   4.466   7.069 -0.2632 -0.2510 -0.0940
  108OSM    H2S11004   2.839   4.386   7.104  1.6179 -0.9208  2.3860
  108OSM    C3S11005   2.837   4.603   7.071  0.5771 -0.0814 -0.0041
  108OSM    H3S11006   2.912   4.680   7.100  1.3054 -1.0720  0.7846
  108OSM     O311007   2.745   4.608   7.182 -0.2079  0.4520  0.5863
  108OSM    HO311008   2.790   4.563   7.254 -0.5179  0.2316  0.6442
  108OSM    C4S11009   2.765   4.650   6.942 -0.5016  0.0035 -0.1134
  108OSM    H4S11010   2.842   4.669   6.866  0.6226 -0.4026  0.8890
  108OSM    C5S11011   2.635   4.667   6.915  0.4796 -0.3843 -0.4725
  108OSM    H5S11012   2.566   4.634   6.994  1.1719  0.8940  0.6962
  108OSM    C6S11013   2.572   4.721   6.783 -0.6276  0.8907  0.4924
  108OSM    H6S11014   2.526   4.640   6.722  3.0500  1.0197 -2.8246
  108OSM    H6T11015   2.654   4.766   6.724  0.2262  1.0467  1.7590
  108OSM    C7S11016   2.480   4.847   6.784 -0.3736 -0.3933 -0.5912
  108OSM    H7S11017   2.515   4.916   6.864 -0.2035  0.6194 -1.5209
  108OSM    H7T11018   2.380   4.815   6.823 -0.3152  0.1185 -0.0119
  108OSM    C8S11019   2.463   4.924   6.655  0.2335  1.0665  0.3290
  108OSM    H8S11020   2.558   4.962   6.612  0.8030 -0.8631 -0.2042
  108OSM    H8T11021   2.402   5.017   6.659 -0.3015  0.9386 -2.7375
  108OSM    C9S11022   2.397   4.836   6.548  0.4801 -0.4078 -0.4602
  108OSM    H9S11023   2.302   4.794   6.586  1.1793 -0.8761  0.8423
  108OSM    H9T11024   2.456   4.751   6.506  0.4779  1.2530 -4.2551
  108OSM   C10S11025   2.374   4.925   6.426 -0.5567  0.3100  0.2749
  108OSM   H10S11026   2.301   5.002   6.460  0.9435  2.2985 -0.7928
  108OSM   H10T11027   2.328   4.862   6.347  0.3909  0.6319 -0.5548
  108OSM   C11S11028   2.495   4.990   6.369  0.2714  0.8161  0.3843
  108OSM   H11S11029   2.541   5.061   6.442 -0.3812  0.6693  0.9519
  108OSM   H11T11030   2.462   5.062   6.292  2.0278  1.4141  0.1531
  108OSM   C12S11031   2.593   4.887   6.301 -0.4716  0.7290 -0.4302
  108OSM   H12S11032   2.557   4.785   6.325  0.6447  0.2263 -0.8199
  108OSM   H12T11033   2.693   4.908   6.345 -0.3915 -1.7956  0.7443
  108OSM   C13S11034   2.592   4.904   6.154 -0.1453  0.1950  0.1580
  108OSM   H13S11035   2.671   4.850   6.097 -1.0261  0.6636 -1.5660
  108OSM   H13T11036   2.605   5.012   6.132  2.1803  0.0055  0.3320
  108OSM   C14S11037   2.462   4.864   6.083 -0.0668 -0.6418 -0.2703
  108OSM   H14S11038   2.376   4.909   6.137  0.8287 -0.0854  0.7435
  108OSM   H14T11039   2.459   4.754   6.095  0.4350 -0.6791 -0.4299
  108OSM   C15S11040   2.462   4.910   5.934 -0.2857  0.2791  0.3846
  108OSM   H15S11041   2.553   4.870   5.885 -0.2859 -0.1428  0.7206
  108OSM   H15T11042   2.473   5.021   5.930 -0.5178  0.2726 -0.6481
  108OSM   C16S11043   2.339   4.857   5.859  0.3349  0.4253 -0.3135
  108OSM   H16S11044   2.253   4.914   5.901 -0.2299  1.3859 -2.6209
  108OSM   H16T11045   2.326   4.750   5.887 -3.2025  0.9181  0.3521
  108OSM   C17S11046   2.345   4.856   5.706  0.3767 -0.8522  0.2053
  108OSM   H17S11047   2.415   4.776   5.675 -0.4266 -1.7705  0.6926
  108OSM   H17T11048   2.377   4.956   5.668 -0.2668 -0.5741  0.3736
  108OSM   C18S11049   2.210   4.816   5.646  0.0363 -0.4262  0.7180
  108OSM   H18S11050   2.176   4.728   5.705  1.8344 -2.3444 -0.9274
  108OSM   H18T11051   2.213   4.796   5.537 -1.2886  0.9169  0.4164
  108OSM   H18U11052   2.136   4.897   5.658 -0.0672 -0.6422  1.6559
  108OSM    C1F11053   3.005   4.298   6.928 -0.7507  0.5845  0.5683
  108OSM     OF11054   2.979   4.208   7.005 -0.4165  0.0253 -0.7381
  108OSM    C2F11055   3.109   4.287   6.819 -0.1412 -0.4548  0.8905
  108OSM    H2F11056   3.169   4.381   6.822  0.2876 -0.7444  1.8317
  108OSM    H2G11057   3.059   4.275   6.721  1.3261  0.6225 -0.0300
  108OSM    C3F11058   3.202   4.170   6.839  0.4886  0.1416 -0.0647
  108OSM    H3F11059   3.149   4.074   6.821  0.5373 -0.0572  0.8249
  108OSM    H3G11060   3.249   4.189   6.938 -1.1257 -1.1930  1.0084
  108OSM    C4F11061   3.316   4.181   6.729  0.6793  0.2335 -0.0263
  108OSM    H4F11062   3.413   4.145   6.771 -0.3812  1.2006  3.6319
  108OSM    H4G11063   3.339   4.288   6.712  1.5415  0.1248  0.3951
  108OSM    C5F11064   3.297   4.115   6.593 -0.3896  0.8057  0.0507
  108OSM    H5F11065   3.197   4.130   6.546  0.5502  1.4143 -1.8455
  108OSM    H5G11066   3.305   4.005   6.604  1.2584  0.7928 -0.9792
  108OSM    C6F11067   3.406   4.148   6.487  0.1862 -0.3309  0.1866
  108OSM    H6F11068   3.510   4.132   6.521  0.6784  1.2656 -0.4820
  108OSM    H6G11069   3.390   4.254   6.459  0.7508 -1.1804 -4.0112
  108OSM    C7F11070   3.386   4.061   6.356  0.2312 -0.2026  0.0851
  108OSM    H7F11071   3.293   4.090   6.302  0.7615 -0.9288 -1.2656
  108OSM    H7G11072   3.374   3.953   6.377  2.8428 -0.2085  2.1083
  108OSM    C8F11073   3.504   4.081   6.262  0.6867  0.0517 -0.4043
  108OSM    H8F11074   3.504   4.000   6.186  0.8494  0.8628 -1.2931
  108OSM    H8G11075   3.592   4.074   6.329 -0.2853 -1.0198  0.8117
  108OSM    C9F11076   3.511   4.211   6.186 -0.3088 -0.1906 -0.1299
  108OSM    H9F11077   3.475   4.295   6.248 -0.8074 -1.8714  1.9735
  108OSM   C10F11078   3.561   4.230   6.061  0.5522  0.7157  0.3938
  108OSM   H10F11079   3.550   4.330   6.016 -0.3489  0.6738  0.4868
  108OSM   C11F11080   3.608   4.113   5.979  0.7251 -0.2148 -0.7519
  108OSM   H11F11081   3.595   4.008   6.012  1.2845  0.0373  0.3181
  108OSM   H11G11082   3.709   4.133   5.936  0.7421 -2.8935 -2.1591
  108OSM   C12F11083   3.529   4.110   5.847 -0.4660 -0.3414  0.1373
  108OSM   H12F11084   3.422   4.128   5.871 -1.0406 -3.6884  0.6239
  108OSM   H12G11085   3.538   4.013   5.793  0.2406  0.8091 -1.9213
  108OSM   C13F11086   3.582   4.218   5.748  0.2245  0.0355  0.0599
  108OSM   H13F11087   3.679   4.188   5.702 -1.2490 -2.1248 -1.8715
  108OSM   H13G11088   3.590   4.314   5.803  1.6085  0.2655 -0.5053
  108OSM   C14F11089   3.482   4.234   5.633 -0.2220 -1.1802  0.6070
  108OSM   H14F11090   3.377   4.236   5.668 -0.6023 -2.6945 -0.3652
  108OSM   H14G11091   3.484   4.154   5.556 -2.3382  0.0794 -0.8469
  108OSM   C15F11092   3.499   4.370   5.556  0.7721  0.6390 -0.5383
  108OSM   H15F11093   3.604   4.362   5.518  1.4058 -1.2724  1.4379
  108OSM   H15G11094   3.467   4.453   5.623 -0.1283 -1.0394  1.1920
  108OSM   C16F11095   3.414   4.380   5.431  0.1865 -0.5218 -0.2662
  108OSM   H16F11096   3.305   4.396   5.447  0.4882  0.7703  0.6335
  108OSM   H16G11097   3.434   4.283   5.381  1.0276 -0.9914  0.9422
  108OSM   C17F11098   3.467   4.498   5.344 -0.2698 -0.0034  0.4170
  108OSM   H17F11099   3.571   4.471   5.318 -0.9078 -4.0554  1.3816
  108OSM   H17G11100   3.474   4.585   5.412  0.9711 -1.8218  2.7668
  108OSM   C18F11101   3.402   4.511   5.207 -0.2903  0.0537 -0.0188
  108OSM   H18F11102   3.297   4.475   5.214  0.4716 -2.2458  0.3250
  108OSM   H18G11103   3.449   4.446   5.131  1.0320  0.4209  0.4698
  108OSM   H18H11104   3.396   4.620   5.183  0.9180  0.6486  2.1471
  109OSM      N11105   5.231   6.200   7.302 -0.7225  0.2329 -0.0604
  109OSM    C1511106   5.115   6.293   7.297  0.3046 -0.3199  0.2000
  109OSM   H15A11107   5.027   6.256   7.248 -0.3819 -0.3428  1.3876
  109OSM   H15B11108   5.141   6.384   7.245 -0.1986 -0.5218 -0.4069
  109OSM   H15C11109   5.089   6.326   7.397  2.1550 -1.2555  1.0420
  109OSM    C1411110   5.345   6.277   7.362 -0.0581  0.2690 -0.1218
  109OSM   H14A11111   5.437   6.222   7.344 -0.5292 -0.3160 -0.7441
  109OSM   H14B11112   5.325   6.299   7.466 -1.0587  0.0709 -0.2666
  109OSM   H14C11113   5.352   6.368   7.304  0.7001 -0.0597 -0.5626
  109OSM    C1311114   5.217   6.083   7.395 -0.6984  0.2246 -0.1004
  109OSM   H13A11115   5.314   6.044   7.423 -1.6206 -0.8972  1.6659
  109OSM   H13B11116   5.147   6.006   7.367  1.2303 -1.8930  0.5396
  109OSM   H13C11117   5.172   6.115   7.488 -1.7628 -0.2634 -0.4367
  109OSM    C1211118   5.262   6.142   7.159 -0.2310  0.0038 -0.6465
  109OSM   H12A11119   5.179   6.176   7.099 -2.5109 -1.5932  1.4077
  109OSM   H12B11120   5.261   6.034   7.167 -0.5670 -0.0392 -1.1695
  109OSM    C1111121   5.394   6.188   7.083  0.2534 -0.5919 -0.1169
  109OSM   H11A11122   5.384   6.297   7.061 -0.7001 -0.3920  1.1725
  109OSM   H11B11123   5.401   6.154   6.978 -2.6551 -0.3018 -0.4990
  109OSM      P11124   5.583   6.010   7.139 -0.0254  0.2056 -0.2820
  109OSM    O1311125   5.695   6.003   7.237  0.0475  0.2397 -0.3203
  109OSM    O1411126   5.482   5.901   7.162 -0.1685 -0.4651  0.1634
  109OSM    O1111127   5.639   6.016   6.989 -0.0252  0.3935 -0.6761
  109OSM    O1211128   5.513   6.153   7.161 -0.1430  0.4779  0.2043
  109OSM    C1S11129   5.589   5.919   6.897  0.4157  0.0021  0.7449
  109OSM    H1S11130   5.479   5.924   6.881  0.0751 -1.8774  2.1708
  109OSM    H1T11131   5.601   5.814   6.932  1.1679 -0.2379 -0.1875
  109OSM     NF11132   5.587   5.887   6.645 -0.0048 -0.5373  0.0358
  109OSM    HNF11133   5.615   5.805   6.595 -0.4165 -0.1737 -0.8042
  109OSM    C2S11134   5.663   5.928   6.760  0.8357 -0.9449  0.1486
  109OSM    H2S11135   5.687   6.036   6.751  0.6257 -0.9838 -0.9870
  109OSM    C3S11136   5.803   5.869   6.777  0.4356 -0.1815  0.0825
  109OSM    H3S11137   5.787   5.760   6.764 -1.3312  0.0448  0.1367
  109OSM     O311138   5.862   5.883   6.907 -0.2710  0.1095  0.2455
  109OSM    HO311139   5.787   5.892   6.965  0.6249  0.5499  1.3617
  109OSM    C4S11140   5.904   5.915   6.670  0.6576  0.4764  0.6831
  109OSM    H4S11141   5.929   6.022   6.670 -0.5631  0.8137 -0.9425
  109OSM    C5S11142   5.976   5.824   6.590  0.8646  0.1530 -0.6588
  109OSM    H5S11143   5.967   5.716   6.611 -0.4055  0.2389 -0.6621
  109OSM    C6S11144   6.058   5.863   6.471  0.0892  0.5959 -0.5427
  109OSM    H6S11145   6.155   5.809   6.484 -1.7196 -2.8202 -0.0024
  109OSM    H6T11146   6.077   5.972   6.467  0.6381  0.4979 -0.7144
  109OSM    C7S11147   6.011   5.813   6.337 -0.3094  0.1356 -0.0479
  109OSM    H7S11148   6.016   5.702   6.335  2.8145  0.1548  1.3077
  109OSM    H7T11149   6.091   5.857   6.273  2.0819 -2.4666  0.9275
  109OSM    C8S11150   5.870   5.860   6.305 -0.3682 -0.2811  1.2868
  109OSM    H8S11151   5.862   5.971   6.316 -0.3587 -0.0843 -0.4459
  109OSM    H8T11152   5.794   5.809   6.368 -0.4286 -2.5125 -0.4615
  109OSM    C9S11153   5.837   5.815   6.163 -0.6316 -0.3172 -0.6929
  109OSM    H9S11154   5.727   5.799   6.157 -0.4063 -2.1350 -0.5124
  109OSM    H9T11155   5.886   5.716   6.147  2.6757  0.9550  0.6092
  109OSM   C10S11156   5.886   5.908   6.053 -1.2606 -0.0963  0.1804
  109OSM   H10S11157   5.997   5.908   6.056 -1.1902  1.8511 -0.7463
  109OSM   H10T11158   5.863   6.009   6.094  2.2107  1.5426 -1.5151
  109OSM   C11S11159   5.813   5.888   5.923  0.3846  0.5058 -0.4926
  109OSM   H11S11160   5.707   5.920   5.929 -0.0750 -0.7948 -1.2107
  109OSM   H11T11161   5.816   5.779   5.903 -1.1041  0.4038 -0.2816
  109OSM   C12S11162   5.892   5.957   5.814  0.4868  0.5441  0.3472
  109OSM   H12S11163   5.994   5.915   5.825  1.2983  2.2537 -0.2894
  109OSM   H12T11164   5.907   6.063   5.843  2.6700  0.5778 -0.6824
  109OSM   C13S11165   5.835   5.941   5.674 -0.6732 -0.0868 -0.0748
  109OSM   H13S11166   5.734   5.983   5.654 -0.2629 -0.5360 -3.7409
  109OSM   H13T11167   5.830   5.835   5.640 -1.6095  0.3040 -1.2274
  109OSM   C14S11168   5.932   6.020   5.579  0.0362  0.2962  0.4382
  109OSM   H14S11169   6.033   5.977   5.595 -0.1142  0.5917  2.5695
  109OSM   H14T11170   5.930   6.129   5.602  0.3692 -0.0013  2.0602
  109OSM   C15S11171   5.909   5.993   5.434  0.7042 -0.7083  0.8742
  109OSM   H15S11172   5.959   5.901   5.398  1.7739  0.7156 -1.5419
  109OSM   H15T11173   5.958   6.083   5.390 -0.9218 -1.0625 -1.9532
  109OSM   C16S11174   5.771   5.982   5.379  0.2877  0.2091 -0.2439
  109OSM   H16S11175   5.706   6.049   5.441 -0.6002  1.4126 -2.3674
  109OSM   H16T11176   5.732   5.879   5.393  0.5784  0.3211  1.6224
  109OSM   C17S11177   5.758   6.028   5.232 -0.5710  0.5397  0.0026
  109OSM   H17S11178   5.838   5.977   5.173  1.3649  1.5308  1.6464
  109OSM   H17T11179   5.780   6.136   5.221  1.6569  0.8445  4.9185
  109OSM   C18S11180   5.625   6.001   5.159 -0.1250  0.0555 -0.1875
  109OSM   H18S11181   5.596   6.093   5.103 -1.0910 -0.6248 -0.8333
  109OSM   H18T11182   5.552   5.983   5.240  0.6508 -1.6530  0.1864
  109OSM   H18U11183   5.620   5.916   5.087  1.2123  1.5247 -2.0946
  109OSM    C1F11184   5.476   5.956   6.605 -0.0434 -0.4582  0.6178
  109OSM     OF11185   5.464   6.070   6.642 -0.2424 -0.4803 -0.6490
  109OSM    C2F11186   5.376   5.894   6.509  0.3808  0.6143 -0.5642
  109OSM    H2F11187   5.275   5.898   6.555  1.6183 -1.6272  2.8020
  109OSM    H2G11188   5.412   5.789   6.505 -0.9794 -0.0507  2.2350
  109OSM    C3F11189   5.369   5.946   6.374 -0.7597  0.1047  0.8071
  109OSM    H3F11190   5.312   6.041   6.368 -0.3300  0.3574  0.6578
  109OSM    H3G11191   5.325   5.867   6.308  2.9096 -1.4523 -0.0603
  109OSM    C4F11192   5.508   5.977   6.307 -0.3117 -0.1625  0.2220
  109OSM    H4F11193   5.579   5.892   6.306  0.7009  0.6404  1.3777
  109OSM    H4G11194   5.553   6.047   6.380 -0.9676 -0.1371  0.6128
  109OSM    C5F11195   5.492   6.043   6.171  0.3219 -0.4234 -0.2195
  109OSM    H5F11196   5.598   6.061   6.143 -0.1111  2.0260 -0.4896
  109OSM    H5G11197   5.434   6.137   6.170  0.0669 -0.5817 -0.5179
  109OSM    C6F11198   5.430   5.941   6.068  0.5304 -1.0344  0.0041
  109OSM    H6F11199   5.328   5.907   6.094 -1.0099  1.4092 -2.3979
  109OSM    H6G11200   5.503   5.857   6.063  0.4271 -1.2245  1.2735
  109OSM    C7F11201   5.411   6.012   5.923 -0.0637  0.2018 -0.2745
  109OSM    H7F11202   5.507   6.054   5.888  0.8084 -1.0556  0.5138
  109OSM    H7G11203   5.348   6.104   5.925 -0.3568  0.1024 -2.5288
  109OSM    C8F11204   5.361   5.917   5.822  0.0449  0.4093  0.3577
  109OSM    H8F11205   5.300   5.974   5.750  0.6666  1.5415  0.6996
  109OSM    H8G11206   5.296   5.848   5.880 -0.2766 -0.2669 -0.7777
  109OSM    C9F11207   5.469   5.829   5.758 -0.3767  0.3601 -0.3152
  109OSM    H9F11208   5.522   5.768   5.833  0.7548  3.1704  1.3456
  109OSM   C10F11209   5.495   5.811   5.624  0.5248 -0.0546 -0.3275
  109OSM   H10F11210   5.564   5.733   5.588 -0.2854 -0.9804  0.0781
  109OSM   C11F11211   5.440   5.879   5.506  0.1264 -0.4345  0.4286
  109OSM   H11F11212   5.523   5.934   5.457 -1.7322  1.5479 -0.6941
  109OSM   H11G11213   5.367   5.960   5.529  2.3729  2.4279 -1.7354
  109OSM   C12F11214   5.389   5.785   5.399  0.6264  0.1315 -0.1951
  109OSM   H12F11215   5.345   5.857   5.326  0.1077  0.6543  0.6225
  109OSM   H12G11216   5.308   5.721   5.438  0.1032  0.1100 -1.2692
  109OSM   C13F11217   5.492   5.693   5.337  0.3190  0.1168 -0.1471
  109OSM   H13F11218   5.532   5.625   5.416 -0.6704  0.2734  0.4979
  109OSM   H13G11219   5.567   5.759   5.288  0.2012 -0.1111 -0.6453
  109OSM   C14F11220   5.435   5.598   5.228 -0.1533 -0.1348 -0.1678
  109OSM   H14F11221   5.379   5.653   5.150 -3.0008  0.1682  1.9216
  109OSM   H14G11222   5.370   5.524   5.279 -0.8782 -0.1399 -1.0741
  109OSM   C15F11223   5.558   5.529   5.168  1.1649  0.0076  0.6829
  109OSM   H15F11224   5.592   5.467   5.254 -0.4962 -0.2172  1.2209
  109OSM   H15G11225   5.641   5.598   5.142  0.3860  0.2305 -1.3263
  109OSM   C16F11226   5.530   5.439   5.049  0.3794  0.8409 -0.0438
  109OSM   H16F11227   5.458   5.491   4.982  1.1574 -0.2070 -1.7530
  109OSM   H16G11228   5.496   5.339   5.082  2.3378 -0.0164 -0.5073
  109OSM   C17F11229   5.651   5.412   4.957 -0.3218 -0.0853 -0.3227
  109OSM   H17F11230   5.720   5.349   5.017  0.8344  0.8951 -0.5855
  109OSM   H17G11231   5.718   5.500   4.942 -0.1676 -0.6229 -3.4592
  109OSM   C18F11232   5.627   5.328   4.833  0.1976  0.0435  0.0168
  109OSM   H18F11233   5.589   5.225   4.850  0.9905 -0.2912 -0.2101
  109OSM   H18G11234   5.718   5.313   4.771  0.9582  1.5308  0.7232
  109OSM   H18H11235   5.543   5.369   4.773 -1.0453 -1.3776  0.6946
  110OSM      N11236   1.892   4.359   7.809  0.7029 -0.5510 -0.1018
  110OSM    C1511237   1.783   4.259   7.797 -0.6066 -0.3788  0.0720
  110OSM   H15A11238   1.721   4.267   7.885 -1.4481 -1.2961 -0.4230
  110OSM   H15B11239   1.835   4.166   7.782  1.5393  0.7855 -0.2030
  110OSM   H15C11240   1.713   4.283   7.719  1.1454  2.6721 -0.7522
  110OSM    C1411241   1.832   4.495   7.842  0.8733 -0.0833  0.4806
  110OSM   H14A11242   1.910   4.570   7.844 -0.2553  1.1387  0.3229
  110OSM   H14B11243   1.785   4.498   7.939  0.6873 -0.6253  0.4114
  110OSM   H14C11244   1.750   4.515   7.775 -1.3323 -1.4476  2.6393
  110OSM    C1311245   1.978   4.318   7.925  0.1473 -0.4769  0.3921
  110OSM   H13A11246   2.029   4.226   7.900  0.0140 -0.1029 -1.4276
  110OSM   H13B11247   1.931   4.303   8.021  1.3735  2.6401  1.6349
  110OSM   H13C11248   2.062   4.386   7.922 -0.6677  0.5238 -0.5224
  110OSM    C1211249   1.974   4.358   7.686 -0.1531  0.6424 -0.1098
  110OSM   H12A11250   2.029   4.449   7.673 -2.0629  2.5331  3.6637
  110OSM   H12B11251   1.907   4.364   7.601 -1.2400  1.6709  0.7875
  110OSM    C1111252   2.076   4.239   7.668 -0.2298  0.4213  0.2096
  110OSM   H11A11253   2.168   4.273   7.720  0.8690  1.4625 -2.2583
  110OSM   H11B11254   2.110   4.238   7.562 -1.1076 -0.6584 -0.0925
  110OSM      P11255   1.968   4.002   7.623 -0.0593 -0.2223  0.3123
  110OSM    O1311256   1.973   3.871   7.690 -0.1377  0.1926  0.3026
  110OSM    O1411257   1.832   4.053   7.594  0.4627  0.3098  0.4982
  110OSM    O1111258   2.055   4.003   7.498  0.1285  0.1657  0.0598
  110OSM    O1211259   2.036   4.107   7.712  0.2566  0.8121  0.3058
  110OSM    C1S11260   2.003   3.993   7.367  0.6255  0.1957 -0.6435
  110OSM    H1S11261   1.894   4.015   7.363  0.4098 -0.0166  2.0918
  110OSM    H1T11262   2.010   3.887   7.334 -0.6136 -0.5138  1.2045
  110OSM     NF11263   2.008   4.081   7.132 -0.0915 -0.7340  0.5605
  110OSM    HNF11264   2.038   4.042   7.045  1.8733  0.5148  0.6140
  110OSM    C2S11265   2.079   4.077   7.260 -0.3496 -0.2918  0.0091
  110OSM    H2S11266   2.076   4.175   7.314 -1.5281 -1.2159  1.7089
  110OSM    C3S11267   2.230   4.040   7.255 -0.3644  0.4482  0.4868
  110OSM    H3S11268   2.243   3.938   7.214 -0.4493 -0.2955  2.2273
  110OSM     O311269   2.291   4.030   7.388  0.2631  0.5278  0.0542
  110OSM    HO311270   2.219   3.990   7.438 -1.1285 -0.4422 -2.5411
  110OSM    C4S11271   2.310   4.144   7.177 -0.3885  0.1298 -0.0900
  110OSM    H4S11272   2.321   4.242   7.226  0.7345 -0.2907  0.5542
  110OSM    C5S11273   2.393   4.117   7.066 -0.2363  0.6474 -0.0710
  110OSM    H5S11274   2.393   4.013   7.028 -0.6938  0.1013  1.3571
  110OSM    C6S11275   2.485   4.213   6.993 -0.1048 -0.1920  0.0760
  110OSM    H6S11276   2.592   4.182   6.988  0.0651  0.4570 -0.7193
  110OSM    H6T11277   2.482   4.312   7.044  0.9657 -1.2118  2.2334
  110OSM    C7S11278   2.441   4.242   6.856 -0.0182  0.2158 -0.1969
  110OSM    H7S11279   2.347   4.302   6.852 -1.0980 -0.8496  3.7661
  110OSM    H7T11280   2.430   4.143   6.807  1.0136 -0.3305  0.6305
  110OSM    C8S11281   2.550   4.327   6.780  0.2214 -0.1245  0.5609
  110OSM    H8S11282   2.648   4.275   6.783  1.4256  1.7740 -2.2929
  110OSM    H8T11283   2.561   4.427   6.827 -0.7890 -0.1061  0.7813
  110OSM    C9S11284   2.501   4.365   6.636  0.9282  0.1088 -0.6465
  110OSM    H9S11285   2.412   4.431   6.649  1.8592  0.8768  2.7267
  110OSM    H9T11286   2.442   4.283   6.590 -3.7024  3.2362 -0.9659
  110OSM   C10S11287   2.612   4.424   6.553 -0.1911  0.1826 -0.2638
  110OSM   H10S11288   2.678   4.336   6.538  0.0638  0.6649 -2.2416
  110OSM   H10T11289   2.659   4.504   6.614 -0.8393 -1.2391  2.2364
  110OSM   C11S11290   2.557   4.473   6.419  0.0416 -0.6987  0.6445
  110OSM   H11S11291   2.546   4.583   6.420 -0.3632 -0.7384  0.5419
  110OSM   H11T11292   2.457   4.430   6.395 -0.4562 -0.9094  2.8405
  110OSM   C12S11293   2.652   4.440   6.300  0.6251  0.3566 -0.5398
  110OSM   H12S11294   2.674   4.331   6.298  0.4391  0.2129  1.9793
  110OSM   H12T11295   2.746   4.498   6.312  1.8013 -1.5984  0.0351
  110OSM   C13S11296   2.590   4.491   6.168  0.9435 -0.4845 -0.1754
  110OSM   H13S11297   2.595   4.602   6.173  2.0349 -0.0895 -5.4013
  110OSM   H13T11298   2.483   4.461   6.156  1.3728 -3.1261  1.6480
  110OSM   C14S11299   2.667   4.436   6.050  0.1057  0.4912 -0.1580
  110OSM   H14S11300   2.667   4.325   6.045 -0.6379  0.2966  2.4901
  110OSM   H14T11301   2.774   4.456   6.071  0.3311 -0.2339 -0.6000
  110OSM   C15S11302   2.646   4.502   5.910 -0.1513  0.7503 -0.4252
  110OSM   H15S11303   2.667   4.611   5.914 -2.5214  1.2578 -0.2679
  110OSM   H15T11304   2.542   4.490   5.874  0.1435  4.3701 -3.0900
  110OSM   C16S11305   2.736   4.428   5.802 -0.0962 -0.0562  0.1759
  110OSM   H16S11306   2.701   4.322   5.798  1.2009 -0.4620 -1.3107
  110OSM   H16T11307   2.841   4.427   5.837 -0.1769  0.5047  0.4506
  110OSM   C17S11308   2.731   4.488   5.661 -0.1343  0.1421 -0.0693
  110OSM   H17S11309   2.631   4.466   5.616 -0.8548 -1.1401  2.0441
  110OSM   H17T11310   2.801   4.435   5.592  1.4599  1.3345  0.5893
  110OSM   C18S11311   2.744   4.638   5.662  0.1862 -0.1497  0.6027
  110OSM   H18S11312   2.839   4.661   5.715 -0.3245  2.8793  0.3746
  110OSM   H18T11313   2.659   4.680   5.719 -0.3823 -0.1342 -0.2528
  110OSM   H18U11314   2.740   4.686   5.562 -0.8407 -1.6634 -0.1197
  110OSM    C1F11315   1.882   4.123   7.117 -0.1539 -0.2623 -0.0844
  110OSM     OF11316   1.813   4.173   7.203  0.3425 -0.3042 -0.2373
  110OSM    C2F11317   1.833   4.114   6.974 -0.2123  0.3132 -0.5263
  110OSM    H2F11318   1.849   4.014   6.930  1.6791  0.4338 -0.1981
  110OSM    H2G11319   1.883   4.183   6.902  1.1022 -3.0798 -3.1048
  110OSM    C3F11320   1.682   4.140   6.956  0.3035 -0.2085 -0.9173
  110OSM    H3F11321   1.639   4.238   6.985 -0.4164 -0.9471  0.6075
  110OSM    H3G11322   1.632   4.059   7.013  1.6125 -0.1727  0.3057
  110OSM    C4F11323   1.642   4.099   6.813 -0.5894 -0.1821  0.0165
  110OSM    H4F11324   1.685   3.998   6.797 -0.0670 -0.1631  1.1965
  110OSM    H4G11325   1.689   4.179   6.751 -2.9005  0.7363 -0.6761
  110OSM    C5F11326   1.493   4.079   6.793  0.5840 -0.0004 -0.1593
  110OSM    H5F11327   1.436   4.168   6.827 -0.9095 -1.0472  0.1830
  110OSM    H5G11328   1.448   3.993   6.847 -2.2513 -0.4464 -2.9665
  110OSM    C6F11329   1.449   4.054   6.651  0.7324 -0.1611  0.1980
  110OSM    H6F11330   1.472   4.145   6.592  1.4947  0.3830  1.2968
  110OSM    H6G11331   1.339   4.047   6.665  0.4328  0.9803 -1.3608
  110OSM    C7F11332   1.519   3.939   6.583 -0.4444  0.5085 -0.9660
  110OSM    H7F11333   1.543   3.860   6.658  0.1966 -0.9285 -2.6308
  110OSM    H7G11334   1.622   3.972   6.559 -0.6797  2.6140  0.5771
  110OSM    C8F11335   1.464   3.880   6.452  0.3805 -0.4806 -0.1071
  110OSM    H8F11336   1.363   3.838   6.474  0.3104 -0.6306 -0.6717
  110OSM    H8G11337   1.523   3.788   6.432  2.3976  0.1805  2.2701
  110OSM    C9F11338   1.466   3.977   6.340  0.0865  0.6786 -0.2611
  110OSM    H9F11339   1.477   4.080   6.376  0.8350  0.1605  1.0937
  110OSM   C10F11340   1.508   3.945   6.214 -0.0487  0.0195 -0.9957
  110OSM   H10F11341   1.513   4.026   6.140 -1.8704  2.0388  0.9537
  110OSM   C11F11342   1.523   3.813   6.153 -0.0320  0.6469 -0.0407
  110OSM   H11F11343   1.435   3.799   6.086  1.5768  0.4216 -2.2449
  110OSM   H11G11344   1.522   3.735   6.231  0.3035  0.0534 -0.6190
  110OSM   C12F11345   1.642   3.788   6.063 -0.2045 -0.5037  0.6362
  110OSM   H12F11346   1.641   3.681   6.033  1.3109 -0.4442  0.3025
  110OSM   H12G11347   1.734   3.811   6.121 -0.8715 -0.6198  1.7625
  110OSM   C13F11348   1.656   3.866   5.928  0.2211  0.2488  0.6016
  110OSM   H13F11349   1.757   3.854   5.882 -0.0142  0.6372 -0.0144
  110OSM   H13G11350   1.648   3.972   5.961 -0.8155 -0.6130  3.3878
  110OSM   C14F11351   1.549   3.838   5.823 -0.1374  0.4406 -0.4280
  110OSM   H14F11352   1.453   3.824   5.878 -0.1917 -0.8188 -0.8044
  110OSM   H14G11353   1.557   3.734   5.784  0.8379 -0.2716  1.5645
  110OSM   C15F11354   1.535   3.948   5.715 -0.5152 -0.2254  0.1285
  110OSM   H15F11355   1.631   3.952   5.659 -0.0433  3.1209  0.9457
  110OSM   H15G11356   1.530   4.044   5.771  3.7120 -0.1807  0.7632
  110OSM   C16F11357   1.427   3.928   5.609 -0.2696 -0.4282 -0.4033
  110OSM   H16F11358   1.339   3.890   5.666 -0.3136 -1.3681 -1.0729
  110OSM   H16G11359   1.464   3.842   5.550 -1.1208 -0.7597 -0.4639
  110OSM   C17F11360   1.405   4.038   5.512  0.4912  0.1809 -0.1063
  110OSM   H17F11361   1.500   4.094   5.493  0.2760 -0.0759 -2.1153
  110OSM   H17G11362   1.329   4.107   5.555 -0.0840 -1.1502  1.0848
  110OSM   C18F11363   1.360   3.994   5.373  0.2441 -0.4085  0.5798
  110OSM   H18F11364   1.389   4.067   5.295  0.5850 -0.3347  0.7757
  110OSM   H18G11365   1.249   3.986   5.368  0.1189  1.5381 -0.6150
  110OSM   H18H11366   1.410   3.896   5.357  0.1536 -0.3978  0.2195
  111OSM      N11367   3.674   3.487   6.842  0.0992 -0.2707  0.0941
  111OSM    C1511368   3.763   3.597   6.874  0.0917 -0.5098 -0.2086
  111OSM   H15A11369   3.744   3.686   6.814  0.3561  0.1273  0.6344
  111OSM   H15B11370   3.853   3.560   6.828 -1.3520 -1.7547 -2.2235
  111OSM   H15C11371   3.772   3.619   6.979 -0.6338 -2.3372  0.2596
  111OSM    C1411372   3.539   3.530   6.888  0.1237 -0.1182  0.5258
  111OSM   H14A11373   3.546   3.579   6.984  1.6943  0.2682  0.2332
  111OSM   H14B11374   3.472   3.446   6.884  0.3343 -0.2743  0.2791
  111OSM   H14C11375   3.491   3.604   6.825  0.3529 -1.1571 -0.9126
  111OSM    C1311376   3.684   3.461   6.691  0.5602  0.6162  0.0766
  111OSM   H13A11377   3.655   3.550   6.639  1.3092  0.8482  0.0518
  111OSM   H13B11378   3.620   3.380   6.660  0.4328  1.5563 -2.3011
  111OSM   H13C11379   3.784   3.431   6.662  1.4717  0.4329  3.0273
  111OSM    C1211380   3.707   3.359   6.911 -0.2985  0.2952 -1.4147
  111OSM   H12A11381   3.688   3.362   7.017  2.0044  0.7173 -0.9576
  111OSM   H12B11382   3.814   3.344   6.901 -0.0274  0.4517  0.7792
  111OSM    C1111383   3.632   3.235   6.864  0.4661 -0.4737  0.0425
  111OSM   H11A11384   3.649   3.206   6.758  1.4335 -2.4686  0.6944
  111OSM   H11B11385   3.524   3.263   6.862  0.9235  1.4790  0.2503
  111OSM      P11386   3.785   3.041   6.946  0.2956 -0.3985 -0.1199
  111OSM    O1311387   3.878   3.102   7.045  0.1381 -0.6777  0.5655
  111OSM    O1411388   3.762   2.898   6.972  0.9028 -0.3179  0.3912
  111OSM    O1111389   3.846   3.070   6.802 -0.1473 -0.1045 -0.7789
  111OSM    O1211390   3.649   3.124   6.951 -0.1900  0.4308 -0.2427
  111OSM    C1S11391   3.985   3.033   6.787  0.2330  0.3007 -0.2473
  111OSM    H1S11392   3.990   2.923   6.805  1.4112 -0.0598 -2.4294
  111OSM    H1T11393   4.042   3.094   6.860 -1.7931  1.4339  0.4770
  111OSM     NF11394   4.180   3.029   6.658  0.2850  0.0079  0.2397
  111OSM    HNF11395   4.239   3.109   6.659  1.1004 -0.4707 -2.3726
  111OSM    C2S11396   4.036   3.055   6.651  0.1075  0.2061  0.2084
  111OSM    H2S11397   3.988   2.991   6.573 -0.2552  1.5877 -0.7552
  111OSM    C3S11398   4.010   3.201   6.596  0.8801 -0.4982 -0.1386
  111OSM    H3S11399   4.084   3.269   6.643  0.9249 -0.0815 -0.7975
  111OSM     O311400   3.879   3.258   6.618  0.5372  0.3585  0.0272
  111OSM    HO311401   3.841   3.196   6.681  2.0326 -0.9066 -0.2581
  111OSM    C4S11402   4.038   3.217   6.450  0.1273  0.5201 -0.8206
  111OSM    H4S11403   4.139   3.257   6.438  0.7463 -0.8594 -0.3940
  111OSM    C5S11404   3.952   3.203   6.346  0.1821 -0.2738 -0.2813
  111OSM    H5S11405   3.843   3.195   6.354  0.0521  0.8757 -0.7644
  111OSM    C6S11406   3.997   3.238   6.211  0.0131  0.5625  0.2179
  111OSM    H6S11407   4.091   3.297   6.213  0.5632 -0.2119 -1.1988
  111OSM    H6T11408   3.919   3.311   6.180 -0.9268  0.4260  2.1271
  111OSM    C7S11409   4.018   3.129   6.113 -0.0327 -0.2646 -0.1861
  111OSM    H7S11410   3.938   3.052   6.118 -1.1440  0.5809 -2.9290
  111OSM    H7T11411   4.118   3.089   6.140 -0.5496 -1.7082 -0.2908
  111OSM    C8S11412   4.030   3.187   5.970 -0.6992  0.5194 -0.8526
  111OSM    H8S11413   4.115   3.258   5.971 -1.4702  1.5767  2.4802
  111OSM    H8T11414   3.941   3.251   5.956 -0.9723  1.7168  4.2223
  111OSM    C9S11415   4.028   3.069   5.880 -0.1658 -0.1834  0.5108
  111OSM    H9S11416   3.934   3.014   5.901 -0.9756 -0.2021 -2.6240
  111OSM    H9T11417   4.115   3.002   5.898  0.6080  0.9954  1.3305
  111OSM   C10S11418   4.016   3.102   5.726  0.1915  0.8165 -0.2754
  111OSM   H10S11419   3.920   3.150   5.695 -1.3051 -1.5764  0.4253
  111OSM   H10T11420   4.014   3.008   5.668 -1.8967  0.6172  0.0383
  111OSM   C11S11421   4.128   3.186   5.678 -0.0742 -0.3832 -0.2909
  111OSM   H11S11422   4.227   3.137   5.675  0.2979  0.3836 -0.7457
  111OSM   H11T11423   4.149   3.275   5.742  1.1419 -1.2410  0.5471
  111OSM   C12S11424   4.107   3.234   5.535  0.8918 -0.4028 -0.6186
  111OSM   H12S11425   4.082   3.143   5.476 -2.2539  0.8531 -1.4421
  111OSM   H12T11426   4.201   3.268   5.488 -0.1749  1.4524 -1.5390
  111OSM   C13S11427   3.999   3.352   5.517 -0.7653 -0.5331  0.1685
  111OSM   H13S11428   4.044   3.451   5.538 -2.5233  0.1927  0.6554
  111OSM   H13T11429   3.905   3.337   5.574 -0.7101 -2.0978 -0.0931
  111OSM   C14S11430   3.963   3.375   5.372  0.5209  0.5817  0.2381
  111OSM   H14S11431   3.902   3.466   5.354 -1.5398 -1.0693 -1.7569
  111OSM   H14T11432   3.888   3.300   5.337 -0.4591  0.8302  1.7216
  111OSM   C15S11433   4.079   3.393   5.276 -0.4122 -0.4491 -0.3166
  111OSM   H15S11434   4.154   3.311   5.277  0.1032  0.0142 -0.4068
  111OSM   H15T11435   4.137   3.482   5.308 -2.5698  0.8326  0.1835
  111OSM   C16S11436   4.020   3.429   5.140 -0.4369 -0.4074  0.3723
  111OSM   H16S11437   3.946   3.510   5.156  3.2730  3.4151  0.1550
  111OSM   H16T11438   3.970   3.338   5.102 -1.1269 -1.2826  3.1304
  111OSM   C17S11439   4.121   3.482   5.034 -0.1618 -0.7614 -0.4668
  111OSM   H17S11440   4.181   3.395   5.001 -1.1253 -1.1748 -1.1403
  111OSM   H17T11441   4.185   3.562   5.078 -0.9922  0.3068 -1.1472
  111OSM   C18S11442   4.052   3.548   4.919  0.0349 -0.2917 -0.5606
  111OSM   H18S11443   4.002   3.643   4.948  0.0206  0.1828 -2.0601
  111OSM   H18T11444   3.968   3.484   4.885 -0.7436 -0.3844  1.4348
  111OSM   H18U11445   4.121   3.577   4.836 -0.4675 -1.6253 -1.4783
  111OSM    C1F11446   4.231   2.906   6.661 -0.4617  0.3521 -0.0937
  111OSM     OF11447   4.160   2.814   6.630 -0.0030 -0.3372  0.2445
  111OSM    C2F11448   4.364   2.906   6.705  0.6127 -0.4336 -0.1183
  111OSM    H2F11449   4.375   2.854   6.803  0.7141  0.0666  0.1393
  111OSM    H2G11450   4.410   3.007   6.717  1.9173 -0.8592 -1.1982
  111OSM    C3F11451   4.458   2.821   6.610  0.5051 -0.2267 -0.0958
  111OSM    H3F11452   4.403   2.731   6.575 -0.8540  0.4543  0.2064
  111OSM    H3G11453   4.549   2.804   6.672 -0.4114  1.3933  1.8172
  111OSM    C4F11454   4.514   2.900   6.495  0.5000  0.2149  0.3848
  111OSM    H4F11455   4.607   2.856   6.452 -0.8453  0.0741 -2.6654
  111OSM    H4G11456   4.537   3.003   6.528  2.3529 -0.3041  0.8586
  111OSM    C5F11457   4.419   2.901   6.370  0.0605  0.2242  0.5306
  111OSM    H5F11458   4.320   2.946   6.393  1.0469  4.3029 -2.1141
  111OSM    H5G11459   4.396   2.798   6.336  0.6342  0.7254 -1.5116
  111OSM    C6F11460   4.481   2.983   6.259  0.5933  0.0008 -0.1628
  111OSM    H6F11461   4.578   2.939   6.226  0.7575  0.2329  0.0094
  111OSM    H6G11462   4.503   3.088   6.288 -0.4934 -0.2280  1.6726
  111OSM    C7F11463   4.390   2.983   6.135 -0.1816  0.1099 -0.1298
  111OSM    H7F11464   4.286   2.991   6.175 -0.0958 -2.7262  0.9043
  111OSM    H7G11465   4.395   2.884   6.085 -0.5305 -1.4841  2.8254
  111OSM    C8F11466   4.416   3.101   6.038  0.1974 -0.1813 -0.6613
  111OSM    H8F11467   4.386   3.197   6.085 -3.6447 -0.8007 -1.5165
  111OSM    H8G11468   4.343   3.094   5.954 -0.4425 -0.3853 -0.0897
  111OSM    C9F11469   4.558   3.098   5.977 -0.2988 -0.1089 -0.7858
  111OSM    H9F11470   4.630   3.054   6.048 -0.2127  1.0073 -0.1526
  111OSM   C10F11471   4.592   3.136   5.854 -0.1772 -0.3016  0.0137
  111OSM   H10F11472   4.700   3.140   5.836 -0.1919  1.3057  0.1723
  111OSM   C11F11473   4.513   3.216   5.754  0.6203 -0.0457  0.1298
  111OSM   H11F11474   4.555   3.313   5.721 -0.5595 -0.1354 -1.7387
  111OSM   H11G11475   4.412   3.229   5.798  1.6950  1.9833  2.2579
  111OSM   C12F11476   4.497   3.136   5.619  0.4551 -0.6008 -0.2213
  111OSM   H12F11477   4.443   3.204   5.550  2.0692  1.4423  0.4349
  111OSM   H12G11478   4.432   3.050   5.648  0.6467 -0.5190  0.4794
  111OSM   C13F11479   4.633   3.104   5.561 -0.6840 -0.4046  0.0690
  111OSM   H13F11480   4.677   3.019   5.618  2.2423  1.1380  0.3031
  111OSM   H13G11481   4.712   3.180   5.576  0.0244 -0.7876 -1.5721
  111OSM   C14F11482   4.634   3.054   5.414  0.4677  0.3037 -1.3233
  111OSM   H14F11483   4.735   3.016   5.389  1.8837  2.8926  0.1342
  111OSM   H14G11484   4.634   3.140   5.345 -0.9702  0.0169 -1.7323
  111OSM   C15F11485   4.523   2.943   5.381 -0.4368  0.9379  1.3794
  111OSM   H15F11486   4.422   2.989   5.393 -0.1173  1.3606  2.6034
  111OSM   H15G11487   4.521   2.860   5.455 -0.6316  2.4346  3.1291
  111OSM   C16F11488   4.535   2.904   5.228  0.1556  0.4871 -0.0961
  111OSM   H16F11489   4.468   2.817   5.209 -1.0159  1.0670  1.1834
  111OSM   H16G11490   4.638   2.867   5.209  0.1312  0.4384 -0.1339
  111OSM   C17F11491   4.505   3.016   5.127  0.1141 -0.3672  0.2683
  111OSM   H17F11492   4.580   3.098   5.127 -0.4099  0.1202 -0.3614
  111OSM   H17G11493   4.399   3.045   5.134 -0.1726 -1.4691  0.7460
  111OSM   C18F11494   4.518   2.951   4.983  0.3584 -0.7066  0.0256
  111OSM   H18F11495   4.437   2.876   4.971 -0.2007 -0.3816  1.5350
  111OSM   H18G11496   4.609   2.887   4.972 -0.7919 -2.5061  0.4990
  111OSM   H18H11497   4.519   3.032   4.907 -0.0435 -1.2873 -0.6087
  112OSM      N11498   6.475   5.159   7.761  0.1346  0.7924 -0.0136
  112OSM    C1511499   6.439   5.026   7.827 -0.0065 -0.9614  0.0710
  112OSM   H15A11500   6.335   5.012   7.800  0.2364  1.6311 -2.8536
  112OSM   H15B11501   6.453   5.041   7.933 -0.2584 -0.7877  0.0819
  112OSM   H15C11502   6.506   4.949   7.794  0.0385 -0.3184 -1.4074
  112OSM    C1411503   6.379   5.261   7.818 -0.5267 -0.5880  0.4272
  112OSM   H14A11504   6.407   5.283   7.920 -0.1833 -0.2050  0.2530
  112OSM   H14B11505   6.278   5.223   7.820 -0.7306 -0.1838 -0.8844
  112OSM   H14C11506   6.376   5.351   7.757 -1.0953 -1.0161 -0.1868
  112OSM    C1311507   6.617   5.186   7.809  0.0552  0.1461  0.1922
  112OSM   H13A11508   6.611   5.191   7.917  0.0745 -3.1357  0.4457
  112OSM   H13B11509   6.658   5.280   7.776 -0.3481 -0.3077 -1.7165
  112OSM   H13C11510   6.694   5.122   7.771 -0.1638  0.0518 -0.0938
  112OSM    C1211511   6.482   5.142   7.609 -0.4218  0.4902 -0.3188
  112OSM   H12A11512   6.387   5.105   7.573  0.2566 -0.4788 -1.1760
  112OSM   H12B11513   6.546   5.059   7.584 -1.4911 -0.0130 -1.5264
  112OSM    C1111514   6.527   5.261   7.520 -0.4150 -0.3446  0.0535
  112OSM   H11A11515   6.532   5.230   7.413  0.3598  3.5891 -1.2275
  112OSM   H11B11516   6.630   5.295   7.541 -0.8899  2.4294 -1.6025
  112OSM      P11517   6.480   5.507   7.545  0.0529 -0.3796 -0.2652
  112OSM    O1311518   6.358   5.590   7.580 -0.1420 -0.5331  0.2808
  112OSM    O1411519   6.600   5.504   7.637 -0.1609 -0.3209 -0.2112
  112OSM    O1111520   6.524   5.553   7.395 -0.0773  0.8444 -0.1659
  112OSM    O1211521   6.432   5.364   7.527 -0.1835 -0.3899  0.2395
  112OSM    C1S11522   6.449   5.504   7.282 -0.1972  0.2879 -0.0521
  112OSM    H1S11523   6.369   5.580   7.270  0.9116  1.6283  0.7184
  112OSM    H1T11524   6.409   5.402   7.294  2.9561 -0.8022  2.9387
  112OSM     NF11525   6.479   5.459   7.038 -1.0457 -0.3231 -0.5554
  112OSM    HNF11526   6.479   5.361   7.022  0.9813 -0.7591  1.6141
  112OSM    C2S11527   6.543   5.490   7.163  0.5425 -0.0356 -0.2285
  112OSM    H2S11528   6.590   5.589   7.144 -1.1254  0.8268 -0.0302
  112OSM    C3S11529   6.671   5.397   7.202 -0.3319  0.3524 -0.3458
  112OSM    H3S11530   6.621   5.302   7.231 -1.1536  1.2536  1.3905
  112OSM     O311531   6.747   5.440   7.310 -0.0742 -0.1272  0.5733
  112OSM    HO311532   6.690   5.513   7.337 -1.9421 -1.3542  0.1450
  112OSM    C4S11533   6.750   5.373   7.076 -0.5729  0.6239  0.7612
  112OSM    H4S11534   6.788   5.468   7.035  1.1682  0.5205  1.9903
  112OSM    C5S11535   6.777   5.248   7.023 -0.0901  0.0331 -0.5618
  112OSM    H5S11536   6.757   5.160   7.085 -0.5329  0.9781  0.7011
  112OSM    C6S11537   6.841   5.215   6.888 -0.6329 -0.6333  0.6112
  112OSM    H6S11538   6.771   5.147   6.835 -1.0955  0.4713 -0.2448
  112OSM    H6T11539   6.928   5.150   6.910 -0.9532 -1.8044 -1.3955
  112OSM    C7S11540   6.899   5.324   6.792  0.3366 -0.7284  0.2902
  112OSM    H7S11541   6.966   5.377   6.864  0.5403  1.3039 -1.2922
  112OSM    H7T11542   6.818   5.393   6.762  0.6035 -0.3565  0.4107
  112OSM    C8S11543   6.963   5.249   6.676 -0.0425  1.1351 -0.4929
  112OSM    H8S11544   6.886   5.183   6.629  1.9216 -1.1587 -0.7006
  112OSM    H8T11545   7.040   5.176   6.710  0.7308  1.9442 -0.4681
  112OSM    C9S11546   7.033   5.348   6.587  0.5618  0.1129 -0.6716
  112OSM    H9S11547   7.103   5.398   6.658 -2.2598 -0.2893  2.6775
  112OSM    H9T11548   6.963   5.420   6.539  1.9303  1.5913 -0.5516
  112OSM   C10S11549   7.120   5.281   6.477  0.0515 -0.0601 -0.0400
  112OSM   H10S11550   7.199   5.235   6.540  0.7618  1.9293  0.6176
  112OSM   H10T11551   7.180   5.351   6.415  0.3864 -0.5619 -0.2912
  112OSM   C11S11552   7.058   5.163   6.394  0.5450 -0.2753  0.6058
  112OSM   H11S11553   7.019   5.088   6.466  0.0583  0.7564  1.4359
  112OSM   H11T11554   7.134   5.112   6.331  1.0133  0.0685  0.8842
  112OSM   C12S11555   6.942   5.211   6.309  0.0726 -0.1150  0.0287
  112OSM   H12S11556   6.875   5.256   6.386 -0.1311 -1.7739  0.8678
  112OSM   H12T11557   6.893   5.122   6.263  0.8592  0.6520 -2.4481
  112OSM   C13S11558   6.973   5.313   6.196  1.0189  0.4190  0.4328
  112OSM   H13S11559   7.022   5.268   6.107 -0.6677 -0.5484 -0.0584
  112OSM   H13T11560   7.022   5.400   6.245 -0.8641 -0.4406  4.1456
  112OSM   C14S11561   6.841   5.372   6.148 -0.4950 -0.3092 -0.2322
  112OSM   H14S11562   6.863   5.436   6.059  1.9468 -2.2784 -1.1543
  112OSM   H14T11563   6.803   5.434   6.232  0.7547 -0.9694  0.8402
  112OSM   C15S11564   6.740   5.263   6.116 -0.1014  0.6133  0.5589
  112OSM   H15S11565   6.641   5.307   6.089  0.1167 -0.6751 -2.7100
  112OSM   H15T11566   6.718   5.183   6.190 -0.1003 -1.0158 -1.1267
  112OSM   C16S11567   6.776   5.174   5.997  1.2836 -0.4653 -0.0375
  112OSM   H16S11568   6.874   5.121   6.003  0.6000 -1.6452  1.3769
  112OSM   H16T11569   6.790   5.237   5.906  1.2998  0.2212  0.4350
  112OSM   C17S11570   6.674   5.066   5.961  0.3177  0.4922  0.0181
  112OSM   H17S11571   6.575   5.117   5.957  0.8479  1.5207 -0.4161
  112OSM   H17T11572   6.675   4.990   6.042  4.3452  1.0003  0.6534
  112OSM   C18S11573   6.708   4.997   5.823 -0.2526 -0.1708 -0.3368
  112OSM   H18S11574   6.774   5.067   5.768 -1.1066  0.7605 -0.1914
  112OSM   H18T11575   6.619   4.960   5.768  1.1201 -0.9655 -2.1349
  112OSM   H18U11576   6.775   4.909   5.838 -0.6692 -0.3054  0.8521
  112OSM    C1F11577   6.413   5.545   6.965 -0.1390 -0.6167  0.3294
  112OSM     OF11578   6.386   5.660   7.002 -0.1030 -0.2607 -0.0008
  112OSM    C2F11579   6.364   5.499   6.833 -0.3591  0.0167 -0.2691
  112OSM    H2F11580   6.253   5.495   6.837 -0.4639 -0.8572 -2.5247
  112OSM    H2G11581   6.401   5.399   6.802  1.6799  0.9389 -0.9192
  112OSM    C3F11582   6.392   5.620   6.732  0.1701  0.0422 -0.9520
  112OSM    H3F11583   6.352   5.713   6.776 -2.4389 -1.5416  0.2844
  112OSM    H3G11584   6.331   5.608   6.640 -1.2186  0.3454 -0.0953
  112OSM    C4F11585   6.532   5.641   6.695  0.5359  0.4557  0.5858
  112OSM    H4F11586   6.587   5.677   6.785  2.0204  1.5343 -0.6932
  112OSM    H4G11587   6.548   5.720   6.618 -1.8565 -0.0455 -0.5222
  112OSM    C5F11588   6.612   5.522   6.653 -0.0727 -0.0181  0.3134
  112OSM    H5F11589   6.597   5.450   6.736  2.8524 -0.5315  0.4879
  112OSM    H5G11590   6.717   5.551   6.634  0.9855 -3.5622 -0.0106
  112OSM    C6F11591   6.562   5.444   6.540 -0.3907 -0.0240  0.2050
  112OSM    H6F11592   6.612   5.470   6.444 -2.3057 -1.2523 -1.1997
  112OSM    H6G11593   6.453   5.455   6.522 -0.4223 -1.6717 -0.8826
  112OSM    C7F11594   6.587   5.296   6.562 -0.3579 -0.2927  0.4954
  112OSM    H7F11595   6.530   5.274   6.656  1.9913 -1.1714  1.7995
  112OSM    H7G11596   6.694   5.288   6.588 -0.6690 -2.2042  1.3814
  112OSM    C8F11597   6.537   5.213   6.442 -0.2362 -0.4059 -0.0122
  112OSM    H8F11598   6.570   5.257   6.345 -1.9328 -2.9577 -1.8763
  112OSM    H8G11599   6.426   5.207   6.449 -0.4083 -0.6529 -2.0936
  112OSM    C9F11600   6.594   5.077   6.444  0.0997  0.2892  0.9907
  112OSM    H9F11601   6.692   5.062   6.490 -0.1672  0.8860  1.7849
  112OSM   C10F11602   6.533   4.963   6.394 -0.0825 -0.2322  0.0119
  112OSM   H10F11603   6.584   4.866   6.403 -1.1391 -0.8427 -0.2807
  112OSM   C11F11604   6.405   4.947   6.329  0.4650  0.3859 -0.0886
  112OSM   H11F11605   6.330   5.007   6.384  2.3854  2.0412  0.8726
  112OSM   H11G11606   6.373   4.841   6.320  0.0756  0.3906  1.1174
  112OSM   C12F11607   6.399   5.005   6.181  0.2010  0.7488  0.1751
  112OSM   H12F11608   6.476   4.950   6.124  0.3697 -0.5938  1.6485
  112OSM   H12G11609   6.414   5.115   6.174 -1.4132  0.9468 -0.5892
  112OSM   C13F11610   6.262   4.975   6.108  1.3454 -0.0444 -0.0714
  112OSM   H13F11611   6.188   5.005   6.185  1.1056 -2.0166  0.5388
  112OSM   H13G11612   6.249   4.865   6.092 -0.2208  0.1707 -0.3991
  112OSM   C14F11613   6.229   5.066   5.989  0.3788  0.3107 -0.4743
  112OSM   H14F11614   6.256   5.172   6.007  0.5504  0.4896 -1.7002
  112OSM   H14G11615   6.118   5.067   5.979  0.4631 -1.8379 -2.3451
  112OSM   C15F11616   6.284   5.008   5.856 -0.7549  0.3436  0.5029
  112OSM   H15F11617   6.267   4.899   5.842  0.4296  0.2993 -0.8557
  112OSM   H15G11618   6.394   5.009   5.872 -0.6666  1.3450 -0.1231
  112OSM   C16F11619   6.254   5.108   5.741  0.1227 -0.5194  0.3319
  112OSM   H16F11620   6.340   5.117   5.671  0.3394  1.7556  0.8344
  112OSM   H16G11621   6.242   5.212   5.777 -1.9918 -0.7087  0.2502
  112OSM   C17F11622   6.130   5.063   5.667  0.2114 -0.5497 -0.0969
  112OSM   H17F11623   6.036   5.088   5.720 -0.0204 -0.8057 -0.3794
  112OSM   H17G11624   6.144   4.952   5.666  0.5155 -0.5131 -0.3420
  112OSM   C18F11625   6.128   5.106   5.523 -0.0583 -0.3322  0.1681
  112OSM   H18F11626   6.136   5.216   5.507 -2.2289  0.1370  1.8202
  112OSM   H18G11627   6.049   5.067   5.456 -0.6856  0.1790  0.5966
  112OSM   H18H11628   6.227   5.067   5.492 -0.1912 -1.0518  0.6254
  113OSM      N11629   3.335   2.633   7.491  0.4836  0.0462  0.1310
  113OSM    C1511630   3.319   2.742   7.599 -0.1818  0.9752  0.0212
  113OSM   H15A11631   3.353   2.706   7.695 -2.4665 -0.9046  0.2074
  113OSM   H15B11632   3.218   2.776   7.615 -0.5912 -0.5924  0.9164
  113OSM   H15C11633   3.384   2.828   7.587  1.1248  0.3309  1.9270
  113OSM    C1411634   3.481   2.639   7.453 -0.0200  0.1099 -0.1756
  113OSM   H14A11635   3.503   2.728   7.397  0.9747 -0.9985 -1.6214
  113OSM   H14B11636   3.510   2.562   7.383  3.1139  1.7566 -0.8336
  113OSM   H14C11637   3.541   2.627   7.542 -1.7759  2.7507  1.4865
  113OSM    C1311638   3.287   2.502   7.536 -0.6583 -0.3677  0.4953
  113OSM   H13A11639   3.179   2.505   7.546 -0.8238 -1.8231 -0.4511
  113OSM   H13B11640   3.318   2.477   7.636 -0.3563  1.2882  0.8420
  113OSM   H13C11641   3.307   2.420   7.468 -1.9472 -0.7820  0.5940
  113OSM    C1211642   3.259   2.681   7.371 -0.7309  0.5473  0.7878
  113OSM   H12A11643   3.284   2.781   7.340 -0.9892 -0.1531 -1.8957
  113OSM   H12B11644   3.154   2.680   7.397 -0.4928  0.1227  1.8116
  113OSM    C1111645   3.276   2.601   7.237  0.0624  0.2859  0.4857
  113OSM   H11A11646   3.376   2.610   7.190 -0.6445  1.5573 -0.8930
  113OSM   H11B11647   3.212   2.649   7.159 -0.2790 -0.8760  0.0313
  113OSM      P11648   3.085   2.416   7.234 -0.0458  0.2398  0.1574
  113OSM    O1311649   3.096   2.270   7.214  0.1287  0.3875 -0.3197
  113OSM    O1411650   3.006   2.460   7.348  0.4111  0.4492 -0.2674
  113OSM    O1111651   3.024   2.457   7.096 -0.4185  0.6806  0.2993
  113OSM    O1211652   3.241   2.463   7.237 -0.1233  0.8996  0.5823
  113OSM    C1S11653   3.099   2.462   6.972 -0.6316  0.8855  0.3107
  113OSM    H1S11654   3.200   2.416   6.981 -0.4492  1.6752  3.6497
  113OSM    H1T11655   3.114   2.567   6.941  0.0479  0.7892  0.2916
  113OSM     NF11656   3.107   2.358   6.742 -0.2666  0.0923  0.2663
  113OSM    HNF11657   3.076   2.399   6.657  1.6738 -0.5048 -0.8046
  113OSM    C2S11658   3.024   2.384   6.857 -0.2120  0.3046  0.6072
  113OSM    H2S11659   2.998   2.284   6.896 -0.2494  1.2814  3.2966
  113OSM    C3S11660   2.892   2.458   6.829 -0.3212  0.7249  0.3426
  113OSM    H3S11661   2.916   2.549   6.770 -1.2453  0.2784 -0.7700
  113OSM     O311662   2.814   2.501   6.939  0.0348 -0.1350 -0.3923
  113OSM    HO311663   2.872   2.498   7.015  1.3529  1.4301 -1.2590
  113OSM    C4S11664   2.802   2.393   6.721 -0.4349 -0.3370  0.1803
  113OSM    H4S11665   2.843   2.412   6.621  1.0076  0.4973  0.8805
  113OSM    C5S11666   2.685   2.327   6.737  0.8672 -0.4314  0.1121
  113OSM    H5S11667   2.646   2.313   6.838 -0.9814 -0.9380 -0.6338
  113OSM    C6S11668   2.597   2.284   6.622  0.2759 -0.5304  0.1215
  113OSM    H6S11669   2.555   2.386   6.603  0.3611  0.2280  3.4262
  113OSM    H6T11670   2.517   2.215   6.654 -1.7638  1.4878 -0.3497
  113OSM    C7S11671   2.661   2.236   6.490 -0.3093  0.3277  1.0112
  113OSM    H7S11672   2.713   2.139   6.507  0.9311 -0.4070 -4.7357
  113OSM    H7T11673   2.735   2.304   6.442  1.2035 -2.7367 -1.4362
  113OSM    C8S11674   2.555   2.226   6.381  0.0193 -0.4753  0.7913
  113OSM    H8S11675   2.488   2.314   6.372 -0.7673 -1.2649 -3.2504
  113OSM    H8T11676   2.488   2.146   6.420 -0.8891 -0.5445 -0.8054
  113OSM    C9S11677   2.619   2.176   6.247  0.5042 -0.5713 -0.1221
  113OSM    H9S11678   2.691   2.097   6.276  0.4215 -1.0072 -1.0794
  113OSM    H9T11679   2.681   2.260   6.209  0.8185 -0.5299  0.4608
  113OSM   C10S11680   2.506   2.128   6.149 -0.1233 -0.4449 -0.0035
  113OSM   H10S11681   2.439   2.216   6.133 -1.0466 -1.3022 -0.9446
  113OSM   H10T11682   2.439   2.051   6.193 -1.0322  0.8811  1.0458
  113OSM   C11S11683   2.575   2.090   6.018  0.0053 -0.7316 -0.0481
  113OSM   H11S11684   2.583   1.979   6.021 -2.5131 -0.9597  0.9174
  113OSM   H11T11685   2.679   2.129   6.013 -0.8249  1.6625  0.0928
  113OSM   C12S11686   2.502   2.136   5.892 -0.4396 -1.0148 -0.1441
  113OSM   H12S11687   2.502   2.246   5.911  0.5474 -1.0803  0.3126
  113OSM   H12T11688   2.403   2.088   5.896  1.1565 -4.7590 -1.3969
  113OSM   C13S11689   2.573   2.117   5.753 -0.3503  0.3183  0.1256
  113OSM   H13S11690   2.576   2.006   5.741 -0.0121  0.5751 -2.9824
  113OSM   H13T11691   2.677   2.155   5.760  0.4127 -1.5671 -0.4148
  113OSM   C14S11692   2.493   2.188   5.647 -0.2400 -0.5026 -0.1657
  113OSM   H14S11693   2.467   2.292   5.674 -2.2236 -0.0736 -3.2581
  113OSM   H14T11694   2.397   2.133   5.653 -0.0707 -0.7084  0.9049
  113OSM   C15S11695   2.548   2.201   5.505 -0.3115 -0.0262 -0.5263
  113OSM   H15S11696   2.563   2.099   5.463 -1.8054 -1.2262  1.6182
  113OSM   H15T11697   2.648   2.248   5.519 -1.8512  3.4322 -0.1562
  113OSM   C16S11698   2.456   2.284   5.411 -0.3093  0.8162 -0.6140
  113OSM   H16S11699   2.449   2.387   5.453  0.8972  0.3382  0.8474
  113OSM   H16T11700   2.356   2.236   5.419  0.1047  0.0405  0.1047
  113OSM   C17S11701   2.498   2.293   5.266  0.3123 -0.5215  0.1619
  113OSM   H17S11702   2.446   2.375   5.212  1.1945 -0.4100 -0.5281
  113OSM   H17T11703   2.467   2.195   5.224 -2.9353  0.0251  1.0118
  113OSM   C18S11704   2.651   2.311   5.250  0.0743  0.2637 -0.1160
  113OSM   H18S11705   2.686   2.413   5.277  2.0863  0.1245 -1.9406
  113OSM   H18T11706   2.673   2.295   5.143  1.8774 -0.2393  0.3028
  113OSM   H18U11707   2.706   2.238   5.313  1.6869  0.6056 -1.0744
  113OSM    C1F11708   3.219   2.279   6.730  0.6500  0.0852  0.0139
  113OSM     OF11709   3.269   2.232   6.835  0.0379 -0.0988 -0.0967
  113OSM    C2F11710   3.275   2.239   6.593 -1.0734 -0.3705 -0.2441
  113OSM    H2F11711   3.264   2.334   6.538 -3.1362  0.9187  2.1626
  113OSM    H2G11712   3.209   2.171   6.534  0.0675  1.1086 -3.4508
  113OSM    C3F11713   3.415   2.178   6.607  0.2633  0.7836  0.2270
  113OSM    H3F11714   3.419   2.094   6.680  3.4184  0.1831 -0.4603
  113OSM    H3G11715   3.490   2.253   6.640  0.9077  0.8965 -1.3829
  113OSM    C4F11716   3.454   2.126   6.474  0.4661 -0.0666  0.5939
  113OSM    H4F11717   3.487   2.206   6.405 -1.8454 -0.4897 -1.0848
  113OSM    H4G11718   3.374   2.061   6.433 -0.6796  0.8913  1.2475
  113OSM    C5F11719   3.569   2.025   6.489  0.4096 -0.1949  0.7983
  113OSM    H5F11720   3.517   1.931   6.518 -1.6769  0.7797  0.3661
  113OSM    H5G11721   3.633   2.060   6.573 -0.2939 -0.0438  1.2810
  113OSM    C6F11722   3.648   1.989   6.363  0.5863 -0.1933  0.1170
  113OSM    H6F11723   3.730   1.917   6.382  3.1396  2.1394 -1.3062
  113OSM    H6G11724   3.700   2.075   6.315  0.5144 -0.0413  0.3112
  113OSM    C7F11725   3.548   1.932   6.256  0.2283  0.1812  0.0393
  113OSM    H7F11726   3.486   2.017   6.221  1.5151  1.8800  1.7089
  113OSM    H7G11727   3.484   1.855   6.305  1.3998 -0.3625  0.7799
  113OSM    C8F11728   3.618   1.878   6.130  0.1956  0.0449 -0.0729
  113OSM    H8F11729   3.694   1.802   6.161  0.8845  0.1532 -1.4398
  113OSM    H8G11730   3.668   1.968   6.089 -1.0379  0.7478 -0.0692
  113OSM    C9F11731   3.508   1.822   6.041  0.2802  0.1595  0.5864
  113OSM    H9F11732   3.464   1.725   6.067 -0.5453 -0.0393 -1.3992
  113OSM   C10F11733   3.469   1.883   5.924  0.3711 -0.2611  0.0524
  113OSM   H10F11734   3.390   1.832   5.866  0.2997  0.2437 -0.2987
  113OSM   C11F11735   3.514   2.008   5.864 -0.1396  0.1409  0.1915
  113OSM   H11F11736   3.623   2.029   5.878  0.4194 -2.1420 -0.4572
  113OSM   H11G11737   3.458   2.088   5.918  0.2299  0.4911  0.0633
  113OSM   C12F11738   3.488   2.029   5.718  0.5338  0.3661  1.5057
  113OSM   H12F11739   3.522   2.127   5.679 -0.7459  0.5895  0.9156
  113OSM   H12G11740   3.377   2.028   5.712  0.5642 -0.1476  0.8891
  113OSM   C13F11741   3.561   1.921   5.631  0.1099 -0.7648 -0.0645
  113OSM   H13F11742   3.528   1.822   5.668 -1.6564  0.2589  1.2344
  113OSM   H13G11743   3.671   1.926   5.649  0.2983 -3.1598 -0.2420
  113OSM   C14F11744   3.537   1.939   5.479 -0.0716  0.9804 -0.2391
  113OSM   H14F11745   3.429   1.924   5.459  0.3524 -1.6742 -0.9897
  113OSM   H14G11746   3.594   1.855   5.434  1.7100  1.7870  0.4333
  113OSM   C15F11747   3.582   2.069   5.418 -1.3225 -0.7011 -0.7784
  113OSM   H15F11748   3.689   2.086   5.444 -1.4151 -0.0158 -0.8428
  113OSM   H15G11749   3.525   2.152   5.463 -0.7163 -1.0318  0.6756
  113OSM   C16F11750   3.575   2.072   5.262 -0.4216  0.9203 -0.5248
  113OSM   H16F11751   3.543   1.972   5.227  4.7005 -1.4538  0.5347
  113OSM   H16G11752   3.679   2.085   5.224 -0.7780  1.1130 -1.4524
  113OSM   C17F11753   3.479   2.170   5.204  0.3249 -0.0807 -0.7191
  113OSM   H17F11754   3.507   2.274   5.230  0.5545  0.2064 -2.0601
  113OSM   H17G11755   3.381   2.147   5.250  1.0214 -0.9612  0.4230
  113OSM   C18F11756   3.466   2.159   5.058  0.5201  0.5860  0.4751
  113OSM   H18F11757   3.421   2.067   5.015  0.0179  2.0875 -2.5074
  113OSM   H18G11758   3.568   2.169   5.016 -0.1369 -2.7477 -2.3825
  113OSM   H18H11759   3.401   2.233   5.006  1.3566  0.3264 -0.9674
  114OSM      N11760   2.508   5.704   7.769 -0.0607  0.0621 -0.0571
  114OSM    C1511761   2.479   5.842   7.801 -0.1466  0.8430 -0.5421
  114OSM   H15A11762   2.567   5.905   7.797 -1.5033  2.9787  0.9886
  114OSM   H15B11763   2.429   5.855   7.896  1.5624  0.3965  0.4785
  114OSM   H15C11764   2.423   5.884   7.719  1.6235  3.7106 -0.4193
  114OSM    C1411765   2.599   5.651   7.874 -0.1606  0.3570  0.3545
  114OSM   H14A11766   2.609   5.544   7.862 -0.5921  0.5149 -2.1376
  114OSM   H14B11767   2.556   5.678   7.969  0.3930  0.3855  0.5989
  114OSM   H14C11768   2.696   5.699   7.865 -0.1811  0.2069 -0.9366
  114OSM    C1311769   2.381   5.620   7.780 -0.0924  0.3732 -0.2021
  114OSM   H13A11770   2.299   5.665   7.724  0.2204  1.7743  0.4386
  114OSM   H13B11771   2.362   5.601   7.884  1.1459  1.9207  0.3333
  114OSM   H13C11772   2.391   5.522   7.735 -2.5328  1.0945 -2.6407
  114OSM    C1211773   2.561   5.701   7.627  0.1667  0.3168 -0.3220
  114OSM   H12A11774   2.514   5.779   7.568 -0.0664  1.9392  1.8750
  114OSM   H12B11775   2.550   5.601   7.588  0.7061  0.5751 -1.1816
  114OSM    C1111776   2.720   5.722   7.611  0.3651 -0.0366 -0.0528
  114OSM   H11A11777   2.745   5.718   7.503  1.1601 -1.3594  0.1458
  114OSM   H11B11778   2.768   5.633   7.657  0.7358 -0.0617 -0.4771
  114OSM      P11779   2.916   5.875   7.685 -0.2842  0.2170 -0.2133
  114OSM    O1311780   2.940   6.002   7.760 -0.3556  0.7425 -0.4063
  114OSM    O1411781   2.984   5.751   7.730 -0.0133  0.4538 -0.2759
  114OSM    O1111782   2.951   5.897   7.531 -0.0557  0.1051  0.1588
  114OSM    O1211783   2.766   5.843   7.672 -0.2598 -0.0391 -0.1769
  114OSM    C1S11784   3.049   5.822   7.461 -0.3982  0.1989  0.9386
  114OSM    H1S11785   3.029   5.713   7.457  4.1796 -0.8440  0.6691
  114OSM    H1T11786   3.151   5.824   7.505  1.0521 -1.1146 -2.0676
  114OSM     NF11787   3.149   5.800   7.232 -0.1848 -0.1893  0.4819
  114OSM    HNF11788   3.240   5.831   7.204 -0.3237 -0.6713 -0.5424
  114OSM    C2S11789   3.072   5.884   7.315 -0.2938 -0.0824 -0.3283
  114OSM    H2S11790   2.966   5.884   7.280 -0.9332 -0.8906  1.4889
  114OSM    C3S11791   3.122   6.031   7.314 -0.1732 -1.0575  0.3312
  114OSM    H3S11792   3.230   6.036   7.338 -0.6271 -0.6868  2.5923
  114OSM     O311793   3.066   6.124   7.411 -0.3396  0.5311 -0.1242
  114OSM    HO311794   3.005   6.067   7.459 -1.2758  0.8279 -0.9328
  114OSM    C4S11795   3.104   6.082   7.177 -0.2898  0.3756 -0.2801
  114OSM    H4S11796   3.193   6.054   7.119 -1.3065 -1.3349 -1.1192
  114OSM    C5S11797   2.991   6.134   7.129 -0.1593 -0.5100  0.1203
  114OSM    H5S11798   2.913   6.176   7.194  1.0314  1.7935  0.1963
  114OSM    C6S11799   2.968   6.181   6.983  0.4242 -0.2321 -0.3165
  114OSM    H6S11800   2.892   6.261   6.977 -0.8919 -1.2739  1.4391
  114OSM    H6T11801   2.935   6.091   6.927  1.4483 -0.4438 -0.6167
  114OSM    C7S11802   3.087   6.231   6.895 -0.1490 -0.2714 -0.1567
  114OSM    H7S11803   3.169   6.156   6.901 -0.7669 -1.2070 -2.2288
  114OSM    H7T11804   3.118   6.331   6.931 -0.5532  0.1617 -0.9893
  114OSM    C8S11805   3.061   6.239   6.747  0.7707  0.0420  0.4448
  114OSM    H8S11806   3.023   6.146   6.700 -2.4804  2.3693 -1.9911
  114OSM    H8T11807   3.149   6.274   6.690  1.0116 -0.3299  0.5841
  114OSM    C9S11808   2.944   6.333   6.711 -0.1629  0.3010 -0.3563
  114OSM    H9S11809   2.960   6.427   6.768  1.7923  0.8224 -1.6566
  114OSM    H9T11810   2.850   6.285   6.745  0.1911 -0.0788  0.1016
  114OSM   C10S11811   2.932   6.375   6.567 -0.2710  0.3061  0.4891
  114OSM   H10S11812   3.030   6.418   6.538  0.0633 -0.3124  0.6847
  114OSM   H10T11813   2.851   6.448   6.548 -0.3038  0.1972  0.2196
  114OSM   C11S11814   2.910   6.251   6.472  0.3182  0.7776 -0.0464
  114OSM   H11S11815   2.837   6.186   6.526  1.1989 -0.0537  0.1796
  114OSM   H11T11816   3.003   6.190   6.477 -0.0442  0.2679  0.6561
  114OSM   C12S11817   2.872   6.268   6.325 -0.4195 -0.2710  0.1649
  114OSM   H12S11818   2.780   6.331   6.321  1.2217  2.2354 -0.5478
  114OSM   H12T11819   2.860   6.176   6.264  0.4010 -0.7232  0.6658
  114OSM   C13S11820   2.978   6.356   6.261  0.3713  0.0744  0.2589
  114OSM   H13S11821   2.996   6.451   6.317  0.4039 -0.2799  0.8619
  114OSM   H13T11822   2.941   6.389   6.162  0.1451 -1.1849 -0.0945
  114OSM   C14S11823   3.115   6.291   6.240 -0.6877 -0.0883  0.4124
  114OSM   H14S11824   3.138   6.263   6.345 -2.2562 -0.2403  0.7439
  114OSM   H14T11825   3.184   6.367   6.198 -0.4060 -0.9597 -0.7454
  114OSM   C15S11826   3.111   6.156   6.154 -0.2026 -0.1498  0.0246
  114OSM   H15S11827   3.063   6.182   6.057  2.2380  1.0598 -0.9367
  114OSM   H15T11828   3.045   6.086   6.209  0.8532 -1.2173 -0.0478
  114OSM   C16S11829   3.252   6.101   6.139 -0.7762  0.0584  0.7417
  114OSM   H16S11830   3.320   6.189   6.135  0.7798 -1.0950  0.8586
  114OSM   H16T11831   3.262   6.043   6.045 -0.3822 -1.2066  1.5349
  114OSM   C17S11832   3.311   6.012   6.240 -0.2130  0.3297 -0.1580
  114OSM   H17S11833   3.303   6.051   6.344  1.2253  0.9468 -0.2581
  114OSM   H17T11834   3.419   6.004   6.220  0.0429 -0.8985  1.5005
  114OSM   C18S11835   3.247   5.876   6.236 -0.2574 -0.2778 -1.0405
  114OSM   H18S11836   3.142   5.868   6.272 -0.0919 -0.2753 -0.5438
  114OSM   H18T11837   3.309   5.827   6.315 -2.3142  0.7300  1.3322
  114OSM   H18U11838   3.254   5.825   6.137 -0.4160 -0.1649 -1.1103
  114OSM    C1F11839   3.100   5.680   7.187 -0.4966 -0.3319  0.2519
  114OSM     OF11840   2.982   5.656   7.195 -0.4990 -0.3778 -0.1886
  114OSM    C2F11841   3.189   5.583   7.115  0.1971 -0.2062 -0.2074
  114OSM    H2F11842   3.134   5.487   7.124  0.0742 -0.0999  0.2017
  114OSM    H2G11843   3.288   5.583   7.166  0.4886 -0.2040 -0.7565
  114OSM    C3F11844   3.224   5.630   6.970 -0.4425  0.1285 -0.1013
  114OSM    H3F11845   3.301   5.566   6.923 -0.5258 -0.6597  0.8189
  114OSM    H3G11846   3.268   5.732   6.961 -2.6879  1.2595  0.7951
  114OSM    C4F11847   3.103   5.623   6.880  0.0450  0.1052 -0.0660
  114OSM    H4F11848   3.036   5.707   6.908  1.8975  2.6858 -2.8852
  114OSM    H4G11849   3.050   5.526   6.893  1.5201 -0.6853  0.2371
  114OSM    C5F11850   3.119   5.655   6.729  0.3672 -0.5536 -0.0911
  114OSM    H5F11851   3.179   5.583   6.670  1.1432  0.1921 -0.2400
  114OSM    H5G11852   3.175   5.750   6.716 -1.3767  0.3124 -1.8480
  114OSM    C6F11853   2.989   5.661   6.644  0.7315 -0.5637 -1.0571
  114OSM    H6F11854   2.898   5.653   6.708  0.6722 -2.7227 -1.3326
  114OSM    H6G11855   2.985   5.564   6.591 -0.2193 -2.0931  1.6221
  114OSM    C7F11856   2.989   5.779   6.539 -0.1736  0.6976 -0.4146
  114OSM    H7F11857   3.068   5.760   6.463  1.3906  2.1451  0.7452
  114OSM    H7G11858   3.008   5.866   6.606  0.7736  0.4745 -0.3796
  114OSM    C8F11859   2.849   5.791   6.476 -0.0412  0.1990  0.0166
  114OSM    H8F11860   2.772   5.830   6.546 -1.9726 -0.4034 -1.6648
  114OSM    H8G11861   2.806   5.692   6.446 -0.7741  0.6269 -0.3725
  114OSM    C9F11862   2.859   5.875   6.353  0.1791  0.1645  0.8077
  114OSM    H9F11863   2.861   5.984   6.369 -1.7962  0.6127 -1.4368
  114OSM   C10F11864   2.853   5.840   6.221  0.2365  0.4378  0.1802
  114OSM   H10F11865   2.864   5.923   6.150 -1.1524  1.6137  1.2624
  114OSM   C11F11866   2.846   5.699   6.158 -0.5624  0.3617  0.0580
  114OSM   H11F11867   2.748   5.675   6.112 -0.2869  1.4964 -1.1761
  114OSM   H11G11868   2.876   5.625   6.235  2.0355  1.4786  0.2326
  114OSM   C12F11869   2.960   5.684   6.058 -0.2283  0.3607 -0.4879
  114OSM   H12F11870   2.960   5.574   6.038  0.5099 -0.3117  2.6300
  114OSM   H12G11871   3.055   5.710   6.108  0.6648 -2.2788 -0.6587
  114OSM   C13F11872   2.936   5.762   5.929  0.6229 -0.0851  1.0543
  114OSM   H13F11873   2.865   5.845   5.948  1.3591  0.8021  0.0618
  114OSM   H13G11874   2.886   5.700   5.851  1.2155 -0.1360  0.7123
  114OSM   C14F11875   3.068   5.817   5.872 -0.0677 -0.7306  0.5315
  114OSM   H14F11876   3.124   5.727   5.839  0.5065 -0.0353 -0.4829
  114OSM   H14G11877   3.118   5.886   5.944 -0.9767  0.0094  0.4707
  114OSM   C15F11878   3.064   5.915   5.746  0.1153  0.3130  0.2886
  114OSM   H15F11879   2.991   5.998   5.758 -1.5588 -0.9639 -0.5570
  114OSM   H15G11880   3.025   5.855   5.660 -1.0384 -0.5266  1.3581
  114OSM   C16F11881   3.193   6.000   5.732 -0.5394  0.2869  0.8154
  114OSM   H16F11882   3.278   5.935   5.699  0.3679  1.7941  0.0582
  114OSM   H16G11883   3.227   6.047   5.827  2.6984  0.8034 -0.4691
  114OSM   C17F11884   3.170   6.109   5.627 -0.0572  0.2900  0.0321
  114OSM   H17F11885   3.102   6.186   5.668  2.5291  2.0057  1.3220
  114OSM   H17G11886   3.126   6.077   5.530 -0.8595  1.6491 -0.0699
  114OSM   C18F11887   3.308   6.176   5.595  0.2417  0.0766  0.1599
  114OSM   H18F11888   3.369   6.176   5.688 -0.6969  1.0320  0.8051
  114OSM   H18G11889   3.307   6.268   5.533  0.1347  0.3316  0.5320
  114OSM   H18H11890   3.365   6.114   5.523  0.9854 -0.5604  1.2699
  115OSM      N11891   0.693   2.993   7.537 -0.3387  0.2280 -0.3236
  115OSM    C1511892   0.606   3.094   7.471 -0.2047 -0.3115 -0.2726
  115OSM   H15A11893   0.502   3.068   7.473  0.6538 -4.5379 -1.1879
  115OSM   H15B11894   0.625   3.089   7.365  1.1012 -1.4843 -0.0154
  115OSM   H15C11895   0.643   3.193   7.494  3.7380 -1.2624 -1.6636
  115OSM    C1411896   0.664   3.004   7.683 -0.7420 -0.2083  0.1493
  115OSM   H14A11897   0.666   3.109   7.711 -0.7635  0.3506 -1.8236
  115OSM   H14B11898   0.732   2.941   7.739  1.2075 -0.9651 -2.8300
  115OSM   H14C11899   0.564   2.971   7.702 -1.5427  0.9083 -1.8152
  115OSM    C1311900   0.648   2.851   7.507  0.0625  0.4736 -0.3500
  115OSM   H13A11901   0.663   2.838   7.401  0.5232 -0.4041 -0.1848
  115OSM   H13B11902   0.549   2.818   7.537 -0.3794  0.8713 -1.3357
  115OSM   H13C11903   0.710   2.775   7.553 -0.5607 -1.4702 -2.5355
  115OSM    C1211904   0.839   3.018   7.501 -0.5468  0.6061 -0.6313
  115OSM   H12A11905   0.858   3.116   7.543 -0.8739  0.1343  0.6753
  115OSM   H12B11906   0.864   3.010   7.396  1.9310  0.6765 -0.1100
  115OSM    C1111907   0.943   2.925   7.569  0.2149  0.1644  0.0048
  115OSM   H11A11908   0.952   2.952   7.676  0.7005  0.2279 -0.0479
  115OSM   H11B11909   1.045   2.952   7.533  0.3618  0.4220  0.6048
  115OSM      P11910   1.015   2.690   7.474 -0.0840  0.4846 -0.1750
  115OSM    O1311911   1.124   2.638   7.561  0.0866 -0.1559 -0.0792
  115OSM    O1411912   0.939   2.593   7.394 -0.0326 -0.0018  0.7944
  115OSM    O1111913   1.093   2.796   7.373 -0.3954 -0.1344  0.7417
  115OSM    O1211914   0.919   2.785   7.560 -0.3243  0.0941 -0.0395
  115OSM    C1S11915   1.148   2.751   7.249  0.6929 -0.3746 -0.1964
  115OSM    H1S11916   1.162   2.641   7.247  0.3146 -0.4182 -0.5457
  115OSM    H1T11917   1.245   2.802   7.233 -0.4006  1.1273 -2.5898
  115OSM     NF11918   1.116   2.740   7.003 -1.0371 -0.2110  0.3540
  115OSM    HNF11919   1.165   2.794   6.935  1.2241 -0.5594  1.5899
  115OSM    C2S11920   1.066   2.802   7.124 -0.1655 -0.3157 -0.5541
  115OSM    H2S11921   0.964   2.766   7.146 -0.9050  1.1016 -1.5046
  115OSM    C3S11922   1.056   2.955   7.120  1.3337  0.8830  0.4970
  115OSM    H3S11923   1.161   2.991   7.109  2.5592 -2.3399  0.4380
  115OSM     O311924   1.005   3.013   7.236 -0.4887 -0.3039 -0.0623
  115OSM    HO311925   1.040   2.946   7.295  2.4628  0.4345 -0.7899
  115OSM    C4S11926   0.967   2.991   7.004  0.0592 -0.6828  0.5769
  115OSM    H4S11927   0.858   2.990   7.020  0.2678 -2.4545  2.4221
  115OSM    C5S11928   1.020   3.064   6.901 -0.2498  0.5427 -0.0491
  115OSM    H5S11929   1.124   3.099   6.913 -0.0936  0.9801 -2.3294
  115OSM    C6S11930   0.947   3.121   6.786  0.9071  0.2125 -0.5996
  115OSM    H6S11931   0.904   3.221   6.809 -0.8142 -0.4636 -0.6742
  115OSM    H6T11932   0.853   3.063   6.776  1.3006 -0.8619  1.3898
  115OSM    C7S11933   1.023   3.108   6.660  0.4547  0.2798  0.4120
  115OSM    H7S11934   1.057   3.003   6.649  2.2995  1.0522 -1.9691
  115OSM    H7T11935   1.111   3.174   6.676  0.4493 -0.3132  3.5076
  115OSM    C8S11936   0.949   3.147   6.534 -0.0647 -0.5079  0.1047
  115OSM    H8S11937   0.929   3.256   6.544  0.3875 -0.4794  0.8049
  115OSM    H8T11938   0.859   3.083   6.543  0.9338 -1.8349  1.0424
  115OSM    C9S11939   1.022   3.126   6.395  0.2981  0.4140  0.6309
  115OSM    H9S11940   1.108   3.195   6.383  0.7068 -0.4500 -1.8520
  115OSM    H9T11941   0.949   3.148   6.315  0.6229 -0.7472 -0.0079
  115OSM   C10S11942   1.077   2.984   6.369  0.1407 -0.3684 -0.0509
  115OSM   H10S11943   0.989   2.916   6.375  0.8178 -1.1905  1.0821
  115OSM   H10T11944   1.154   2.947   6.441  0.7250  1.5402  0.3579
  115OSM   C11S11945   1.122   2.964   6.221  0.2458  0.5436  0.6958
  115OSM   H11S11946   1.145   2.856   6.212  3.5922  1.1850  0.2347
  115OSM   H11T11947   1.220   3.015   6.217 -0.6383  2.3475  0.9497
  115OSM   C12S11948   1.024   3.017   6.112 -0.1676  0.9879 -0.2789
  115OSM   H12S11949   1.007   3.124   6.134  2.4477  1.3385  0.3441
  115OSM   H12T11950   0.928   2.967   6.138 -0.2744  1.4242  0.1694
  115OSM   C13S11951   1.074   2.989   5.978  0.5151 -0.1988  0.0509
  115OSM   H13S11952   1.113   2.886   5.964  2.3392  0.3272  0.9609
  115OSM   H13T11953   1.159   3.061   5.975 -0.4657  0.9759 -0.1867
  115OSM   C14S11954   0.968   3.017   5.871  0.5947  0.0338 -0.6315
  115OSM   H14S11955   0.914   3.114   5.881 -0.0647  0.0794 -3.6329
  115OSM   H14T11956   0.884   2.946   5.887 -1.2748  2.0318 -1.1423
  115OSM   C15S11957   1.018   2.998   5.728  0.2152 -0.2851  0.2380
  115OSM   H15S11958   0.925   3.006   5.668  0.4455  1.1589  0.0181
  115OSM   H15T11959   1.068   2.900   5.713  2.2947  0.9906 -1.8929
  115OSM   C16S11960   1.129   3.095   5.675 -0.6218  0.6301  0.1055
  115OSM   H16S11961   1.225   3.092   5.730 -1.3901  0.1368  1.4908
  115OSM   H16T11962   1.089   3.198   5.689  0.9221  1.9910 -4.0961
  115OSM   C17S11963   1.156   3.080   5.523 -0.6096  0.5588 -0.2799
  115OSM   H17S11964   1.256   3.121   5.499 -1.0402  1.5125 -0.4708
  115OSM   H17T11965   1.089   3.155   5.476  0.0147  0.8852 -0.6682
  115OSM   C18S11966   1.149   2.949   5.442  0.9183 -0.1240 -0.2297
  115OSM   H18S11967   1.240   2.886   5.455  1.6087  0.9060  0.0108
  115OSM   H18T11968   1.140   2.958   5.332 -0.1550 -0.0565 -0.1449
  115OSM   H18U11969   1.056   2.895   5.471  0.3107  0.1669 -1.5884
  115OSM    C1F11970   1.100   2.613   6.979  0.6128 -0.0187  0.0691
  115OSM     OF11971   1.027   2.551   7.058 -0.1537 -0.1158 -0.5944
  115OSM    C2F11972   1.184   2.546   6.870  0.2039  0.7897 -0.0928
  115OSM    H2F11973   1.277   2.507   6.918  0.8056  1.2834 -0.8413
  115OSM    H2G11974   1.218   2.612   6.787 -1.5843  1.5502 -0.2688
  115OSM    C3F11975   1.116   2.423   6.806 -0.0111 -0.7676 -0.6960
  115OSM    H3F11976   1.058   2.362   6.878  4.1515 -1.2294  2.6706
  115OSM    H3G11977   1.204   2.364   6.773 -0.3915 -2.9399  1.9019
  115OSM    C4F11978   1.041   2.451   6.679  0.4852  0.3636 -0.3753
  115OSM    H4F11979   1.118   2.501   6.617  1.1628 -1.8050 -1.3425
  115OSM    H4G11980   0.963   2.526   6.706  0.6009  1.0733 -1.9257
  115OSM    C5F11981   0.974   2.337   6.605  0.2306  0.4525  0.2072
  115OSM    H5F11982   0.908   2.377   6.526 -0.7620  1.4246  1.4801
  115OSM    H5G11983   0.904   2.281   6.670 -1.0729 -0.3272 -1.7826
  115OSM    C6F11984   1.070   2.224   6.554  0.4160 -0.0439 -0.3231
  115OSM    H6F11985   1.011   2.134   6.529  0.5630 -0.5675  1.1377
  115OSM    H6G11986   1.141   2.205   6.638  0.7008  0.8814 -0.3329
  115OSM    C7F11987   1.176   2.265   6.451 -0.0602  0.5175 -1.1949
  115OSM    H7F11988   1.231   2.181   6.403  0.9603  0.7302 -0.4544
  115OSM    H7G11989   1.254   2.324   6.505 -0.9357 -0.8035  1.7184
  115OSM    C8F11990   1.121   2.347   6.337 -0.3492 -0.5068 -0.0253
  115OSM    H8F11991   1.205   2.385   6.277 -1.1049  0.9315 -0.2085
  115OSM    H8G11992   1.074   2.440   6.375  2.2839  0.9815 -0.2041
  115OSM    C9F11993   1.023   2.271   6.255 -0.4194 -0.3868 -0.1094
  115OSM    H9F11994   0.918   2.274   6.289 -0.3177  0.7767  0.1630
  115OSM   C10F11995   1.055   2.199   6.146  0.0153  0.2347 -0.9148
  115OSM   H10F11996   0.973   2.166   6.080 -1.1523  0.4423  0.3774
  115OSM   C11F11997   1.200   2.178   6.084 -0.1758 -0.3684 -0.6343
  115OSM   H11F11998   1.220   2.069   6.091 -0.3187 -0.2976  1.7275
  115OSM   H11G11999   1.264   2.250   6.140 -0.6814  1.9062 -2.7848
  115OSM   C12F12000   1.210   2.236   5.938  0.4320  0.1386 -0.1979
  115OSM   H12F12001   1.320   2.244   5.920  0.8486 -1.2848  1.4443
  115OSM   H12G12002   1.167   2.338   5.938 -1.0115 -0.4454  0.3931
  115OSM   C13F12003   1.149   2.150   5.838 -0.6691  0.5766  0.5759
  115OSM   H13F12004   1.059   2.095   5.874 -0.2764 -0.4226  0.0891
  115OSM   H13G12005   1.219   2.071   5.802 -2.8770 -0.2927 -2.2274
  115OSM   C14F12006   1.120   2.224   5.708 -0.2585 -0.6552  0.3274
  115OSM   H14F12007   1.215   2.281   5.699  0.7291 -1.8630  2.3539
  115OSM   H14G12008   1.041   2.300   5.726  0.3744 -0.3083  1.8644
  115OSM   C15F12009   1.086   2.125   5.599  0.1976  0.0928 -0.2857
  115OSM   H15F12010   1.030   2.182   5.522 -0.7757 -0.3704  0.0575
  115OSM   H15G12011   1.024   2.040   5.635  0.6519 -0.4327 -0.7153
  115OSM   C16F12012   1.207   2.058   5.533  0.3260  0.1019  0.1484
  115OSM   H16F12013   1.265   1.991   5.600  1.0673  0.6907  0.1089
  115OSM   H16G12014   1.274   2.141   5.501 -2.3306  1.6108 -1.9602
  115OSM   C17F12015   1.166   1.977   5.406  0.6976 -0.2859  0.1489
  115OSM   H17F12016   1.116   2.050   5.340 -2.0747 -0.6368  1.6937
  115OSM   H17G12017   1.087   1.905   5.438 -2.2408  1.9083 -1.7483
  115OSM   C18F12018   1.275   1.894   5.338  0.4111  0.1253 -0.0583
  115OSM   H18F12019   1.294   1.799   5.392 -1.4005 -1.0714 -1.4139
  115OSM   H18G12020   1.363   1.957   5.310  2.0910 -0.9990  2.3517
  115OSM   H18H12021   1.229   1.873   5.239 -0.3786 -1.2014  0.5661
  116OSM      N12022   2.948   0.546   8.132 -0.3151 -0.6240  0.3365
  116OSM    C1512023   3.065   0.578   8.227  0.2986 -0.8798  0.0729
  116OSM   H15A12024   3.089   0.487   8.279  1.6527 -0.4788  0.1705
  116OSM   H15B12025   3.020   0.644   8.300 -0.7942 -2.0590  0.5043
  116OSM   H15C12026   3.153   0.618   8.180 -0.5450  0.4597 -0.4389
  116OSM    C1412027   2.838   0.477   8.198 -0.1597 -0.1555 -0.0139
  116OSM   H14A12028   2.750   0.453   8.141 -1.6872  1.6679  1.4337
  116OSM   H14B12029   2.781   0.531   8.272 -1.3311 -1.1031 -0.1939
  116OSM   H14C12030   2.876   0.388   8.246  1.9234 -0.0493 -1.3397
  116OSM    C1312031   2.883   0.671   8.084  0.5900 -0.5618  0.6026
  116OSM   H13A12032   2.796   0.648   8.024 -1.0607  0.2120  2.5867
  116OSM   H13B12033   2.958   0.720   8.025 -0.0641 -0.7547 -0.4226
  116OSM   H13C12034   2.859   0.729   8.172  1.1247 -0.2596  0.5513
  116OSM    C1212035   3.003   0.463   8.020  0.8927 -0.3187  0.3732
  116OSM   H12A12036   2.925   0.427   7.955  1.3897 -1.2862  0.3061
  116OSM   H12B12037   3.051   0.375   8.059 -1.2085 -2.6379 -1.9270
  116OSM    C1112038   3.094   0.544   7.919 -0.7514 -0.1577 -0.4773
  116OSM   H11A12039   3.177   0.592   7.976 -1.6110  2.1305 -1.0490
  116OSM   H11B12040   3.050   0.625   7.858  1.8484 -0.2379 -2.6488
  116OSM      P12041   3.243   0.337   7.859  0.2686 -0.0522  0.3562
  116OSM    O1312042   3.385   0.382   7.867 -0.3797  0.2197 -0.2490
  116OSM    O1412043   3.191   0.247   7.967  0.1039  0.3318  0.0996
  116OSM    O1112044   3.233   0.266   7.723  0.4339  0.1016  0.0945
  116OSM    O1212045   3.138   0.446   7.828  0.0888  0.2993  0.0412
  116OSM    C1S12046   3.180   0.307   7.596 -0.1593 -0.3429 -0.1598
  116OSM    H1S12047   3.242   0.391   7.558  1.2626 -1.1210  0.3568
  116OSM    H1T12048   3.073   0.335   7.609 -0.1856 -1.1468  1.6649
  116OSM     NF12049   3.133   0.249   7.348 -0.7454 -0.0515  0.4636
  116OSM    HNF12050   3.049   0.217   7.304  1.2639 -2.9901 -1.5759
  116OSM    C2S12051   3.170   0.202   7.483 -0.7054  0.6248  0.3693
  116OSM    H2S12052   3.275   0.168   7.469 -0.3481  0.7808  2.3507
  116OSM    C3S12053   3.096   0.077   7.539  0.0175 -0.0228 -0.1823
  116OSM    H3S12054   2.991   0.104   7.564 -0.6421 -1.9265 -0.6954
  116OSM     O312055   3.151   0.022   7.661  0.0610  0.0992 -0.3833
  116OSM    HO312056   3.172   0.101   7.710 -2.9251 -0.1155  1.4576
  116OSM    C4S12057   3.092  -0.027   7.427 -0.3955 -0.4788 -0.0241
  116OSM    H4S12058   3.006  -0.014   7.360  1.2796  2.6819 -1.7801
  116OSM    C5S12059   3.176  -0.127   7.398 -0.8435  0.0870 -0.3979
  116OSM    H5S12060   3.265  -0.142   7.462 -1.1503 -1.3168 -0.2734
  116OSM    C6S12061   3.163  -0.226   7.289  0.4904 -0.2673  0.6512
  116OSM    H6S12062   3.153  -0.320   7.346 -1.0345 -1.5830 -1.6225
  116OSM    H6T12063   3.248  -0.254   7.223 -0.1176 -2.5843  0.7577
  116OSM    C7S12064   3.043  -0.217   7.183 -0.2051  0.1743 -0.6648
  116OSM    H7S12065   2.953  -0.191   7.242 -0.7885  0.6654 -1.7473
  116OSM    H7T12066   3.042  -0.315   7.131  0.0161 -0.2292  0.0726
  116OSM    C8S12067   3.046  -0.108   7.077 -0.4182  0.2969 -0.1554
  116OSM    H8S12068   3.131  -0.121   7.007 -0.4364  3.0517 -0.8051
  116OSM    H8T12069   3.055  -0.006   7.121 -1.2783  1.2401 -2.0425
  116OSM    C9S12070   2.914  -0.090   6.999 -0.3540  0.3861 -0.9391
  116OSM    H9S12071   2.847  -0.028   7.063  0.9353  0.4157  0.4269
  116OSM    H9T12072   2.882  -0.195   6.980 -1.3150  0.7127 -1.1957
  116OSM   C10S12073   2.938  -0.007   6.876  0.7447 -0.1842 -0.0936
  116OSM   H10S12074   2.991  -0.064   6.798  1.8689 -1.3854  1.4966
  116OSM   H10T12075   2.994   0.083   6.909  0.9006 -0.8610  1.5654
  116OSM   C11S12076   2.802   0.043   6.813 -0.6649  0.0235 -0.6868
  116OSM   H11S12077   2.746   0.099   6.891  2.6450  3.2598 -0.3702
  116OSM   H11T12078   2.733  -0.041   6.790 -1.7125  0.5366  0.4624
  116OSM   C12S12079   2.825   0.136   6.689 -0.2919 -0.0757 -1.1771
  116OSM   H12S12080   2.888   0.226   6.709  1.6964 -1.6196 -0.0490
  116OSM   H12T12081   2.734   0.188   6.654 -0.7117  0.5257  0.7278
  116OSM   C13S12082   2.882   0.052   6.572 -0.3692  0.8386  0.9965
  116OSM   H13S12083   2.882  -0.056   6.597 -0.4364  0.3655 -0.8855
  116OSM   H13T12084   2.990   0.071   6.551 -1.0054  1.6494 -1.9749
  116OSM   C14S12085   2.797   0.062   6.451 -0.1628  0.2270  0.5646
  116OSM   H14S12086   2.771   0.165   6.419 -1.5010 -0.1999  0.2156
  116OSM   H14T12087   2.710  -0.004   6.474 -1.1460  2.1571  2.8175
  116OSM   C15S12088   2.881   0.001   6.333 -0.0264 -0.5012 -0.4236
  116OSM   H15S12089   2.919  -0.097   6.369 -0.4542 -0.5287 -0.0377
  116OSM   H15T12090   2.959   0.079   6.324  0.5588 -0.5291  3.1503
  116OSM   C16S12091   2.792  -0.007   6.208  0.0134  0.0591  0.4714
  116OSM   H16S12092   2.732   0.087   6.200 -1.5023 -0.6112  2.8822
  116OSM   H16T12093   2.727  -0.096   6.221 -2.6840  1.5797 -1.5424
  116OSM   C17S12094   2.868  -0.029   6.078 -0.4206 -0.2837 -0.1746
  116OSM   H17S12095   2.955  -0.095   6.102 -1.2070 -2.4778 -2.8271
  116OSM   H17T12096   2.903   0.074   6.054 -3.7489  1.1040  0.3661
  116OSM   C18S12097   2.780  -0.085   5.968  0.3198  0.2807 -0.0390
  116OSM   H18S12098   2.701  -0.010   5.945 -0.8989 -0.7062  0.7957
  116OSM   H18T12099   2.730  -0.180   5.997 -1.3498  1.1596  0.0744
  116OSM   H18U12100   2.845  -0.107   5.881  0.0654 -0.4992 -0.0330
  116OSM    C1F12101   3.219   0.322   7.275 -0.1135  0.0415  0.6122
  116OSM     OF12102   3.329   0.348   7.319  0.0125  0.1314  0.2039
  116OSM    C2F12103   3.165   0.379   7.155  0.2248  0.5297 -0.2274
  116OSM    H2F12104   3.174   0.490   7.158 -3.5814  0.9815 -0.6822
  116OSM    H2G12105   3.056   0.359   7.151  0.0072  1.5776  0.1835
  116OSM    C3F12106   3.214   0.314   7.031 -0.9695 -0.6089 -0.5513
  116OSM    H3F12107   3.220   0.203   7.038  2.1073 -0.4680  0.7272
  116OSM    H3G12108   3.322   0.340   7.024 -0.6745 -1.8315 -0.8579
  116OSM    C4F12109   3.139   0.360   6.902 -0.0687  0.2694  0.3704
  116OSM    H4F12110   3.039   0.314   6.892 -0.0946  0.6092 -1.1456
  116OSM    H4G12111   3.196   0.317   6.817  0.2707 -1.7374  1.5564
  116OSM    C5F12112   3.151   0.511   6.885 -0.1228 -0.0533 -0.5099
  116OSM    H5F12113   3.256   0.544   6.896 -0.7228  1.3399  1.5704
  116OSM    H5G12114   3.092   0.557   6.967 -1.9134 -1.9572 -0.6393
  116OSM    C6F12115   3.097   0.559   6.748 -0.0543 -0.4979 -0.4705
  116OSM    H6F12116   3.083   0.669   6.740  0.4920 -0.5018 -1.7094
  116OSM    H6G12117   2.996   0.513   6.748 -0.2595 -0.0742  0.4467
  116OSM    C7F12118   3.191   0.515   6.628 -0.1683 -0.2456  0.1498
  116OSM    H7F12119   3.203   0.405   6.622  0.0479 -0.4535  3.2025
  116OSM    H7G12120   3.290   0.562   6.643  0.9034 -2.7757  1.6003
  116OSM    C8F12121   3.126   0.571   6.493 -0.4808 -0.6923  0.5074
  116OSM    H8F12122   3.204   0.599   6.419 -0.0347 -1.7068  0.5705
  116OSM    H8G12123   3.073   0.666   6.515  0.8853  0.2579 -0.1090
  116OSM    C9F12124   3.036   0.471   6.428 -0.4149  0.1254  0.0924
  116OSM    H9F12125   2.945   0.455   6.489  0.1837 -2.1624  0.4966
  116OSM   C10F12126   3.037   0.422   6.301 -0.1969 -0.1693 -0.3842
  116OSM   H10F12127   2.957   0.353   6.270  0.8552 -1.7785  0.3150
  116OSM   C11F12128   3.147   0.441   6.196  0.3156 -0.3556 -0.0803
  116OSM   H11F12129   3.153   0.350   6.132 -0.2356 -1.4443  1.3427
  116OSM   H11G12130   3.246   0.447   6.246  0.0490  2.0594  0.2638
  116OSM   C12F12131   3.114   0.558   6.110  0.8068 -0.6751 -0.0108
  116OSM   H12F12132   3.124   0.658   6.157 -2.7435 -0.7152  1.1194
  116OSM   H12G12133   3.013   0.559   6.064  0.4918  0.0987  0.6768
  116OSM   C13F12134   3.203   0.569   5.985  0.0737 -0.7696  0.7224
  116OSM   H13F12135   3.196   0.484   5.915  2.0384  0.3193 -0.8983
  116OSM   H13G12136   3.311   0.581   6.011  0.3172  0.6274 -0.7645
  116OSM   C14F12137   3.185   0.706   5.908 -0.1981  0.5069 -0.7748
  116OSM   H14F12138   3.198   0.783   5.986  0.6330 -0.9609  0.6050
  116OSM   H14G12139   3.082   0.712   5.867 -0.9348  2.7244  1.2120
  116OSM   C15F12140   3.276   0.729   5.793 -0.4668 -0.4273  0.3403
  116OSM   H15F12141   3.359   0.658   5.810 -0.2773  0.1130  1.7625
  116OSM   H15G12142   3.326   0.827   5.785  0.4825 -1.0233 -1.8223
  116OSM   C16F12143   3.205   0.699   5.663  0.5340 -0.3409 -0.4102
  116OSM   H16F12144   3.109   0.753   5.653 -0.7885 -1.8232  2.8779
  116OSM   H16G12145   3.171   0.594   5.674 -0.3119 -0.1242 -0.8316
  116OSM   C17F12146   3.299   0.716   5.549  0.2481  0.5600  0.3234
  116OSM   H17F12147   3.379   0.639   5.554  1.1909  1.4153 -0.8079
  116OSM   H17G12148   3.346   0.817   5.541 -0.0110  0.5867 -1.4179
  116OSM   C18F12149   3.233   0.695   5.416 -0.7697 -0.1111  0.0132
  116OSM   H18F12150   3.154   0.769   5.390 -0.8791 -0.5295 -0.8813
  116OSM   H18G12151   3.183   0.595   5.416 -3.2124  0.9347  3.5372
  116OSM   H18H12152   3.297   0.713   5.327 -0.3933  1.7499  0.6278
  117OSM      N12153   1.709   2.832   7.499 -0.1085  0.4879 -0.2515
  117OSM    C1512154   1.662   2.968   7.545  0.2472  0.7115  0.2634
  117OSM   H15A12155   1.559   2.984   7.572  0.7309  2.5210  1.2926
  117OSM   H15B12156   1.687   3.042   7.470 -0.7778  0.2181 -0.5795
  117OSM   H15C12157   1.711   3.004   7.634  0.2965  0.3074  0.3999
  117OSM    C1412158   1.857   2.828   7.493  0.0024 -0.0792  0.2601
  117OSM   H14A12159   1.892   2.916   7.443 -1.5132 -0.2118 -1.0890
  117OSM   H14B12160   1.881   2.742   7.433 -2.6465 -1.6115  1.2010
  117OSM   H14C12161   1.899   2.821   7.592  0.0847  0.3318  0.2529
  117OSM    C1312162   1.663   2.725   7.589  0.4678 -0.3812 -0.5363
  117OSM   H13A12163   1.696   2.626   7.564  0.2333 -0.8810  1.0585
  117OSM   H13B12164   1.557   2.742   7.601  0.7568  2.0758 -0.7845
  117OSM   H13C12165   1.714   2.748   7.682  0.1441  0.9987 -0.6781
  117OSM    C1212166   1.657   2.808   7.358 -0.1666 -0.4147  0.3319
  117OSM   H12A12167   1.550   2.790   7.354  0.1155 -2.0343 -2.0223
  117OSM   H12B12168   1.702   2.712   7.336 -2.6391 -2.1384  2.2344
  117OSM    C1112169   1.688   2.920   7.253  0.5909 -0.5115 -0.1194
  117OSM   H11A12170   1.657   2.884   7.153  0.8532  0.9155 -0.7371
  117OSM   H11B12171   1.799   2.929   7.245  0.5932 -0.0327  0.4142
  117OSM      P12172   1.485   3.085   7.230  0.0217  0.2564 -0.0454
  117OSM    O1312173   1.433   2.969   7.153 -0.5553 -0.2618 -0.3399
  117OSM    O1412174   1.395   3.152   7.333  0.7450 -0.9199  0.1516
  117OSM    O1112175   1.522   3.192   7.133 -0.1920 -0.3031 -0.0412
  117OSM    O1212176   1.627   3.048   7.285  0.3254  0.2820 -0.2404
  117OSM    C1S12177   1.627   3.187   7.030  0.5662  0.4182  0.0464
  117OSM    H1S12178   1.703   3.108   7.049 -1.9108 -2.4958 -1.3282
  117OSM    H1T12179   1.677   3.286   7.018 -2.0326  1.8892  0.6888
  117OSM     NF12180   1.676   3.197   6.791  0.0470  0.0021  0.4339
  117OSM    HNF12181   1.679   3.284   6.742 -1.8045 -1.7129 -3.1602
  117OSM    C2S12182   1.568   3.175   6.890  0.2154 -0.0149  0.0338
  117OSM    H2S12183   1.540   3.068   6.886 -0.6240  0.1604  0.7740
  117OSM    C3S12184   1.440   3.268   6.860 -0.3565 -0.0909  0.0762
  117OSM    H3S12185   1.479   3.372   6.862  0.1377 -0.2373 -0.9463
  117OSM     O312186   1.339   3.253   6.957  0.2928 -0.3110 -0.6569
  117OSM    HO312187   1.381   3.189   7.016  0.5568 -0.8140 -1.3716
  117OSM    C4S12188   1.389   3.234   6.725 -0.0686 -0.4794 -0.3893
  117OSM    H4S12189   1.335   3.139   6.711  3.6738 -2.7178 -1.1763
  117OSM    C5S12190   1.392   3.330   6.630  0.3656  0.9850  0.7070
  117OSM    H5S12191   1.440   3.424   6.662  2.0953  0.3162  0.1793
  117OSM    C6S12192   1.324   3.329   6.495  0.5571 -0.2578 -0.0289
  117OSM    H6S12193   1.227   3.382   6.502  0.0404 -1.0987 -0.7271
  117OSM    H6T12194   1.294   3.229   6.458 -3.7422  0.0820  1.9527
  117OSM    C7S12195   1.393   3.395   6.381 -0.8994  0.0610 -0.2082
  117OSM    H7S12196   1.463   3.478   6.407 -0.4305  0.0153 -1.2757
  117OSM    H7T12197   1.323   3.434   6.304  0.4967 -3.7320 -3.8109
  117OSM    C8S12198   1.456   3.292   6.288  0.3088 -0.2490 -0.3287
  117OSM    H8S12199   1.390   3.207   6.263 -1.0887  1.0798 -1.3208
  117OSM    H8T12200   1.539   3.248   6.348  1.1897  0.8014 -0.7554
  117OSM    C9S12201   1.505   3.353   6.158 -0.1012  0.1464  0.0219
  117OSM    H9S12202   1.584   3.430   6.164 -1.9807  2.0420  2.7669
  117OSM    H9T12203   1.428   3.419   6.114  1.1340  0.1259 -2.3137
  117OSM   C10S12204   1.536   3.251   6.054  0.1977 -0.6035  0.5046
  117OSM   H10S12205   1.446   3.193   6.024 -0.0014  0.3662 -0.8393
  117OSM   H10T12206   1.607   3.180   6.101  0.3784 -0.1103  0.9783
  117OSM   C11S12207   1.602   3.296   5.924  0.0236  0.0267  0.4922
  117OSM   H11S12208   1.688   3.232   5.895 -2.5370 -2.6066 -1.8332
  117OSM   H11T12209   1.642   3.398   5.945  3.2937 -0.7278 -1.3442
  117OSM   C12S12210   1.511   3.286   5.801  0.4840  0.4226 -0.0742
  117OSM   H12S12211   1.404   3.313   5.815  0.6681  0.6917  0.8967
  117OSM   H12T12212   1.499   3.178   5.779  0.1420  0.0492  1.7819
  117OSM   C13S12213   1.551   3.362   5.670  0.4159  0.0611  0.5114
  117OSM   H13S12214   1.466   3.360   5.599  0.6250 -2.2442  0.2314
  117OSM   H13T12215   1.629   3.307   5.614 -0.6359 -0.6825 -0.2765
  117OSM   C14S12216   1.606   3.503   5.683  0.5222  0.6456 -0.4024
  117OSM   H14S12217   1.677   3.523   5.766  0.7081  1.8826 -0.8331
  117OSM   H14T12218   1.519   3.571   5.699 -0.6710 -1.0530  0.6995
  117OSM   C15S12219   1.667   3.548   5.548 -0.4434  0.4669 -0.0785
  117OSM   H15S12220   1.747   3.481   5.509  1.0942  0.9039  2.1173
  117OSM   H15T12221   1.706   3.651   5.560 -1.4022  0.9770 -1.1849
  117OSM   C16S12222   1.563   3.559   5.432  0.2248 -0.3394 -0.6584
  117OSM   H16S12223   1.491   3.638   5.462  2.4550  1.0310  1.4304
  117OSM   H16T12224   1.509   3.463   5.424 -1.0225  0.2365  0.3700
  117OSM   C17S12225   1.631   3.609   5.301 -0.1298  0.3043  0.6509
  117OSM   H17S12226   1.706   3.534   5.269 -1.5300 -1.2718  0.9170
  117OSM   H17T12227   1.690   3.700   5.325  0.3842 -0.1915  1.2966
  117OSM   C18S12228   1.547   3.624   5.176 -0.5354 -0.0556 -0.3447
  117OSM   H18S12229   1.612   3.648   5.089 -0.3630  2.0612  0.3079
  117OSM   H18T12230   1.463   3.698   5.180 -1.9718 -1.6547  0.3854
  117OSM   H18U12231   1.489   3.535   5.143  0.8412 -0.2064 -2.5784
  117OSM    C1F12232   1.766   3.105   6.764 -0.3785  0.0011  0.0309
  117OSM     OF12233   1.767   2.993   6.815 -0.5026 -0.6001 -0.2246
  117OSM    C2F12234   1.876   3.138   6.673  0.1004  0.0962  0.5982
  117OSM    H2F12235   1.971   3.087   6.699 -0.6541 -0.8083  1.6598
  117OSM    H2G12236   1.880   3.249   6.677  0.8050  0.1294 -0.6183
  117OSM    C3F12237   1.837   3.092   6.533  0.0304  0.2458  0.0779
  117OSM    H3F12238   1.753   3.157   6.498  1.0580 -0.2438 -3.7869
  117OSM    H3G12239   1.807   2.985   6.528  0.4932  0.1247 -0.0938
  117OSM    C4F12240   1.945   3.125   6.425  0.9151 -0.0613 -0.3301
  117OSM    H4F12241   2.040   3.068   6.431  0.4875 -0.6655  1.1327
  117OSM    H4G12242   1.969   3.231   6.448 -0.8037 -0.2106  2.5763
  117OSM    C5F12243   1.885   3.120   6.291 -0.2410 -0.1794 -0.5214
  117OSM    H5F12244   1.811   3.202   6.280 -2.4310 -2.2153 -1.7385
  117OSM    H5G12245   1.826   3.028   6.276  0.6828 -1.0061  0.6908
  117OSM    C6F12246   1.986   3.127   6.181  0.1007  0.0362  0.1561
  117OSM    H6F12247   2.037   3.031   6.161 -0.5122 -0.2124 -0.2395
  117OSM    H6G12248   2.056   3.203   6.220 -0.4044 -0.5180  2.2622
  117OSM    C7F12249   1.906   3.169   6.056 -0.0550  0.2277  0.6548
  117OSM    H7F12250   1.877   3.275   6.075  1.3557  0.4548  1.6914
  117OSM    H7G12251   1.826   3.095   6.034  0.0999 -0.1688  1.4214
  117OSM    C8F12252   2.005   3.179   5.940  0.1031 -0.6805  0.5860
  117OSM    H8F12253   2.102   3.221   5.975  1.5984 -3.3828 -0.0717
  117OSM    H8G12254   1.966   3.258   5.871 -1.4771  0.2663  2.4427
  117OSM    C9F12255   2.039   3.054   5.865 -0.0783 -0.2142 -0.1715
  117OSM    H9F12256   2.081   2.972   5.925  1.3682  1.9480  1.9750
  117OSM   C10F12257   2.020   3.015   5.744  0.2473 -0.4073  0.1020
  117OSM   H10F12258   2.061   2.919   5.711 -1.7760 -2.0862  2.1248
  117OSM   C11F12259   1.945   3.087   5.635 -0.5551 -0.1138 -0.4207
  117OSM   H11F12260   2.013   3.114   5.551 -2.4887 -0.4166 -2.1848
  117OSM   H11G12261   1.911   3.189   5.661  2.1454  1.1148 -1.2905
  117OSM   C12F12262   1.829   3.012   5.570  0.2827 -0.0475 -0.3320
  117OSM   H12F12263   1.773   3.100   5.530  2.0573  1.5813  0.5841
  117OSM   H12G12264   1.758   2.963   5.640  1.0220 -0.3483  0.2243
  117OSM   C13F12265   1.868   2.903   5.474 -0.8497 -0.1116  0.3700
  117OSM   H13F12266   1.887   2.814   5.537 -1.6478  0.9468  2.1801
  117OSM   H13G12267   1.956   2.923   5.409 -0.9515 -0.8263  0.0041
  117OSM   C14F12268   1.755   2.872   5.371  0.8286 -0.1608  0.4949
  117OSM   H14F12269   1.661   2.838   5.419  0.3101  0.0911 -0.3157
  117OSM   H14G12270   1.792   2.792   5.303 -1.9680 -2.0858  1.0755
  117OSM   C15F12271   1.714   2.988   5.271 -0.2935 -0.0307  0.4173
  117OSM   H15F12272   1.807   3.012   5.215 -0.3802 -0.4779  0.0804
  117OSM   H15G12273   1.696   3.087   5.319 -3.7064  0.2234 -1.0654
  117OSM   C16F12274   1.600   2.945   5.175  0.8354 -0.1685 -0.6678
  117OSM   H16F12275   1.514   2.933   5.244  2.3286  0.6459  1.4340
  117OSM   H16G12276   1.600   2.841   5.136 -1.2338 -0.0400 -1.1423
  117OSM   C17F12277   1.584   3.039   5.055  0.5997  0.5004  0.2348
  117OSM   H17F12278   1.501   3.002   4.991  1.6777 -0.9509 -0.3936
  117OSM   H17G12279   1.680   3.036   4.998 -1.2379  0.2869 -3.0864
  117OSM   C18F12280   1.554   3.184   5.087  0.4214  0.5927 -0.0495
  117OSM   H18F12281   1.633   3.233   5.148  0.7880  0.2345 -0.2275
  117OSM   H18G12282   1.462   3.186   5.149 -0.6896  0.2557 -1.6285
  117OSM   H18H12283   1.544   3.242   4.992  0.3513 -1.7075 -1.5319
  118OSM      N12284   2.990   1.631   7.897 -0.4439 -0.5419 -0.0116
  118OSM    C1512285   3.080   1.504   7.872 -0.2653 -0.1474  0.8209
  118OSM   H15A12286   3.130   1.475   7.963  1.4398  0.1296  0.0118
  118OSM   H15B12287   3.154   1.534   7.799 -2.6737  1.8819 -0.9610
  118OSM   H15C12288   3.025   1.417   7.843  0.8462 -0.7038  0.3311
  118OSM    C1412289   2.892   1.601   8.001  0.1716  1.1586 -0.3013
  118OSM   H14A12290   2.829   1.685   8.028 -0.9317  0.5288 -0.8392
  118OSM   H14B12291   2.938   1.566   8.092  1.0907 -0.5522 -1.3886
  118OSM   H14C12292   2.830   1.520   7.967 -1.3990  2.1134  0.1647
  118OSM    C1312293   3.082   1.746   7.925 -0.4501  0.4760 -0.4074
  118OSM   H13A12294   3.130   1.789   7.839  0.3279  1.2562  0.3978
  118OSM   H13B12295   3.166   1.709   7.984  0.4561 -0.2949 -2.1075
  118OSM   H13C12296   3.026   1.821   7.978  0.4912 -1.2935  3.4753
  118OSM    C1212297   2.912   1.662   7.770 -0.3738 -0.4600  0.4715
  118OSM   H12A12298   2.846   1.742   7.798 -2.2627 -1.1826 -1.7123
  118OSM   H12B12299   2.851   1.575   7.750  3.5875 -3.1458 -1.2927
  118OSM    C1112300   2.981   1.699   7.636 -0.1606  0.1310  0.0519
  118OSM   H11A12301   3.048   1.787   7.645  1.5853 -1.1572  0.3326
  118OSM   H11B12302   2.912   1.720   7.552  0.4631 -0.3886 -0.6122
  118OSM      P12303   3.011   1.471   7.506 -0.3018 -0.1087  0.0726
  118OSM    O1312304   3.121   1.369   7.507 -0.2084 -0.3879  0.5976
  118OSM    O1412305   2.890   1.433   7.573 -0.1256  0.5504  0.2798
  118OSM    O1112306   2.988   1.514   7.351 -0.4583 -0.4458 -0.7227
  118OSM    O1212307   3.062   1.598   7.585  0.2454  0.0981  0.4916
  118OSM    C1S12308   3.010   1.413   7.248 -0.2062 -0.2787  0.4685
  118OSM    H1S12309   2.933   1.332   7.253 -1.3778  0.7966  0.3975
  118OSM    H1T12310   3.112   1.370   7.241 -0.0573  0.0774  0.4253
  118OSM     NF12311   2.975   1.386   7.000  0.2061  0.0777  0.4587
  118OSM    HNF12312   3.053   1.388   6.937  0.5608 -1.9383  0.7756
  118OSM    C2S12313   2.973   1.483   7.111  0.3455  0.3981  0.1434
  118OSM    H2S12314   2.873   1.528   7.127  0.3412  0.8331 -0.9616
  118OSM    C3S12315   3.072   1.602   7.085  0.0423  0.4027  0.3790
  118OSM    H3S12316   3.169   1.548   7.081 -1.1578 -1.7695 -1.3332
  118OSM     O312317   3.083   1.691   7.190 -0.1947 -0.2887 -0.3861
  118OSM    HO312318   3.035   1.636   7.253 -1.7622  0.1905 -1.1366
  118OSM    C4S12319   3.048   1.672   6.960  0.5578 -0.6997  0.4323
  118OSM    H4S12320   2.944   1.706   6.948  1.2402  1.6567  0.5341
  118OSM    C5S12321   3.148   1.698   6.872 -0.1329 -0.4194 -0.0476
  118OSM    H5S12322   3.239   1.635   6.867 -0.0545 -0.2493 -0.8598
  118OSM    C6S12323   3.120   1.770   6.740  0.2521 -0.1564 -0.4294
  118OSM    H6S12324   3.172   1.714   6.660  0.3727  0.2046 -0.6080
  118OSM    H6T12325   3.179   1.863   6.755 -0.2085 -0.1759  1.8061
  118OSM    C7S12326   2.977   1.810   6.699  0.0847 -0.0473  0.3866
  118OSM    H7S12327   2.938   1.885   6.772  0.9806  0.9165 -0.1035
  118OSM    H7T12328   2.907   1.724   6.698 -0.4255  0.3531  0.8410
  118OSM    C8S12329   2.983   1.881   6.556  0.2777  0.0090  0.3375
  118OSM    H8S12330   3.040   1.976   6.556  3.0853 -1.5932  0.7919
  118OSM    H8T12331   2.883   1.909   6.516  0.7953  0.2783 -0.8218
  118OSM    C9S12332   3.042   1.783   6.448 -0.0141 -0.1030 -0.2661
  118OSM    H9S12333   2.986   1.689   6.431 -0.5755 -0.0029  0.9403
  118OSM    H9T12334   3.149   1.756   6.460 -0.0514 -0.1524 -0.0413
  118OSM   C10S12335   3.027   1.841   6.307  0.5178 -0.2977 -0.7774
  118OSM   H10S12336   2.930   1.895   6.296 -0.4719 -2.0637 -1.1313
  118OSM   H10T12337   3.037   1.756   6.236 -0.7104 -2.2674  1.2683
  118OSM   C11S12338   3.125   1.942   6.255  0.0906  0.6366 -0.8746
  118OSM   H11S12339   3.223   1.892   6.243 -0.2195 -0.2447  0.0572
  118OSM   H11T12340   3.136   2.017   6.337  1.0530 -0.7589  0.3331
  118OSM   C12S12341   3.092   2.009   6.124 -0.0529 -0.0423 -0.0063
  118OSM   H12S12342   3.173   2.081   6.099 -1.4141  1.6027  0.1373
  118OSM   H12T12343   3.000   2.069   6.138  0.0193 -0.0710  0.6451
  118OSM   C13S12344   3.078   1.909   6.015  0.2506 -0.1475 -0.1619
  118OSM   H13S12345   3.007   1.827   6.037 -1.0495  0.8286 -0.6328
  118OSM   H13T12346   3.171   1.850   5.996 -0.2024 -0.5726 -1.0977
  118OSM   C14S12347   3.019   1.975   5.889  0.5728 -0.6697 -0.0284
  118OSM   H14S12348   3.052   2.082   5.889 -0.9047 -0.1996  0.1810
  118OSM   H14T12349   2.909   1.976   5.896  0.5219  1.5007 -0.3568
  118OSM   C15S12350   3.059   1.912   5.755 -0.1824  0.0981  0.4513
  118OSM   H15S12351   3.002   1.817   5.754 -0.7240  0.4100 -0.7630
  118OSM   H15T12352   3.163   1.874   5.760 -0.4963 -0.6074  1.9712
  118OSM   C16S12353   3.040   2.002   5.622 -0.1972 -0.4980 -0.5520
  118OSM   H16S12354   3.109   2.088   5.637 -0.7343  0.0400 -1.1504
  118OSM   H16T12355   2.938   2.044   5.607  0.9267  2.3977 -0.7371
  118OSM   C17S12356   3.086   1.932   5.490  0.3918 -0.1547 -0.6131
  118OSM   H17S12357   3.029   1.838   5.477  1.0252 -0.5215 -0.7667
  118OSM   H17T12358   3.195   1.912   5.496  0.3692 -0.3429 -0.8187
  118OSM   C18S12359   3.053   2.010   5.363  0.5119 -0.2312  0.1361
  118OSM   H18S12360   3.071   2.120   5.367  1.8750 -0.4573  0.7998
  118OSM   H18T12361   2.944   2.009   5.341  0.5667 -2.2019 -0.2101
  118OSM   H18U12362   3.119   1.972   5.282 -0.3638 -0.9907 -0.2415
  118OSM    C1F12363   2.872   1.298   6.983 -0.0632  0.4136 -0.1228
  118OSM     OF12364   2.779   1.298   7.056  0.0937 -0.7727  0.3630
  118OSM    C2F12365   2.879   1.204   6.868 -0.1654  0.1853 -0.5232
  118OSM    H2F12366   2.922   1.113   6.915 -2.0683 -0.9001 -0.7695
  118OSM    H2G12367   2.952   1.233   6.790  3.8947 -2.5040  1.8823
  118OSM    C3F12368   2.748   1.150   6.816  0.5141  0.0158  0.9569
  118OSM    H3F12369   2.678   1.212   6.755  0.9434 -0.1200  0.3066
  118OSM    H3G12370   2.684   1.118   6.900  2.3160 -0.8287  2.0760
  118OSM    C4F12371   2.779   1.012   6.741  0.3834 -0.2180  0.3665
  118OSM    H4F12372   2.695   0.942   6.722  2.8319 -2.7701 -2.3073
  118OSM    H4G12373   2.851   0.950   6.798 -0.8109 -2.0401 -0.0219
  118OSM    C5F12374   2.846   1.048   6.608  0.7848  0.7496 -0.3658
  118OSM    H5F12375   2.949   1.086   6.623  0.5581  1.0969  0.4025
  118OSM    H5G12376   2.798   1.132   6.552  1.0840 -1.3702 -4.1290
  118OSM    C6F12377   2.856   0.933   6.514 -0.6865  0.5200  0.0242
  118OSM    H6F12378   2.754   0.894   6.494 -0.1059  0.0551 -2.5055
  118OSM    H6G12379   2.907   0.853   6.572  0.4507  1.3432  0.1894
  118OSM    C7F12380   2.936   0.950   6.381  0.1722  0.2028  0.8053
  118OSM    H7F12381   2.950   0.854   6.327  0.7896  0.3725  0.6632
  118OSM    H7G12382   3.033   0.986   6.420 -0.7490  1.4196  2.0800
  118OSM    C8F12383   2.870   1.054   6.276  0.0167 -0.2853 -0.7052
  118OSM    H8F12384   2.812   1.136   6.323  0.3741 -0.9122  0.8777
  118OSM    H8G12385   2.793   0.994   6.221 -1.1657 -0.0933  0.6993
  118OSM    C9F12386   2.980   1.107   6.184  0.2602  0.1507 -0.0403
  118OSM    H9F12387   3.052   1.169   6.239  1.6122 -1.0705 -0.3509
  118OSM   C10F12388   2.990   1.095   6.049  0.5578 -0.1463 -0.1928
  118OSM   H10F12389   3.079   1.129   5.995 -1.4463 -0.6136 -4.1147
  118OSM   C11F12390   2.898   1.010   5.970  0.9365  0.1506 -0.3132
  118OSM   H11F12391   2.806   0.979   6.024  0.3044  1.4212 -0.6396
  118OSM   H11G12392   2.950   0.913   5.955  1.2248  0.3466 -0.6146
  118OSM   C12F12393   2.870   1.069   5.836  0.0965 -0.0920  0.0532
  118OSM   H12F12394   2.809   1.161   5.852  0.5921  0.2137  0.2264
  118OSM   H12G12395   2.797   1.002   5.786  1.6258 -3.1678  1.6691
  118OSM   C13F12396   2.984   1.085   5.741 -0.1760 -0.1536 -0.5670
  118OSM   H13F12397   3.064   1.010   5.759  0.8457  0.6253 -1.6500
  118OSM   H13G12398   3.027   1.182   5.774 -0.3050 -0.7264  1.3746
  118OSM   C14F12399   2.935   1.090   5.599  0.2579  0.8040  0.4045
  118OSM   H14F12400   2.858   1.166   5.576 -0.6880 -0.5547 -1.0669
  118OSM   H14G12401   2.891   0.989   5.583 -0.5001  1.3888 -1.4885
  118OSM   C15F12402   3.046   1.102   5.496  0.4103 -0.2976 -0.4658
  118OSM   H15F12403   3.124   1.028   5.524 -1.8931 -2.1015  1.6109
  118OSM   H15G12404   3.076   1.208   5.508 -2.6847  0.6115  0.3015
  118OSM   C16F12405   2.997   1.080   5.354 -0.6939  0.5661  0.0256
  118OSM   H16F12406   2.907   1.141   5.330  0.4781  2.0313 -0.9039
  118OSM   H16G12407   2.988   0.970   5.349 -0.2495  0.5107  0.4036
  118OSM   C17F12408   3.096   1.129   5.249 -0.4842  0.6503 -1.0656
  118OSM   H17F12409   3.106   1.238   5.270 -1.0692  1.0575 -2.7247
  118OSM   H17G12410   3.061   1.133   5.143  1.6464 -0.3685 -1.8580
  118OSM   C18F12411   3.222   1.045   5.244  0.3089  0.3424 -0.0489
  118OSM   H18F12412   3.279   1.046   5.339 -0.2327 -2.3870  0.3837
  118OSM   H18G12413   3.290   1.083   5.165  2.1777 -0.9512  0.8725
  118OSM   H18H12414   3.206   0.936   5.233  0.0563  0.4362 -0.6651
  119OSM      N12415   4.593   2.516   7.259  0.1367 -0.1501  0.2335
  119OSM    C1512416   4.575   2.660   7.223 -0.0207  0.2274 -0.5738
  119OSM   H15A12417   4.506   2.703   7.294  0.4823 -0.8953  0.6495
  119OSM   H15B12418   4.561   2.678   7.118 -0.5061 -1.9581 -0.9321
  119OSM   H15C12419   4.664   2.717   7.246 -0.4896  0.9129 -0.4353
  119OSM    C1412420   4.640   2.510   7.406 -0.6880 -0.3623  0.1122
  119OSM   H14A12421   4.566   2.551   7.474  0.0239 -2.0349  1.9684
  119OSM   H14B12422   4.734   2.557   7.429 -1.4067  0.8920  0.6326
  119OSM   H14C12423   4.653   2.408   7.439 -0.1762 -0.8319 -1.4768
  119OSM    C1312424   4.457   2.452   7.241  0.1135 -0.5678 -0.5825
  119OSM   H13A12425   4.475   2.346   7.253  2.8592 -0.0039  0.9778
  119OSM   H13B12426   4.411   2.479   7.146  0.4237  1.3367 -0.2248
  119OSM   H13C12427   4.398   2.477   7.328 -1.3429 -0.8241 -1.4444
  119OSM    C1212428   4.690   2.457   7.153  0.1201 -0.1663 -0.4162
  119OSM   H12A12429   4.777   2.521   7.149 -0.8717  1.1751 -2.6555
  119OSM   H12B12430   4.642   2.468   7.057 -1.1196 -0.0295  0.1901
  119OSM    C1112431   4.740   2.322   7.171  0.3446  0.1900 -0.2376
  119OSM   H11A12432   4.766   2.290   7.068 -1.6151  1.0613 -1.0495
  119OSM   H11B12433   4.677   2.238   7.205  1.0594  0.2660  1.4190
  119OSM      P12434   4.985   2.404   7.267 -0.1397  0.0596 -0.0189
  119OSM    O1312435   4.961   2.499   7.376 -0.4468  0.1183 -0.3037
  119OSM    O1412436   5.109   2.322   7.264 -0.3445 -0.3190 -0.7024
  119OSM    O1112437   4.979   2.495   7.131  0.1984 -0.5699 -0.1782
  119OSM    O1212438   4.853   2.313   7.264  0.0875 -0.1453  0.2278
  119OSM    C1S12439   5.074   2.606   7.128 -0.6295  0.1508 -0.8802
  119OSM    H1S12440   5.173   2.566   7.154 -2.1323 -1.0141  4.1515
  119OSM    H1T12441   5.046   2.683   7.204  0.1921  0.3054 -0.7308
  119OSM     NF12442   5.184   2.788   6.995  0.2556 -0.6368  0.4439
  119OSM    HNF12443   5.175   2.881   7.030 -1.1727 -1.0072  1.1731
  119OSM    C2S12444   5.073   2.689   6.998 -0.1559  0.0022  0.0808
  119OSM    H2S12445   5.077   2.629   6.905 -1.5805  1.1898 -0.7819
  119OSM    C3S12446   4.931   2.757   6.978 -1.2124  0.5374  0.0524
  119OSM    H3S12447   4.908   2.824   7.064  1.1779  0.9954  0.4014
  119OSM     O312448   4.829   2.668   6.978  1.0243  0.0163 -0.1241
  119OSM    HO312449   4.880   2.590   7.001  0.1013 -0.6247 -0.1913
  119OSM    C4S12450   4.938   2.838   6.854 -0.0059 -0.2732  0.1701
  119OSM    H4S12451   4.960   2.943   6.877 -0.9862  0.4957 -2.0977
  119OSM    C5S12452   4.909   2.805   6.729 -0.4884 -0.7522  0.3966
  119OSM    H5S12453   4.874   2.704   6.703 -1.6203  0.2774 -2.5047
  119OSM    C6S12454   4.921   2.904   6.620  0.1862 -0.7794 -0.0863
  119OSM    H6S12455   4.937   3.011   6.645  2.1083 -1.2461  0.8231
  119OSM    H6T12456   4.822   2.905   6.567  0.4278 -1.3038 -0.5582
  119OSM    C7S12457   5.033   2.870   6.523  0.0793 -0.2670 -0.3261
  119OSM    H7S12458   5.025   2.761   6.502 -1.8043 -0.2905  0.3289
  119OSM    H7T12459   5.135   2.888   6.562  0.7448  1.2611 -2.5874
  119OSM    C8S12460   5.024   2.947   6.391  0.1000 -0.8201 -0.4128
  119OSM    H8S12461   5.098   2.923   6.312 -0.0055  0.3082 -0.8770
  119OSM    H8T12462   5.033   3.056   6.413 -0.7127 -1.1763  2.0310
  119OSM    C9S12463   4.887   2.924   6.317 -0.8523  0.4633  0.0105
  119OSM    H9S12464   4.802   2.976   6.367 -0.6305  0.1931  0.6615
  119OSM    H9T12465   4.871   2.814   6.314 -2.3778  0.6174  1.1772
  119OSM   C10S12466   4.883   2.991   6.176 -0.8777 -0.7554  0.4057
  119OSM   H10S12467   4.931   3.091   6.182 -1.4202 -0.5190  0.8527
  119OSM   H10T12468   4.777   2.997   6.146 -1.0796  0.5002  1.3023
  119OSM   C11S12469   4.958   2.914   6.064  0.3169 -0.3789 -1.1662
  119OSM   H11S12470   4.926   2.807   6.060 -1.4034  0.0785 -0.4804
  119OSM   H11T12471   5.062   2.919   6.102  0.5711 -1.2686 -1.7294
  119OSM   C12S12472   4.940   2.977   5.931  0.4842  0.0955  0.1990
  119OSM   H12S12473   4.950   3.088   5.935 -0.0263  0.1452  0.2053
  119OSM   H12T12474   4.833   2.960   5.906  0.2617  0.8986  0.5643
  119OSM   C13S12475   5.025   2.911   5.815  1.3258  0.0777 -0.4276
  119OSM   H13S12476   4.993   2.805   5.819 -1.9501  0.9261 -1.3794
  119OSM   H13T12477   5.136   2.909   5.822  1.2960  1.5056  1.0594
  119OSM   C14S12478   4.994   2.953   5.668 -0.4999 -0.4224  0.2545
  119OSM   H14S12479   4.885   2.958   5.649 -0.5836 -0.9566  0.5647
  119OSM   H14T12480   5.040   2.886   5.592  1.4035  0.5393  0.4916
  119OSM   C15S12481   5.043   3.092   5.642  1.0146  0.8417 -0.0219
  119OSM   H15S12482   5.150   3.096   5.672  1.1557  0.3818 -0.4348
  119OSM   H15T12483   4.990   3.175   5.694  1.1314  0.4407  0.7432
  119OSM   C16S12484   5.028   3.131   5.493 -0.3022 -0.2648 -0.7521
  119OSM   H16S12485   4.933   3.090   5.453 -0.5754 -0.0190 -0.3655
  119OSM   H16T12486   5.116   3.089   5.439 -0.6201 -2.2031  0.1356
  119OSM   C17S12487   5.048   3.282   5.478 -1.0417  0.5712  0.7226
  119OSM   H17S12488   5.130   3.328   5.538 -1.9682  0.9230  1.7604
  119OSM   H17T12489   4.959   3.331   5.524 -0.9914  0.9604  0.4127
  119OSM   C18S12490   5.055   3.333   5.331  0.0904 -0.5205  0.7410
  119OSM   H18S12491   5.051   3.443   5.328  0.7210 -0.4916 -2.5106
  119OSM   H18T12492   4.977   3.286   5.266  1.3403 -0.4628 -0.8722
  119OSM   H18U12493   5.158   3.316   5.295 -0.2120 -0.6034 -0.1146
  119OSM    C1F12494   5.304   2.741   6.960 -0.1632 -0.2337 -0.2109
  119OSM     OF12495   5.315   2.621   6.934 -0.0296  0.0438 -0.3591
  119OSM    C2F12496   5.427   2.836   6.963  0.2248  0.4889  0.4425
  119OSM    H2F12497   5.493   2.795   7.042  0.7088 -1.0114 -0.6964
  119OSM    H2G12498   5.386   2.939   6.979 -2.4272 -0.5316  0.8464
  119OSM    C3F12499   5.507   2.819   6.822  0.3580 -0.8167  0.1859
  119OSM    H3F12500   5.531   2.711   6.816 -0.0405 -0.8357 -1.9077
  119OSM    H3G12501   5.605   2.870   6.836  0.4154 -0.9453  0.2507
  119OSM    C4F12502   5.436   2.874   6.698  0.4531 -0.1330  0.1973
  119OSM    H4F12503   5.332   2.836   6.687  0.2648 -0.1493  1.8067
  119OSM    H4G12504   5.490   2.843   6.607 -1.9668 -1.0823 -1.0163
  119OSM    C5F12505   5.445   3.030   6.692 -0.0062 -0.0785  0.2141
  119OSM    H5F12506   5.526   3.066   6.760 -0.4283  0.5051  0.4129
  119OSM    H5G12507   5.352   3.077   6.729  0.4513  0.8765  0.1806
  119OSM    C6F12508   5.467   3.093   6.555 -0.0240 -0.5382 -0.0658
  119OSM    H6F12509   5.549   3.033   6.509 -0.2419  0.1317 -1.3737
  119OSM    H6G12510   5.511   3.193   6.572 -0.7660 -0.6047  2.6996
  119OSM    C7F12511   5.350   3.095   6.462 -0.5515 -0.2605  0.5649
  119OSM    H7F12512   5.299   3.194   6.461 -2.6713 -1.2300 -3.1653
  119OSM    H7G12513   5.272   3.027   6.501  1.9451 -2.4931  1.9621
  119OSM    C8F12514   5.378   3.044   6.323 -0.3907  0.5314  0.4043
  119OSM    H8F12515   5.281   3.026   6.271  0.8895 -1.7573 -1.3566
  119OSM    H8G12516   5.427   2.945   6.336  2.3661  1.8676  0.7282
  119OSM    C9F12517   5.474   3.126   6.243 -0.1513  0.6540 -0.2139
  119OSM    H9F12518   5.558   3.161   6.304  0.6680  1.0123 -1.4950
  119OSM   C10F12519   5.466   3.150   6.116  0.1933  0.8348  0.4447
  119OSM   H10F12520   5.533   3.226   6.073  1.6124  0.2778  1.5573
  119OSM   C11F12521   5.365   3.090   6.029 -0.5318  0.1692  0.5632
  119OSM   H11F12522   5.275   3.154   6.045 -0.4076  0.3397  0.5850
  119OSM   H11G12523   5.328   2.989   6.055 -0.1499  0.1565  1.0454
  119OSM   C12F12524   5.414   3.097   5.882  0.6151  0.3643  0.1497
  119OSM   H12F12525   5.358   3.023   5.821 -1.0091  0.4985  1.4031
  119OSM   H12G12526   5.518   3.059   5.876  0.6284  0.3708 -5.6085
  119OSM   C13F12527   5.411   3.233   5.812  0.3823 -0.1877  0.2047
  119OSM   H13F12528   5.457   3.302   5.886 -0.3974 -0.4356  0.9257
  119OSM   H13G12529   5.305   3.256   5.787  0.7576 -1.9825 -3.9072
  119OSM   C14F12530   5.504   3.236   5.688 -1.1434  0.2619  0.1356
  119OSM   H14F12531   5.489   3.156   5.612  0.7347  0.0833 -0.0962
  119OSM   H14G12532   5.599   3.216   5.742 -0.8633 -0.1461 -0.5040
  119OSM   C15F12533   5.527   3.373   5.619  0.3126 -0.1623  0.2424
  119OSM   H15F12534   5.609   3.357   5.545 -0.3620  2.1483 -1.1238
  119OSM   H15G12535   5.556   3.445   5.699 -1.4065  0.4161  0.3903
  119OSM   C16F12536   5.405   3.424   5.545  0.9380 -0.2594  0.4334
  119OSM   H16F12537   5.323   3.448   5.616  0.8809  1.9690 -0.3027
  119OSM   H16G12538   5.354   3.353   5.477  0.1170 -0.7898  1.5759
  119OSM   C17F12539   5.436   3.549   5.460  0.4849  0.0717 -0.5733
  119OSM   H17F12540   5.512   3.511   5.388  0.2306  1.6497 -1.7411
  119OSM   H17G12541   5.488   3.632   5.513  0.4955  0.2309 -0.8298
  119OSM   C18F12542   5.320   3.602   5.376 -0.9263 -0.3323 -0.5684
  119OSM   H18F12543   5.349   3.701   5.336 -0.3437 -0.4153 -0.3622
  119OSM   H18G12544   5.229   3.610   5.439  0.4960 -1.4141  1.8042
  119OSM   H18H12545   5.289   3.536   5.292 -0.6654  2.1402 -2.7052
  120OSM      N12546   2.485   4.983   7.742  0.0281  0.2327 -0.0930
  120OSM    C1512547   2.388   5.062   7.833 -0.6916  0.5771 -0.1170
  120OSM   H15A12548   2.440   5.106   7.916 -2.6039  0.1523  1.3832
  120OSM   H15B12549   2.326   4.983   7.872  0.1351  0.2308  0.5168
  120OSM   H15C12550   2.320   5.131   7.785  0.4493  2.0037  0.2529
  120OSM    C1412551   2.600   5.067   7.699  0.0828  0.2864 -0.4122
  120OSM   H14A12552   2.674   5.005   7.650  1.3115  0.3191  1.3179
  120OSM   H14B12553   2.643   5.111   7.787 -0.3479  1.4486 -0.7666
  120OSM   H14C12554   2.566   5.142   7.629 -0.4741  1.5106  1.1024
  120OSM    C1312555   2.541   4.864   7.818 -0.6095  0.3276 -0.0449
  120OSM   H13A12556   2.609   4.810   7.754 -0.9343  1.0261 -1.0193
  120OSM   H13B12557   2.460   4.803   7.852 -0.8240  0.7229  0.1647
  120OSM   H13C12558   2.593   4.908   7.902  1.6578  2.3157 -2.2919
  120OSM    C1212559   2.403   4.936   7.620 -0.3155 -0.1556  0.9077
  120OSM   H12A12560   2.469   4.893   7.546 -2.7987 -1.3066 -0.7702
  120OSM   H12B12561   2.364   5.016   7.560  1.7774 -0.0834 -0.4546
  120OSM    C1112562   2.291   4.824   7.646 -0.0453  0.0203  0.1399
  120OSM   H11A12563   2.335   4.763   7.728  1.4879  1.0867  0.1715
  120OSM   H11B12564   2.282   4.768   7.551  0.5774  1.9723 -1.1262
  120OSM      P12565   2.031   4.813   7.711  0.1994  0.4795 -0.1705
  120OSM    O1312566   2.026   4.717   7.819  0.0424 -0.4643  0.2658
  120OSM    O1412567   1.926   4.915   7.716  0.4783 -0.0594  0.0374
  120OSM    O1112568   2.011   4.712   7.591 -0.2484 -0.4261  0.0990
  120OSM    O1212569   2.171   4.883   7.689 -0.1708 -0.0020  0.8679
  120OSM    C1S12570   1.927   4.743   7.481  0.3153 -0.1234  0.3532
  120OSM    H1S12571   1.901   4.851   7.476  2.4246  0.4756  1.1278
  120OSM    H1T12572   1.831   4.688   7.494 -1.0396  1.9426 -0.4185
  120OSM     NF12573   1.881   4.741   7.236  0.4427  0.3840  0.0330
  120OSM    HNF12574   1.848   4.666   7.178 -1.0978  0.4885  0.7464
  120OSM    C2S12575   1.980   4.704   7.339  0.3492  0.3141  0.3002
  120OSM    H2S12576   2.074   4.763   7.328  0.0772  0.9192  1.1116
  120OSM    C3S12577   2.024   4.549   7.341 -0.3061 -1.1546  0.6393
  120OSM    H3S12578   1.937   4.504   7.392  1.5220 -2.1102  3.0838
  120OSM     O312579   2.136   4.519   7.431  0.1304  0.0850 -0.1842
  120OSM    HO312580   2.117   4.574   7.507 -1.0452  1.6211 -1.5044
  120OSM    C4S12581   2.040   4.494   7.206 -0.6039 -0.4128  0.3080
  120OSM    H4S12582   1.958   4.433   7.165  0.4871 -1.3753 -0.5051
  120OSM    C5S12583   2.150   4.510   7.133  0.4567 -0.4147  0.2096
  120OSM    H5S12584   2.235   4.568   7.170 -0.7241  1.1746  0.5497
  120OSM    C6S12585   2.169   4.460   6.993 -0.6775  0.6047  0.3483
  120OSM    H6S12586   2.128   4.358   6.978 -0.2408  0.2011  1.7277
  120OSM    H6T12587   2.278   4.460   6.970 -0.3734  0.2356  1.7201
  120OSM    C7S12588   2.079   4.545   6.894 -0.5157 -0.2762  0.0025
  120OSM    H7S12589   2.069   4.650   6.929 -0.7765  0.5254 -2.2541
  120OSM    H7T12590   1.983   4.489   6.890 -0.1254 -0.9591  0.0330
  120OSM    C8S12591   2.139   4.544   6.751 -0.0916 -0.1558  0.1641
  120OSM    H8S12592   2.158   4.444   6.707 -0.6896  0.5209 -1.7375
  120OSM    H8T12593   2.234   4.602   6.745  0.0314 -0.0912  2.0338
  120OSM    C9S12594   2.044   4.612   6.651  0.1014  0.3738  0.5784
  120OSM    H9S12595   2.046   4.723   6.660  1.0594  0.2768  1.9282
  120OSM    H9T12596   1.945   4.565   6.664  0.6480 -0.5233  1.7243
  120OSM   C10S12597   2.094   4.580   6.505  0.0445 -0.2661 -0.1705
  120OSM   H10S12598   2.048   4.482   6.483  0.0887 -0.3029 -0.0954
  120OSM   H10T12599   2.202   4.555   6.508  0.2960  0.5966 -1.2552
  120OSM   C11S12600   2.055   4.676   6.390 -0.9471 -0.1009  0.6333
  120OSM   H11S12601   2.101   4.774   6.417  2.3814 -0.9854 -1.2479
  120OSM   H11T12602   1.944   4.680   6.387 -0.9578 -0.7061 -0.0528
  120OSM   C12S12603   2.116   4.642   6.251  0.2447 -0.3671 -0.4130
  120OSM   H12S12604   2.080   4.542   6.221 -0.8280 -0.0003 -0.3859
  120OSM   H12T12605   2.223   4.618   6.270 -0.5799 -3.0266  1.5360
  120OSM   C13S12606   2.104   4.760   6.156  0.4974 -0.5497 -0.0923
  120OSM   H13S12607   2.205   4.788   6.122  0.7878  1.4703  2.1838
  120OSM   H13T12608   2.079   4.856   6.206  0.8041  0.2852 -1.5031
  120OSM   C14S12609   2.010   4.725   6.035 -0.0691 -0.2620  0.3372
  120OSM   H14S12610   2.059   4.638   5.986  0.3907  0.6046 -0.7748
  120OSM   H14T12611   2.017   4.807   5.961 -0.4444 -1.7304 -1.3770
  120OSM   C15S12612   1.859   4.699   6.061 -0.2051 -0.7296 -0.2724
  120OSM   H15S12613   1.840   4.657   6.162  0.1462 -0.6658 -0.1819
  120OSM   H15T12614   1.823   4.614   6.000  0.3684 -0.9835 -0.2600
  120OSM   C16S12615   1.779   4.826   6.044  0.2382 -0.2275  0.3225
  120OSM   H16S12616   1.838   4.905   6.094  1.4086 -0.2220 -0.9817
  120OSM   H16T12617   1.677   4.802   6.080  0.2194 -0.1144  0.3430
  120OSM   C17S12618   1.766   4.863   5.894 -0.5511 -0.3801 -0.5511
  120OSM   H17S12619   1.716   4.777   5.844 -1.3748  0.3419 -0.9931
  120OSM   H17T12620   1.869   4.877   5.854  0.2434 -0.8619  1.2495
  120OSM   C18S12621   1.680   4.987   5.864 -0.4271 -1.0491 -0.7458
  120OSM   H18S12622   1.585   4.979   5.921  0.5372 -0.5352  1.0138
  120OSM   H18T12623   1.681   4.997   5.753 -0.6007 -1.1189 -0.7545
  120OSM   H18U12624   1.736   5.069   5.914 -0.6970 -1.6325  0.5522
  120OSM    C1F12625   1.849   4.865   7.205 -0.7661  0.8105  0.1333
  120OSM     OF12626   1.903   4.961   7.257 -0.1574  0.5306  0.1471
  120OSM    C2F12627   1.755   4.869   7.093 -0.4094  0.5697 -0.2084
  120OSM    H2F12628   1.671   4.802   7.120  1.2540 -0.9178  1.5001
  120OSM    H2G12629   1.814   4.824   7.011  1.3672  3.4564 -0.6733
  120OSM    C3F12630   1.716   5.015   7.066 -0.1807  0.0797 -0.5301
  120OSM    H3F12631   1.805   5.081   7.057 -1.0297  1.1055 -1.8484
  120OSM    H3G12632   1.662   5.061   7.152 -0.2859  2.7352 -1.9232
  120OSM    C4F12633   1.632   5.027   6.934 -0.2154 -0.5613  0.7489
  120OSM    H4F12634   1.550   4.953   6.920 -0.3065 -0.3787  0.3068
  120OSM    H4G12635   1.686   4.999   6.841 -1.2907  1.6032 -0.6060
  120OSM    C5F12636   1.585   5.175   6.930  0.2481 -0.1001  0.3694
  120OSM    H5F12637   1.570   5.223   7.029  0.9792 -0.1451  0.5047
  120OSM    H5G12638   1.484   5.167   6.883  0.3185 -0.3382  0.2562
  120OSM    C6F12639   1.665   5.261   6.828 -0.3426 -0.0685  0.3824
  120OSM    H6F12640   1.775   5.249   6.842  0.3832  2.7667 -1.9521
  120OSM    H6G12641   1.644   5.365   6.859  1.9117 -0.3597  3.4865
  120OSM    C7F12642   1.625   5.248   6.684 -0.6707 -0.7640 -0.8230
  120OSM    H7F12643   1.520   5.282   6.669 -0.5695 -0.2325 -0.3513
  120OSM    H7G12644   1.633   5.145   6.643 -0.7224 -0.9389 -0.3933
  120OSM    C8F12645   1.723   5.329   6.595 -0.1056  0.2105  0.7043
  120OSM    H8F12646   1.730   5.275   6.498  1.6456 -0.8734  1.3936
  120OSM    H8G12647   1.825   5.327   6.637  0.6306  0.3996 -1.0022
  120OSM    C9F12648   1.680   5.468   6.593 -0.9789 -0.2709 -1.0638
  120OSM    H9F12649   1.646   5.508   6.690  0.0854 -4.1544  1.1357
  120OSM   C10F12650   1.667   5.541   6.484 -0.2926 -0.2331  0.2436
  120OSM   H10F12651   1.625   5.642   6.496 -0.7238 -0.0672 -2.2096
  120OSM   C11F12652   1.690   5.500   6.337 -0.4461  0.1578 -0.1975
  120OSM   H11F12653   1.595   5.514   6.281 -2.0798 -2.3486  1.7472
  120OSM   H11G12654   1.710   5.391   6.328 -0.5564  0.1523 -0.3890
  120OSM   C12F12655   1.804   5.586   6.272  0.4928  0.4672 -0.0548
  120OSM   H12F12656   1.898   5.564   6.325  0.4086 -0.1654 -0.1554
  120OSM   H12G12657   1.794   5.695   6.289  0.1543  0.6046 -1.0437
  120OSM   C13F12658   1.812   5.576   6.115 -0.0604  1.4293 -0.7021
  120OSM   H13F12659   1.711   5.568   6.069 -0.4723 -1.0549  0.4508
  120OSM   H13G12660   1.852   5.476   6.087  1.5076  1.3047  1.6965
  120OSM   C14F12661   1.905   5.685   6.053  0.2946  0.4299 -0.2024
  120OSM   H14F12662   2.000   5.692   6.110 -0.3241  3.1852  0.6172
  120OSM   H14G12663   1.874   5.788   6.078  2.5225  0.9873  0.4952
  120OSM   C15F12664   1.925   5.671   5.906 -0.4551 -0.7690  0.5765
  120OSM   H15F12665   1.828   5.674   5.852 -1.1550 -1.7651  1.7273
  120OSM   H15G12666   1.979   5.575   5.898  0.3953 -0.2229 -0.3988
  120OSM   C16F12667   2.023   5.771   5.858 -0.0834 -0.6950  0.2292
  120OSM   H16F12668   2.117   5.762   5.917 -1.8104 -1.8704  3.0032
  120OSM   H16G12669   1.987   5.872   5.886 -1.0606 -0.8925 -0.2731
  120OSM   C17F12670   2.056   5.772   5.712 -0.3029  0.1558 -0.0037
  120OSM   H17F12671   2.040   5.668   5.676  3.3801 -1.0410  1.3602
  120OSM   H17G12672   2.162   5.801   5.694 -1.3056  3.8286 -0.6710
  120OSM   C18F12673   1.969   5.869   5.631 -0.1665 -0.2921 -0.2695
  120OSM   H18F12674   1.860   5.860   5.647 -0.2861  0.5634 -0.5320
  120OSM   H18G12675   1.999   5.854   5.525 -0.6076 -2.4398 -0.1210
  120OSM   H18H12676   1.993   5.976   5.652 -1.0387  0.2173 -1.6809
  121OSM      N12677   1.806   1.891   7.779  0.1607 -0.4631 -0.1413
  121OSM    C1512678   1.680   1.909   7.697 -0.2967  0.6407 -0.2815
  121OSM   H15A12679   1.687   1.992   7.629 -0.0136 -0.7546 -2.0117
  121OSM   H15B12680   1.594   1.931   7.759 -0.2382 -2.2410  1.0186
  121OSM   H15C12681   1.660   1.825   7.632 -0.1851 -0.4169  0.9907
  121OSM    C1412682   1.839   2.027   7.840  0.0134 -0.0439 -0.2786
  121OSM   H14A12683   1.774   2.043   7.924  0.2116 -3.3288  0.6301
  121OSM   H14B12684   1.826   2.108   7.769  1.8763  0.7527  0.2189
  121OSM   H14C12685   1.941   2.023   7.877 -0.9773  1.0293  2.8436
  121OSM    C1312686   1.763   1.794   7.887 -0.4224  0.4023 -0.2247
  121OSM   H13A12687   1.835   1.759   7.959 -2.0313 -1.5718  0.5123
  121OSM   H13B12688   1.703   1.710   7.855 -1.4574  0.4404  1.5401
  121OSM   H13C12689   1.689   1.833   7.955 -0.6708  2.1702 -1.4499
  121OSM    C1212690   1.927   1.850   7.698 -0.1597  0.1612 -0.2389
  121OSM   H12A12691   1.914   1.748   7.663 -0.9818  0.2321 -0.1617
  121OSM   H12B12692   2.015   1.839   7.760 -1.4320 -0.0751  1.5799
  121OSM    C1112693   1.960   1.944   7.574 -0.6360 -0.3278  0.3492
  121OSM   H11A12694   1.874   1.944   7.504  0.6673 -0.1401 -1.2990
  121OSM   H11B12695   2.045   1.896   7.521 -0.2051 -1.1589  1.7294
  121OSM      P12696   1.979   2.191   7.514  0.0033  0.0491  0.4520
  121OSM    O1312697   1.835   2.213   7.502 -0.3992  0.7020 -0.0706
  121OSM    O1412698   2.066   2.302   7.555  0.2725 -0.6232  0.1960
  121OSM    O1112699   2.019   2.140   7.368 -0.2814 -0.3730  0.7393
  121OSM    O1212700   2.013   2.073   7.609  0.3409 -0.2222  0.1624
  121OSM    C1S12701   1.929   2.157   7.257 -0.6281 -0.2118  0.4542
  121OSM    H1S12702   1.886   2.260   7.259  1.3962  1.1500 -5.4815
  121OSM    H1T12703   1.841   2.093   7.279 -2.0653  1.6723  0.5130
  121OSM     NF12704   1.893   2.159   7.020 -0.7941 -0.1589 -0.0499
  121OSM    HNF12705   1.846   2.078   6.986 -0.6386 -0.6535  0.8753
  121OSM    C2S12706   1.994   2.123   7.121 -0.2390 -0.6256 -0.3343
  121OSM    H2S12707   2.073   2.201   7.114 -0.3453 -0.4252  0.5345
  121OSM    C3S12708   2.058   1.983   7.116  0.9684 -0.8074 -0.2026
  121OSM    H3S12709   1.970   1.918   7.137 -0.6443  0.8089 -1.5919
  121OSM     O312710   2.142   1.952   7.228 -0.2370 -0.7528  0.0813
  121OSM    HO312711   2.122   2.027   7.285 -1.2750 -0.1469 -1.0300
  121OSM    C4S12712   2.119   1.965   6.979 -0.2354 -0.2679  0.4493
  121OSM    H4S12713   2.042   1.922   6.914 -1.1132 -1.5647  2.2588
  121OSM    C5S12714   2.245   1.992   6.934  1.1412  0.0841 -0.2237
  121OSM    H5S12715   2.324   2.023   7.003  0.9398 -0.5924  0.3315
  121OSM    C6S12716   2.284   1.960   6.787  0.0246 -0.2929 -0.0404
  121OSM    H6S12717   2.338   1.864   6.792 -0.5237 -0.6357 -0.6280
  121OSM    H6T12718   2.354   2.042   6.758  0.5116 -0.6193  0.2050
  121OSM    C7S12719   2.180   1.958   6.682  0.6998  0.0269  0.3118
  121OSM    H7S12720   2.098   2.031   6.699  0.4554 -0.1811  0.0574
  121OSM    H7T12721   2.126   1.861   6.690 -0.9824  0.9762  1.0030
  121OSM    C8S12722   2.236   1.982   6.539 -0.0895  0.0173 -0.0831
  121OSM    H8S12723   2.308   1.899   6.523  0.1792  0.1009  0.6518
  121OSM    H8T12724   2.289   2.080   6.541  1.8167 -0.9712 -0.3208
  121OSM    C9S12725   2.118   1.969   6.435  0.3243 -0.1759 -1.1192
  121OSM    H9S12726   2.050   2.056   6.448  1.6082  0.7629 -0.3591
  121OSM    H9T12727   2.076   1.868   6.455 -1.6512  1.2254  3.0256
  121OSM   C10S12728   2.171   1.987   6.289 -0.2975  0.1428  0.0105
  121OSM   H10S12729   2.237   1.901   6.262  0.4574 -0.1575  2.5580
  121OSM   H10T12730   2.238   2.075   6.279  0.9818 -0.6909  0.8469
  121OSM   C11S12731   2.053   1.992   6.186 -0.8269  0.7638  0.8552
  121OSM   H11S12732   2.009   2.091   6.161 -2.2073  0.0947  0.5365
  121OSM   H11T12733   1.978   1.913   6.205  2.0872 -3.1765 -2.2201
  121OSM   C12S12734   2.102   1.951   6.045  0.0532 -0.3145 -0.4670
  121OSM   H12S12735   2.198   2.001   6.023 -0.2137  0.5647  0.2697
  121OSM   H12T12736   2.024   1.976   5.969 -0.7095 -0.3231  0.2884
  121OSM   C13S12737   2.128   1.806   6.020  0.2658 -0.7059  0.0542
  121OSM   H13S12738   2.028   1.757   6.021  0.5554 -1.4257 -1.9058
  121OSM   H13T12739   2.184   1.762   6.105 -0.5672  1.6443  1.9378
  121OSM   C14S12740   2.183   1.782   5.884 -0.3480  0.8824 -0.1102
  121OSM   H14S12741   2.214   1.676   5.873 -0.8314  0.5723  1.2839
  121OSM   H14T12742   2.274   1.844   5.873  0.5817 -0.0817  1.7684
  121OSM   C15S12743   2.088   1.829   5.768  0.0270 -0.0467  0.7755
  121OSM   H15S12744   2.099   1.939   5.757  3.0089 -0.3097  0.2238
  121OSM   H15T12745   1.986   1.800   5.800 -0.2481  0.4149  0.3158
  121OSM   C16S12746   2.129   1.762   5.637 -0.4339  0.2087 -0.9855
  121OSM   H16S12747   2.044   1.776   5.567 -1.5789 -1.1075  0.0980
  121OSM   H16T12748   2.143   1.653   5.648  0.0657  0.5018  1.9015
  121OSM   C17S12749   2.259   1.821   5.573 -0.3866  0.0987  0.0908
  121OSM   H17S12750   2.281   1.758   5.485 -1.4829 -3.1714  2.0069
  121OSM   H17T12751   2.339   1.818   5.650 -1.0541 -2.3971  0.7743
  121OSM   C18S12752   2.250   1.969   5.524  0.4278  0.3976 -0.0967
  121OSM   H18S12753   2.169   1.976   5.448 -1.0280  2.4499  1.5286
  121OSM   H18T12754   2.344   2.012   5.484  0.8728 -0.7547 -0.3399
  121OSM   H18U12755   2.221   2.028   5.613  1.4427  0.9076 -0.0983
  121OSM    C1F12756   1.857   2.285   6.998 -0.2897  0.0653  0.4982
  121OSM     OF12757   1.929   2.372   7.043  0.5546  0.0892  0.1328
  121OSM    C2F12758   1.743   2.310   6.909 -0.3381 -0.5609  0.2368
  121OSM    H2F12759   1.771   2.405   6.858 -0.7687  1.8040  4.0240
  121OSM    H2G12760   1.653   2.334   6.970 -1.5169 -0.9212 -1.2964
  121OSM    C3F12761   1.693   2.195   6.832 -0.9079  0.2114 -0.6087
  121OSM    H3F12762   1.665   2.107   6.894 -3.4378  0.7396 -0.9120
  121OSM    H3G12763   1.773   2.158   6.765  0.5007  1.8281  0.0970
  121OSM    C4F12764   1.554   2.216   6.767 -0.3807 -0.4625  0.2159
  121OSM    H4F12765   1.555   2.316   6.719 -0.0208  0.8353  2.7491
  121OSM    H4G12766   1.481   2.230   6.849 -1.2984 -2.2821 -0.2438
  121OSM    C5F12767   1.508   2.104   6.675  0.1523 -0.0179 -0.6050
  121OSM    H5F12768   1.407   2.138   6.644  0.0795  1.4949  1.1187
  121OSM    H5G12769   1.495   2.004   6.723  0.8442 -0.1323 -0.6342
  121OSM    C6F12770   1.594   2.083   6.552 -0.2345  0.0949  0.2306
  121OSM    H6F12771   1.555   2.001   6.489 -1.8639  0.4025  0.8024
  121OSM    H6G12772   1.697   2.046   6.574 -0.0662  0.7944  0.6510
  121OSM    C7F12773   1.605   2.197   6.449  0.7140 -0.3329 -0.3557
  121OSM    H7F12774   1.674   2.280   6.475  0.7363 -0.9082  1.5166
  121OSM    H7G12775   1.500   2.231   6.438 -0.0253 -2.3781 -0.0792
  121OSM    C8F12776   1.650   2.151   6.307  0.8810 -0.5991  0.0433
  121OSM    H8F12777   1.733   2.077   6.320  1.9924  0.7856  1.1076
  121OSM    H8G12778   1.685   2.235   6.244 -2.7474  1.7068  0.8358
  121OSM    C9F12779   1.537   2.099   6.220 -0.0300 -0.2624  0.3240
  121OSM    H9F12780   1.441   2.148   6.243  1.0081  1.6535  0.7688
  121OSM   C10F12781   1.540   2.012   6.118  0.0488  0.2699  0.4720
  121OSM   H10F12782   1.453   1.990   6.055 -0.8157  1.6308  1.1434
  121OSM   C11F12783   1.675   1.950   6.070 -0.0506 -0.1314 -0.4669
  121OSM   H11F12784   1.690   1.841   6.087 -3.9901 -0.6329  0.7417
  121OSM   H11G12785   1.764   2.004   6.106  0.2095  0.0279 -1.3138
  121OSM   C12F12786   1.685   1.964   5.914  0.1222  0.3569  0.3681
  121OSM   H12F12787   1.597   1.921   5.862 -0.6195  2.1876  0.0006
  121OSM   H12G12788   1.777   1.912   5.883  0.7641  0.8184  1.4273
  121OSM   C13F12789   1.690   2.107   5.875  1.3084 -0.1080 -0.5715
  121OSM   H13F12790   1.758   2.162   5.944 -1.3882  2.1343  0.5424
  121OSM   H13G12791   1.598   2.167   5.892  2.1714  0.7081  1.6915
  121OSM   C14F12792   1.746   2.126   5.737  0.2536 -0.0735  0.4779
  121OSM   H14F12793   1.845   2.077   5.726  0.7567  1.1039 -0.5263
  121OSM   H14G12794   1.771   2.232   5.714  0.2409 -0.2726 -0.4778
  121OSM   C15F12795   1.654   2.084   5.627  0.4431  0.2985  0.1790
  121OSM   H15F12796   1.548   2.118   5.621 -0.2606 -1.9943 -2.6378
  121OSM   H15G12797   1.649   1.973   5.627  0.7572  0.2799  0.7340
  121OSM   C16F12798   1.718   2.129   5.493 -0.4724 -0.0968  0.2568
  121OSM   H16F12799   1.828   2.113   5.495 -0.3541  0.7045  0.1355
  121OSM   H16G12800   1.699   2.235   5.470 -1.6629 -0.4114 -0.2792
  121OSM   C17F12801   1.655   2.069   5.368  0.0504  0.3473 -0.7831
  121OSM   H17F12802   1.550   2.105   5.360 -0.5251 -0.7259  1.2267
  121OSM   H17G12803   1.635   1.960   5.376 -1.1453  0.6858  3.3925
  121OSM   C18F12804   1.724   2.092   5.232  0.7009 -0.0459 -0.1905
  121OSM   H18F12805   1.691   2.036   5.142 -0.3204  0.9324 -0.4500
  121OSM   H18G12806   1.833   2.067   5.236  0.5715 -0.5700  0.1210
  121OSM   H18H12807   1.728   2.201   5.211  0.0663  0.0439  0.1562
  122OSM      N12808   0.482   3.802   7.420  0.3688  0.0277  0.3766
  122OSM    C1512809   0.400   3.927   7.398  0.1053 -0.4831  0.3861
  122OSM   H15A12810   0.424   3.961   7.298 -0.0624  2.1298  1.1648
  122OSM   H15B12811   0.419   3.999   7.475 -0.7910  2.9045 -2.3183
  122OSM   H15C12812   0.297   3.897   7.394  0.7477 -2.8847 -0.0263
  122OSM    C1412813   0.628   3.833   7.420 -0.1778 -0.2452 -0.4830
  122OSM   H14A12814   0.696   3.752   7.396  2.6298  1.5775  0.7726
  122OSM   H14B12815   0.663   3.869   7.515  1.4439 -1.5483 -0.5334
  122OSM   H14C12816   0.635   3.913   7.347 -0.5091  0.4709  0.2656
  122OSM    C1312817   0.442   3.749   7.562  0.2757  0.0440 -0.2117
  122OSM   H13A12818   0.468   3.818   7.641 -1.4132  1.1995 -0.6002
  122OSM   H13B12819   0.501   3.660   7.578  0.1595  0.1041  0.5949
  122OSM   H13C12820   0.341   3.713   7.548 -0.9000  1.7302  2.8958
  122OSM    C1212821   0.451   3.696   7.324  0.0589  0.1559 -0.1829
  122OSM   H12A12822   0.514   3.610   7.346  0.2773 -0.3044 -2.4157
  122OSM   H12B12823   0.472   3.741   7.229  3.0276  1.8424  1.1149
  122OSM    C1112824   0.309   3.640   7.325  0.6812 -0.3860 -0.2463
  122OSM   H11A12825   0.288   3.590   7.228  1.5687 -2.2749  0.4761
  122OSM   H11B12826   0.230   3.716   7.342  1.3247  0.3902 -0.6834
  122OSM      P12827   0.164   3.457   7.435 -0.5436  0.3122  0.3583
  122OSM    O1312828   0.195   3.308   7.445 -0.6402  0.3870  0.2128
  122OSM    O1412829   0.099   3.515   7.552 -0.2960  0.5107 -0.5401
  122OSM    O1112830   0.084   3.488   7.304  0.4015  0.4903  0.0650
  122OSM    O1212831   0.294   3.538   7.420  0.2802 -0.5636 -0.1740
  122OSM    C1S12832   0.115   3.414   7.186 -0.4747 -0.3254 -0.3616
  122OSM    H1S12833   0.101   3.306   7.207  2.1290 -0.3463  1.7435
  122OSM    H1T12834   0.225   3.420   7.169 -0.1288  0.2377  1.7644
  122OSM     NF12835   0.109   3.408   6.941 -0.2541  0.5219  0.1487
  122OSM    HNF12836   0.190   3.442   6.894  0.6873 -2.3945 -0.5950
  122OSM    C2S12837   0.053   3.471   7.056  0.2145  0.4035  0.5660
  122OSM    H2S12838  -0.055   3.447   7.062 -0.4469  2.5857 -1.1616
  122OSM    C3S12839   0.063   3.624   7.063  0.4262 -0.4070 -0.2375
  122OSM    H3S12840   0.169   3.656   7.073 -0.0738  0.9096  1.3695
  122OSM     O312841  -0.001   3.691   7.171 -0.0395 -0.1903 -0.1016
  122OSM    HO312842  -0.002   3.620   7.235  0.1085  0.5154  0.7114
  122OSM    C4S12843   0.009   3.670   6.928 -0.3334  0.1012 -0.6155
  122OSM    H4S12844   0.069   3.640   6.842  1.0946 -0.1604  0.4371
  122OSM    C5S12845  -0.093   3.760   6.910  0.4019  0.6057 -0.2173
  122OSM    H5S12846  -0.125   3.812   7.001  0.3847 -0.0237  0.1442
  122OSM    C6S12847  -0.131   3.822   6.781  0.0478  0.3661 -0.0600
  122OSM    H6S12848  -0.143   3.933   6.787 -0.4204  0.3915 -1.2658
  122OSM    H6T12849  -0.228   3.775   6.754 -0.0329 -0.6290  1.7590
  122OSM    C7S12850  -0.042   3.787   6.664  0.0796  0.1167  0.7308
  122OSM    H7S12851  -0.048   3.676   6.664  0.9190  0.0398 -1.0298
  122OSM    H7T12852   0.066   3.811   6.675  0.4497 -1.9065  2.2807
  122OSM    C8S12853  -0.085   3.856   6.528  0.4661  0.2560  0.1719
  122OSM    H8S12854  -0.092   3.966   6.539  0.3426  0.0386  3.1712
  122OSM    H8T12855  -0.190   3.825   6.507  1.0167 -0.0386 -2.5247
  122OSM    C9S12856  -0.006   3.802   6.408 -0.9004  0.1190 -0.0407
  122OSM    H9S12857  -0.025   3.693   6.400  1.5076 -0.3881  0.2706
  122OSM    H9T12858   0.099   3.835   6.427 -1.7093  2.4383  0.7860
  122OSM   C10S12859  -0.042   3.870   6.277 -0.3352 -0.1306 -0.8134
  122OSM   H10S12860   0.038   3.864   6.201 -1.6341 -1.0201 -2.1607
  122OSM   H10T12861  -0.061   3.978   6.293 -1.0733 -0.6407  2.5897
  122OSM   C11S12862  -0.173   3.807   6.224 -0.1157 -0.7120 -0.8204
  122OSM   H11S12863  -0.249   3.834   6.299  2.0271  0.0034  1.2256
  122OSM   H11T12864  -0.160   3.697   6.209  0.7017 -0.7758  0.2475
  122OSM   C12S12865  -0.205   3.866   6.089  0.0400 -0.4420  0.0714
  122OSM   H12S12866  -0.223   3.975   6.104  1.0152 -0.3838  1.0008
  122OSM   H12T12867  -0.309   3.834   6.069 -0.2691  1.1659 -1.0207
  122OSM   C13S12868  -0.112   3.829   5.981  0.6208 -0.1730  0.0033
  122OSM   H13S12869  -0.098   3.720   5.973  3.2484  0.0904  0.1956
  122OSM   H13T12870  -0.017   3.885   5.996 -0.5052  1.9975 -0.4686
  122OSM   C14S12871  -0.170   3.878   5.848 -0.2858  0.2415 -0.6098
  122OSM   H14S12872  -0.188   3.986   5.867  0.5003  0.6018 -1.8081
  122OSM   H14T12873  -0.264   3.823   5.824 -0.4897  0.8236 -1.1499
  122OSM   C15S12874  -0.065   3.861   5.735 -0.1492 -0.2909  0.0325
  122OSM   H15S12875  -0.037   3.754   5.729  2.0292  0.2776 -1.0958
  122OSM   H15T12876   0.026   3.919   5.764  0.9327 -0.3139 -2.9717
  122OSM   C16S12877  -0.128   3.902   5.602  0.3680 -0.6483 -0.5186
  122OSM   H16S12878  -0.169   4.005   5.607 -2.2870 -1.5726 -1.3917
  122OSM   H16T12879  -0.217   3.837   5.591  0.6072 -1.2655  1.0048
  122OSM   C17S12880  -0.023   3.908   5.489 -0.2121  0.2871 -0.1432
  122OSM   H17S12881   0.043   3.819   5.496  2.1869  1.9365 -0.7746
  122OSM   H17T12882   0.036   3.999   5.509 -0.9676  0.8608 -0.4872
  122OSM   C18S12883  -0.094   3.909   5.351  0.0835 -0.7107 -0.5073
  122OSM   H18S12884  -0.023   3.925   5.267 -1.0117  0.4802 -1.2377
  122OSM   H18T12885  -0.147   4.006   5.346  0.7097 -0.3289 -0.0102
  122OSM   H18U12886  -0.145   3.811   5.338 -0.1274 -0.6021 -0.4845
  122OSM    C1F12887   0.086   3.278   6.899  0.5788 -0.8022  0.1905
  122OSM     OF12888   0.010   3.213   6.961 -0.1201 -0.5488  0.2296
  122OSM    C2F12889   0.151   3.223   6.778  0.4447 -0.1061  0.1558
  122OSM    H2F12890   0.239   3.159   6.806  1.2846  0.4257 -1.1818
  122OSM    H2G12891   0.188   3.303   6.711 -2.2086 -1.1665 -2.8119
  122OSM    C3F12892   0.066   3.113   6.702 -0.6115 -0.4876  0.2761
  122OSM    H3F12893  -0.032   3.150   6.667 -0.0469 -0.6095 -1.5261
  122OSM    H3G12894   0.043   3.024   6.764 -2.6619 -0.5318 -0.4656
  122OSM    C4F12895   0.144   3.051   6.583  0.2128 -0.2725 -0.3223
  122OSM    H4F12896   0.078   2.976   6.535 -0.1144 -0.0490 -0.2218
  122OSM    H4G12897   0.237   3.007   6.626  1.6032  1.4779 -1.4078
  122OSM    C5F12898   0.183   3.154   6.475 -0.5761 -0.0776  0.6310
  122OSM    H5F12899   0.227   3.095   6.392 -0.0399 -0.0329  0.8780
  122OSM    H5G12900   0.257   3.231   6.505  0.0794 -0.8007  0.9072
  122OSM    C6F12901   0.071   3.233   6.402 -0.5831  0.0368 -0.4559
  122OSM    H6F12902   0.015   3.281   6.485  0.4481  0.9757 -0.2742
  122OSM    H6G12903  -0.004   3.168   6.353  0.5638 -0.9720 -0.9484
  122OSM    C7F12904   0.134   3.311   6.284 -0.2675 -0.1716  0.2590
  122OSM    H7F12905   0.184   3.243   6.211 -0.0584  1.7868 -1.5244
  122OSM    H7G12906   0.202   3.383   6.333  0.1199 -0.2136 -0.2116
  122OSM    C8F12907   0.021   3.375   6.211 -0.1536 -0.1230 -0.1863
  122OSM    H8F12908  -0.057   3.399   6.287  0.2693 -0.6082  0.3993
  122OSM    H8G12909  -0.017   3.302   6.137  1.8589 -1.5520  0.1421
  122OSM    C9F12910   0.056   3.499   6.138  0.0175  0.3375  0.2497
  122OSM    H9F12911   0.003   3.589   6.175  0.0835 -0.0383  1.2927
  122OSM   C10F12912   0.127   3.509   6.032 -0.8426 -0.4732  0.3439
  122OSM   H10F12913   0.141   3.609   5.990 -0.7932  0.3099  2.1554
  122OSM   C11F12914   0.206   3.399   5.967 -0.6821  0.1474 -0.2771
  122OSM   H11F12915   0.146   3.305   5.972 -0.0914 -0.2307 -0.2021
  122OSM   H11G12916   0.294   3.377   6.031 -0.8978  2.5894  0.9803
  122OSM   C12F12917   0.248   3.409   5.822 -0.3277 -0.0928 -0.0543
  122OSM   H12F12918   0.303   3.316   5.796  1.7888  1.0348  0.2564
  122OSM   H12G12919   0.321   3.492   5.813 -1.7996  1.0856 -1.8380
  122OSM   C13F12920   0.128   3.431   5.723 -0.1536  0.0289 -0.4829
  122OSM   H13F12921   0.078   3.530   5.735 -0.7845 -0.4109  0.6127
  122OSM   H13G12922   0.050   3.358   5.750 -0.8128  0.0829 -2.1205
  122OSM   C14F12923   0.165   3.423   5.572  0.0811 -0.2916  0.5966
  122OSM   H14F12924   0.077   3.382   5.517 -0.4282  0.4113  0.8543
  122OSM   H14G12925   0.243   3.346   5.554  0.2358  0.2678 -1.3541
  122OSM   C15F12926   0.206   3.554   5.506  0.1693 -0.2100  0.8797
  122OSM   H15F12927   0.282   3.605   5.570 -0.0066  0.5794  0.4687
  122OSM   H15G12928   0.114   3.612   5.486 -0.9661 -1.5190  2.0358
  122OSM   C16F12929   0.263   3.532   5.363 -0.7622  0.5303 -0.0222
  122OSM   H16F12930   0.347   3.460   5.365 -0.7044  0.5663 -0.7265
  122OSM   H16G12931   0.313   3.625   5.327 -0.1850 -0.6574 -2.5589
  122OSM   C17F12932   0.169   3.493   5.254  0.0183 -0.4459  0.5164
  122OSM   H17F12933   0.100   3.417   5.296 -0.2724 -1.5772 -1.8138
  122OSM   H17G12934   0.224   3.439   5.174 -1.2401  1.4920 -1.7794
  122OSM   C18F12935   0.086   3.597   5.181 -0.2459  0.0076  0.2387
  122OSM   H18F12936   0.142   3.680   5.132  0.0725  0.1959  0.9153
  122OSM   H18G12937   0.008   3.646   5.242  0.9450  1.2395  0.8286
  122OSM   H18H12938   0.036   3.543   5.098 -0.7751  0.6600  0.1179
  123OSM      N12939   4.661   2.299   2.257 -0.7934  0.0116 -0.3237
  123OSM    C1512940   4.538   2.347   2.331 -0.4865  0.1932 -0.2100
  123OSM   H15A12941   4.533   2.455   2.318  0.6480  0.3220  0.3704
  123OSM   H15B12942   4.553   2.313   2.432  2.9154  1.2421 -0.2119
  123OSM   H15C12943   4.450   2.302   2.287 -1.3390  2.0578 -0.5339
  123OSM    C1412944   4.636   2.333   2.114 -0.3480 -0.0515 -0.6149
  123OSM   H14A12945   4.724   2.316   2.054 -1.0132 -0.8935 -1.3656
  123OSM   H14B12946   4.614   2.439   2.108  0.6049  0.3932  2.2929
  123OSM   H14C12947   4.560   2.276   2.064 -1.1408  0.1359  0.3446
  123OSM    C1312948   4.777   2.381   2.314 -0.1279  0.6977  0.1023
  123OSM   H13A12949   4.763   2.480   2.273  1.3921  0.4997 -0.9830
  123OSM   H13B12950   4.873   2.339   2.289 -0.8903 -0.5016 -0.8980
  123OSM   H13C12951   4.767   2.400   2.420  1.3034 -1.6763  0.7377
  123OSM    C1212952   4.694   2.152   2.282 -0.1786  0.2360 -0.1847
  123OSM   H12A12953   4.612   2.088   2.252 -1.7891  1.4567  1.4143
  123OSM   H12B12954   4.708   2.139   2.388 -2.1300  0.1117  0.1063
  123OSM    C1112955   4.823   2.102   2.225 -0.4956 -0.1663  0.2525
  123OSM   H11A12956   4.821   2.144   2.122  2.0732 -0.2075  0.1284
  123OSM   H11B12957   4.826   1.991   2.225  1.3416 -0.1862  2.7072
  123OSM      P12958   5.068   2.104   2.274 -0.1153  0.0123  0.2715
  123OSM    O1312959   5.086   1.965   2.317  0.4342 -0.3350 -0.5147
  123OSM    O1412960   5.122   2.146   2.142 -0.0460 -0.2481  0.0429
  123OSM    O1112961   5.157   2.180   2.381 -0.0390 -0.0227 -0.3129
  123OSM    O1212962   4.930   2.159   2.303  0.2185 -0.6560 -0.3683
  123OSM    C1S12963   5.085   2.265   2.474  0.2649 -0.8165 -0.2880
  123OSM    H1S12964   4.999   2.213   2.521 -0.1573  1.8685  2.2297
  123OSM    H1T12965   5.057   2.362   2.426 -1.8904 -1.2268  0.0508
  123OSM     NF12966   5.089   2.367   2.693  0.3841 -0.1865  0.1182
  123OSM    HNF12967   5.101   2.466   2.696  2.2803 -0.3668 -0.3691
  123OSM    C2S12968   5.169   2.309   2.594 -0.1513  0.2112 -0.2061
  123OSM    H2S12969   5.217   2.221   2.641 -1.8308 -0.0198  1.1705
  123OSM    C3S12970   5.281   2.401   2.539 -0.2059 -0.1531 -0.5969
  123OSM    H3S12971   5.236   2.503   2.537 -0.0428  0.1331  3.0574
  123OSM     O312972   5.328   2.369   2.405 -0.0898  0.4354  0.3134
  123OSM    HO312973   5.274   2.290   2.389 -2.6615  1.9310  0.9700
  123OSM    C4S12974   5.401   2.423   2.631 -0.4452  0.1880  0.0992
  123OSM    H4S12975   5.395   2.505   2.704 -3.2130  0.4213 -0.3081
  123OSM    C5S12976   5.512   2.342   2.640  0.3284 -0.1461 -0.1223
  123OSM    H5S12977   5.531   2.254   2.578  0.5680  0.4745 -0.9543
  123OSM    C6S12978   5.612   2.357   2.752  0.9248  0.2654  0.1925
  123OSM    H6S12979   5.579   2.442   2.814 -0.9257  0.3145 -0.7739
  123OSM    H6T12980   5.711   2.393   2.717 -0.4561  5.1086  0.5696
  123OSM    C7S12981   5.627   2.236   2.840  0.2460 -0.1067 -0.3865
  123OSM    H7S12982   5.626   2.147   2.773 -1.1907  2.2455 -3.7827
  123OSM    H7T12983   5.533   2.223   2.899  2.2843 -1.5279  2.8466
  123OSM    C8S12984   5.741   2.245   2.942 -0.9827 -0.6394  0.1199
  123OSM    H8S12985   5.833   2.241   2.881 -1.8932  0.9484 -1.4670
  123OSM    H8T12986   5.737   2.157   3.011  0.1906 -0.8118 -0.0099
  123OSM    C9S12987   5.742   2.373   3.018 -0.6544 -0.5748  0.2557
  123OSM    H9S12988   5.641   2.381   3.063 -0.6836 -0.3997  0.1616
  123OSM    H9T12989   5.765   2.460   2.952  0.3916  0.3974  1.8093
  123OSM   C10S12990   5.853   2.384   3.123 -0.4278  0.1256  0.2739
  123OSM   H10S12991   5.944   2.429   3.077  0.2374 -0.8007  0.6556
  123OSM   H10T12992   5.888   2.282   3.148  3.7031  1.0869 -0.7704
  123OSM   C11S12993   5.819   2.465   3.247 -0.7422 -0.0526 -0.2231
  123OSM   H11S12994   5.735   2.423   3.307  0.3495 -2.1177 -0.0594
  123OSM   H11T12995   5.785   2.566   3.214  0.7928  0.2900 -0.8541
  123OSM   C12S12996   5.927   2.487   3.352  0.0301 -0.9101 -0.1338
  123OSM   H12S12997   5.999   2.564   3.317 -0.1270 -1.2184 -1.1674
  123OSM   H12T12998   5.990   2.397   3.362  0.9445 -0.6774 -2.9957
  123OSM   C13S12999   5.861   2.518   3.488  0.6693  0.4792  0.3100
  123OSM   H13S13000   5.788   2.439   3.518  0.3802  0.4329 -0.4795
  123OSM   H13T13001   5.807   2.614   3.478  2.8153  2.1439  3.1831
  123OSM   C14S13002   5.970   2.549   3.592  0.6461  0.2568  0.0734
  123OSM   H14S13003   6.011   2.651   3.576  1.9287 -0.3694 -0.7333
  123OSM   H14T13004   6.053   2.477   3.580 -1.3316 -2.4357  1.5574
  123OSM   C15S13005   5.923   2.545   3.735  0.4278  0.1295  0.4253
  123OSM   H15S13006   5.916   2.436   3.754  0.8592  0.2112  1.1031
  123OSM   H15T13007   5.825   2.595   3.746  0.1038 -1.0165  4.4444
  123OSM   C16S13008   6.030   2.598   3.826 -0.4794 -0.1177  0.3961
  123OSM   H16S13009   6.041   2.704   3.795 -0.4108 -0.2836 -0.1559
  123OSM   H16T13010   6.126   2.546   3.806 -0.9457 -0.4626 -1.0798
  123OSM   C17S13011   5.995   2.580   3.969 -0.3526  0.8327 -0.6071
  123OSM   H17S13012   5.890   2.547   3.985  0.0979  0.7492  3.2290
  123OSM   H17T13013   5.997   2.676   4.025  0.2900  0.2339  0.4402
  123OSM   C18S13014   6.086   2.484   4.040 -0.3464  1.5339  0.7304
  123OSM   H18S13015   6.192   2.506   4.017 -0.2438 -0.0632 -0.5887
  123OSM   H18T13016   6.076   2.384   3.992  0.3530  1.7620  0.0854
  123OSM   H18U13017   6.070   2.478   4.150 -2.1962 -2.8902  0.4349
  123OSM    C1F13018   5.007   2.299   2.780  0.0664 -0.4017  0.5991
  123OSM     OF13019   5.017   2.181   2.797  0.6251 -0.2024  0.0411
  123OSM    C2F13020   4.898   2.379   2.847 -0.4032 -0.0770  0.0096
  123OSM    H2F13021   4.833   2.412   2.763  0.8181  0.1757 -0.8702
  123OSM    H2G13022   4.947   2.474   2.877 -0.4649 -0.2759  0.7484
  123OSM    C3F13023   4.823   2.305   2.969 -0.7222 -0.2360  0.1076
  123OSM    H3F13024   4.772   2.216   2.927 -1.3111 -0.4661  1.2651
  123OSM    H3G13025   4.734   2.360   3.007 -0.2211 -0.5200  1.7702
  123OSM    C4F13026   4.908   2.262   3.097  0.2840  0.0369  0.5162
  123OSM    H4F13027   4.961   2.352   3.135 -0.0941  0.3203  0.3793
  123OSM    H4G13028   4.978   2.178   3.077 -1.6427 -1.8895  1.4291
  123OSM    C5F13029   4.819   2.194   3.201 -0.2507  0.0761 -0.9389
  123OSM    H5F13030   4.754   2.122   3.146 -0.2796  0.5910 -1.5942
  123OSM    H5G13031   4.736   2.258   3.239 -0.8311 -0.4804 -1.2497
  123OSM    C6F13032   4.896   2.134   3.315 -0.5530 -0.2575 -1.1882
  123OSM    H6F13033   4.932   2.215   3.382 -0.2009  2.1044 -4.0276
  123OSM    H6G13034   4.984   2.077   3.276  0.4731 -1.1645  2.1304
  123OSM    C7F13035   4.810   2.041   3.404 -0.2435 -0.4491  0.0788
  123OSM    H7F13036   4.749   1.983   3.331 -1.5228  1.0326 -0.0774
  123OSM    H7G13037   4.739   2.108   3.456 -2.0035 -0.5872 -2.0126
  123OSM    C8F13038   4.897   1.954   3.501  0.6897  0.2260  0.2056
  123OSM    H8F13039   4.980   2.023   3.529  0.1160  0.9225  0.1953
  123OSM    H8G13040   4.930   1.857   3.458 -2.9845 -0.6882 -0.8505
  123OSM    C9F13041   4.818   1.911   3.624  0.7855 -0.8000  0.1669
  123OSM    H9F13042   4.712   1.889   3.605  1.2283 -0.9286 -2.5606
  123OSM   C10F13043   4.868   1.886   3.749 -0.6683  0.2569  0.0402
  123OSM   H10F13044   4.798   1.874   3.833 -0.8011 -0.0378 -0.1090
  123OSM   C11F13045   5.005   1.904   3.803  0.2449 -0.7787  0.0334
  123OSM   H11F13046   5.071   1.960   3.733  1.3805 -1.7331  0.2860
  123OSM   H11G13047   5.062   1.810   3.823 -1.0606 -1.3531  1.1895
  123OSM   C12F13048   4.987   1.971   3.940 -0.0216  0.5970  0.1114
  123OSM   H12F13049   4.894   1.938   3.993  0.3037  0.4645  0.6031
  123OSM   H12G13050   4.981   2.078   3.909 -0.1960  0.4793 -0.2686
  123OSM   C13F13051   5.108   1.951   4.042 -0.2872  0.2734 -0.1492
  123OSM   H13F13052   5.201   1.943   3.980 -0.0468  2.5958 -0.1683
  123OSM   H13G13053   5.104   1.846   4.078  1.3669  0.5838  1.0535
  123OSM   C14F13054   5.114   2.049   4.158 -0.1654  0.2085 -0.4427
  123OSM   H14F13055   5.022   2.037   4.219  0.4629 -3.6991 -0.0062
  123OSM   H14G13056   5.120   2.155   4.124  0.2886  0.1639 -0.5135
  123OSM   C15F13057   5.231   2.022   4.257 -0.2568 -0.5500 -0.1014
  123OSM   H15F13058   5.335   2.040   4.222 -0.8458  1.6720 -0.9147
  123OSM   H15G13059   5.219   1.916   4.287  0.8545 -0.9687 -1.0649
  123OSM   C16F13060   5.217   2.113   4.383  0.0013  0.9275  0.3411
  123OSM   H16F13061   5.112   2.104   4.419 -0.1848 -0.0074 -0.3942
  123OSM   H16G13062   5.228   2.218   4.350  2.8390  0.0321 -2.0823
  123OSM   C17F13063   5.327   2.091   4.490 -0.6543 -0.7202  0.1891
  123OSM   H17F13064   5.314   2.175   4.562 -0.6128  0.0092 -0.6471
  123OSM   H17G13065   5.424   2.116   4.443 -1.8499 -0.2784 -2.1670
  123OSM   C18F13066   5.335   1.959   4.555 -0.2343  0.6689  0.3691
  123OSM   H18F13067   5.349   1.871   4.488  2.4126  0.6542  0.8545
  123OSM   H18G13068   5.252   1.937   4.626  0.7276  1.0310  1.6198
  123OSM   H18H13069   5.428   1.944   4.613 -0.2348 -1.7666 -0.1502
  124OSM      N13070   5.345   2.810   2.260  1.0357 -0.3814  0.6850
  124OSM    C1513071   5.233   2.891   2.208  0.7358 -0.3858 -0.3187
  124OSM   H15A13072   5.195   2.865   2.110 -1.5134 -2.3849  0.9669
  124OSM   H15B13073   5.270   2.992   2.196  1.4534 -0.5881  0.1387
  124OSM   H15C13074   5.154   2.898   2.282 -0.3273 -2.9076 -1.1119
  124OSM    C1413075   5.287   2.671   2.287 -0.6657  0.1647  0.5626
  124OSM   H14A13076   5.370   2.609   2.318  1.1155  2.1873  0.1069
  124OSM   H14B13077   5.241   2.634   2.197  0.5327 -0.3686  0.1529
  124OSM   H14C13078   5.212   2.670   2.366 -0.3440  0.3522  0.8723
  124OSM    C1313079   5.454   2.786   2.157  0.5577 -0.6300  0.1769
  124OSM   H13A13080   5.513   2.870   2.123  1.0076 -0.9494  0.1656
  124OSM   H13B13081   5.411   2.739   2.070  1.8768  1.4319 -1.6966
  124OSM   H13C13082   5.523   2.718   2.204  0.4559 -0.5243  0.4809
  124OSM    C1213083   5.397   2.873   2.380 -0.4793  0.2738  0.3745
  124OSM   H12A13084   5.445   2.966   2.355  2.2368 -0.9043  0.9003
  124OSM   H12B13085   5.472   2.805   2.417 -1.4464 -1.5361 -0.8196
  124OSM    C1113086   5.301   2.901   2.498  0.1617 -0.3173  0.0075
  124OSM   H11A13087   5.240   2.993   2.483  0.7724  0.3855  1.5748
  124OSM   H11B13088   5.367   2.933   2.581 -0.7148 -0.6221  0.8312
  124OSM      P13089   5.136   2.791   2.661 -0.2250 -0.0857  0.0816
  124OSM    O1313090   5.055   2.669   2.679 -0.0867  0.6224 -0.2690
  124OSM    O1413091   5.215   2.830   2.783 -0.2742 -0.4830 -0.3029
  124OSM    O1113092   5.036   2.913   2.638  0.2546  0.0813 -0.5629
  124OSM    O1213093   5.228   2.790   2.538 -0.5440 -0.3932  0.3265
  124OSM    C1S13094   4.926   2.928   2.736 -0.2614  0.5840  0.2207
  124OSM    H1S13095   4.891   2.823   2.748  0.5107  0.1821 -0.9262
  124OSM    H1T13096   4.843   2.993   2.701  1.2162  0.7358 -3.3575
  124OSM     NF13097   4.862   2.953   2.965  0.2824 -0.5854  0.1590
  124OSM    HNF13098   4.801   3.030   2.979 -0.3478 -0.9378 -0.5957
  124OSM    C2S13099   4.964   2.983   2.873 -0.0421 -0.8473 -0.3745
  124OSM    H2S13100   5.052   2.926   2.912  0.2965 -0.7525 -0.9911
  124OSM    C3S13101   5.015   3.126   2.877  0.6865 -0.2235 -0.3736
  124OSM    H3S13102   4.940   3.202   2.844 -0.0150 -0.8169 -0.1718
  124OSM     O313103   5.128   3.135   2.789  0.2572  0.0992  0.4142
  124OSM    HO313104   5.144   3.047   2.753 -0.4889 -0.3230  1.0825
  124OSM    C4S13105   5.057   3.174   3.010 -0.1740  0.7176 -0.2667
  124OSM    H4S13106   4.979   3.217   3.075 -2.3369 -1.2744 -1.3640
  124OSM    C5S13107   5.182   3.167   3.060  0.2773  0.4095 -0.6068
  124OSM    H5S13108   5.260   3.127   2.993 -1.7347 -3.3655 -0.9525
  124OSM    C6S13109   5.229   3.217   3.197  0.0941 -1.3009  0.4240
  124OSM    H6S13110   5.279   3.317   3.196 -1.2772 -0.5544  1.8877
  124OSM    H6T13111   5.305   3.144   3.231  2.2100 -0.1760 -1.6021
  124OSM    C7S13112   5.121   3.241   3.309 -0.3093 -0.2639  0.3014
  124OSM    H7S13113   5.073   3.142   3.325  2.1258 -1.5064  0.2291
  124OSM    H7T13114   5.044   3.311   3.269 -0.6131 -0.3505  0.7250
  124OSM    C8S13115   5.183   3.291   3.442 -0.0572  0.3100 -0.2335
  124OSM    H8S13116   5.179   3.402   3.440 -0.8490  0.2782 -1.8307
  124OSM    H8T13117   5.287   3.251   3.442 -0.0707  0.2582 -0.9821
  124OSM    C9S13118   5.105   3.258   3.574 -0.3775  0.1213 -0.5631
  124OSM    H9S13119   5.091   3.149   3.586  0.0789  0.1570  0.4827
  124OSM    H9T13120   5.002   3.301   3.577 -0.1693  0.8523 -2.6526
  124OSM   C10S13121   5.165   3.324   3.695 -0.0459 -0.0342 -0.1928
  124OSM   H10S13122   5.173   3.433   3.673 -0.3022 -0.1908 -1.1230
  124OSM   H10T13123   5.268   3.283   3.696  0.3767  0.9082 -1.8962
  124OSM   C11S13124   5.092   3.278   3.826  0.1820 -0.2830  0.2775
  124OSM   H11S13125   5.032   3.184   3.819 -1.9391  0.9158  1.1794
  124OSM   H11T13126   5.007   3.347   3.844  0.6657  0.4446 -0.1636
  124OSM   C12S13127   5.174   3.269   3.960 -0.0987 -0.4077 -0.5352
  124OSM   H12S13128   5.212   3.371   3.981 -0.3115 -0.0319 -1.8856
  124OSM   H12T13129   5.261   3.206   3.931 -1.1958 -2.9936  1.3967
  124OSM   C13S13130   5.095   3.207   4.075  0.2179 -0.7358 -0.9024
  124OSM   H13S13131   5.076   3.099   4.056  1.4002 -1.0888 -0.1918
  124OSM   H13T13132   4.997   3.256   4.094  1.3111  0.9011  0.9347
  124OSM   C14S13133   5.155   3.235   4.213  0.4763  0.6161  0.1043
  124OSM   H14S13134   5.180   3.343   4.217  0.2837  0.6419  3.6409
  124OSM   H14T13135   5.252   3.180   4.214  0.0586 -0.1545 -0.4442
  124OSM   C15S13136   5.065   3.198   4.333 -0.0901 -0.2614  0.1730
  124OSM   H15S13137   5.040   3.090   4.338 -0.0942 -0.5489 -3.3053
  124OSM   H15T13138   4.966   3.248   4.332 -0.0009  0.0010  1.8428
  124OSM   C16S13139   5.135   3.233   4.470  0.1564  0.2367  0.9692
  124OSM   H16S13140   5.169   3.339   4.470  0.4472  0.1689 -0.3848
  124OSM   H16T13141   5.226   3.172   4.486 -0.8199 -1.4974  0.1778
  124OSM   C17S13142   5.058   3.196   4.590  0.1131 -0.6962  0.3882
  124OSM   H17S13143   5.032   3.089   4.605 -0.3381 -0.6570 -0.0900
  124OSM   H17T13144   4.956   3.240   4.581  0.5199 -0.0926 -1.5643
  124OSM   C18S13145   5.104   3.269   4.715 -0.0167  0.0868 -0.0975
  124OSM   H18S13146   5.215   3.267   4.716  0.0135 -1.0224 -1.5616
  124OSM   H18T13147   5.060   3.245   4.814  0.9135  0.5006  0.4248
  124OSM   H18U13148   5.074   3.372   4.685  0.4429 -0.2381 -1.8159
  124OSM    C1F13149   4.833   2.826   3.008 -0.6306 -0.4873 -0.4043
  124OSM     OF13150   4.896   2.728   2.966 -0.1998 -0.1227 -0.5051
  124OSM    C2F13151   4.715   2.812   3.105  0.4513  0.1723 -0.5069
  124OSM    H2F13152   4.620   2.794   3.050 -1.0466 -0.9581  2.2707
  124OSM    H2G13153   4.698   2.911   3.151  1.4366 -0.4735  1.3606
  124OSM    C3F13154   4.727   2.717   3.219 -0.1415 -0.0732 -0.5851
  124OSM    H3F13155   4.728   2.614   3.176  0.9896 -0.1478 -0.4068
  124OSM    H3G13156   4.637   2.722   3.284  0.1084  1.2268 -0.3191
  124OSM    C4F13157   4.863   2.745   3.302 -0.3381  0.3821  0.4246
  124OSM    H4F13158   4.871   2.854   3.321 -0.2047  0.0961  2.1956
  124OSM    H4G13159   4.948   2.704   3.243  0.5205 -1.0667  2.5442
  124OSM    C5F13160   4.870   2.676   3.441  0.1819 -0.3636  0.4237
  124OSM    H5F13161   4.780   2.712   3.494  0.5429 -0.1202  0.8784
  124OSM    H5G13162   4.954   2.708   3.507  1.2826 -1.1657 -0.5247
  124OSM    C6F13163   4.887   2.526   3.428 -0.0541 -0.6662 -0.0407
  124OSM    H6F13164   4.984   2.505   3.477 -0.5017  1.7979  2.1657
  124OSM    H6G13165   4.898   2.501   3.320  0.7904  0.9667 -0.3736
  124OSM    C7F13166   4.764   2.464   3.491  0.4405 -0.3288  0.2965
  124OSM    H7F13167   4.762   2.357   3.460 -2.1063 -0.2263 -0.0784
  124OSM    H7G13168   4.668   2.508   3.459 -0.6257 -0.9626  2.4062
  124OSM    C8F13169   4.771   2.468   3.647  0.8181 -0.8156  0.1032
  124OSM    H8F13170   4.667   2.450   3.681 -0.3698  2.4841 -1.3823
  124OSM    H8G13171   4.803   2.572   3.674 -2.4748  0.3928 -0.2107
  124OSM    C9F13172   4.865   2.371   3.698  0.4708 -0.0709 -0.3653
  124OSM    H9F13173   4.865   2.273   3.647  1.5961  0.3961 -1.3292
  124OSM   C10F13174   4.932   2.387   3.810 -0.2713 -0.7323 -0.4640
  124OSM   H10F13175   4.995   2.302   3.841 -0.4762 -0.4781  0.7267
  124OSM   C11F13176   4.936   2.514   3.888 -0.5507  0.6124  0.1423
  124OSM   H11F13177   4.851   2.584   3.873 -0.6325  0.7561  1.1530
  124OSM   H11G13178   5.024   2.571   3.851 -0.9250  0.1390 -1.5517
  124OSM   C12F13179   4.942   2.485   4.040 -0.0873  0.4621  0.1900
  124OSM   H12F13180   4.904   2.382   4.059 -0.5759  0.7482  0.8225
  124OSM   H12G13181   4.884   2.559   4.100  2.5718  1.2213  1.9911
  124OSM   C13F13182   5.091   2.494   4.088  0.1053  0.4564 -0.2873
  124OSM   H13F13183   5.143   2.590   4.066  1.5286 -0.7461 -2.5758
  124OSM   H13G13184   5.150   2.423   4.027 -1.4091  1.0801 -2.6297
  124OSM   C14F13185   5.108   2.445   4.228 -0.0379  1.5201 -0.4653
  124OSM   H14F13186   5.213   2.444   4.264 -0.4354 -0.8037  0.8151
  124OSM   H14G13187   5.082   2.339   4.249  2.0243  0.6673 -1.8865
  124OSM   C15F13188   5.035   2.540   4.333  0.1055  0.8033 -0.1472
  124OSM   H15F13189   4.931   2.553   4.296  0.0624  0.1859 -0.2453
  124OSM   H15G13190   5.077   2.643   4.326 -1.8839  1.6544 -0.2148
  124OSM   C16F13191   5.022   2.490   4.481  0.0908  0.0550 -0.7548
  124OSM   H16F13192   4.989   2.561   4.560  1.1129 -0.7066  0.4106
  124OSM   H16G13193   5.128   2.467   4.508  0.6802  1.2036 -1.9976
  124OSM   C17F13194   4.926   2.374   4.504  0.1285  0.4712  0.4104
  124OSM   H17F13195   4.931   2.305   4.417 -0.2320  0.3585  0.4777
  124OSM   H17G13196   4.822   2.414   4.496  0.5749  1.3419 -1.6597
  124OSM   C18F13197   4.952   2.287   4.629 -0.9342 -0.5643 -0.2484
  124OSM   H18F13198   4.943   2.343   4.724 -1.1412 -2.6458  1.0297
  124OSM   H18G13199   5.044   2.225   4.617 -1.0965 -0.6905 -0.8965
  124OSM   H18H13200   4.871   2.210   4.636 -1.8780  0.4157 -0.1591
  125OSM      N13201   5.097   0.493   2.663 -0.6496  0.4686 -0.7504
  125OSM    C1513202   5.061   0.533   2.530  0.3648 -0.2958 -0.1515
  125OSM   H15A13203   4.983   0.465   2.497  0.3534 -0.5295  0.3495
  125OSM   H15B13204   5.135   0.521   2.452 -0.8310 -1.7942 -1.1162
  125OSM   H15C13205   5.023   0.634   2.525  0.0729 -0.3795  0.2885
  125OSM    C1413206   4.999   0.539   2.761 -0.3165  0.8367  0.1644
  125OSM   H14A13207   4.963   0.640   2.745 -0.3647  0.5999 -1.3556
  125OSM   H14B13208   5.032   0.540   2.864 -3.1158  6.4212  1.4140
  125OSM   H14C13209   4.909   0.479   2.772  0.2420 -0.4662 -1.8512
  125OSM    C1313210   5.092   0.341   2.669  0.2838 -0.5662  0.2216
  125OSM   H13A13211   5.148   0.300   2.586  0.5303 -0.8298  0.5141
  125OSM   H13B13212   4.991   0.303   2.658  0.6258 -1.5647  0.3820
  125OSM   H13C13213   5.134   0.292   2.755  0.6240 -2.9121 -1.1651
  125OSM    C1213214   5.236   0.536   2.698  0.4280 -0.7970  0.3925
  125OSM   H12A13215   5.225   0.643   2.690  0.9084 -0.7025  0.9399
  125OSM   H12B13216   5.302   0.496   2.622 -0.0640  0.2119 -0.5927
  125OSM    C1113217   5.286   0.510   2.835 -0.2585  0.2221 -0.0032
  125OSM   H11A13218   5.222   0.555   2.914 -0.5756 -0.6016  0.2246
  125OSM   H11B13219   5.385   0.558   2.846 -0.2594  1.1943 -3.3300
  125OSM      P13220   5.426   0.288   2.852  0.4683 -0.3602  0.1490
  125OSM    O1313221   5.402   0.150   2.893 -0.6304 -0.4043 -0.7036
  125OSM    O1413222   5.484   0.310   2.717 -0.5369  0.3233  0.0935
  125OSM    O1113223   5.521   0.354   2.960  0.7038 -0.1937 -0.2834
  125OSM    O1213224   5.293   0.377   2.870 -0.0561  0.1179 -0.1298
  125OSM    C1S13225   5.455   0.363   3.092  0.5863 -0.4104  0.7076
  125OSM    H1S13226   5.457   0.259   3.131  1.5455  0.3533  2.8504
  125OSM    H1T13227   5.350   0.398   3.093  0.5665 -0.4049 -0.3417
  125OSM     NF13228   5.470   0.450   3.310  0.2649  0.0673 -0.1434
  125OSM    HNF13229   5.394   0.513   3.300  1.3514  1.1700 -1.8834
  125OSM    C2S13230   5.537   0.445   3.183 -0.0628 -0.2968 -0.7695
  125OSM    H2S13231   5.639   0.402   3.193 -0.4240 -0.8766  0.5866
  125OSM    C3S13232   5.566   0.583   3.108  0.4724  0.7076  0.3229
  125OSM    H3S13233   5.479   0.607   3.043 -0.6620 -1.9819  0.7250
  125OSM     O313234   5.675   0.565   3.020 -0.2516 -0.4119  0.3334
  125OSM    HO313235   5.667   0.478   2.981  1.2768  0.2228 -1.5175
  125OSM    C4S13236   5.608   0.695   3.191  0.7328  0.3383  0.1952
  125OSM    H4S13237   5.711   0.673   3.225  1.0625 -0.6293 -1.3714
  125OSM    C5S13238   5.527   0.796   3.232  0.0901 -0.1578 -0.9275
  125OSM    H5S13239   5.422   0.805   3.203  0.1312  0.4271 -0.9116
  125OSM    C6S13240   5.579   0.901   3.321  0.5966 -0.1054 -0.6402
  125OSM    H6S13241   5.530   1.000   3.317  0.3324 -0.2452 -0.8839
  125OSM    H6T13242   5.688   0.922   3.309  0.7207  0.0906  0.6372
  125OSM    C7S13243   5.570   0.868   3.470  0.5583 -0.3888 -0.0329
  125OSM    H7S13244   5.463   0.861   3.500  0.5780 -0.8931 -0.0768
  125OSM    H7T13245   5.605   0.959   3.524 -0.8475 -0.1125  0.4655
  125OSM    C8S13246   5.645   0.748   3.517 -0.1493  0.1011 -0.4039
  125OSM    H8S13247   5.744   0.742   3.466  0.6372  1.2126  0.9237
  125OSM    H8T13248   5.584   0.660   3.487  0.6946 -0.7584  0.3249
  125OSM    C9S13249   5.659   0.740   3.674  0.3474  0.2560  0.0293
  125OSM    H9S13250   5.740   0.808   3.710  0.1421 -0.9853  3.0996
  125OSM    H9T13251   5.694   0.637   3.695  1.8518  0.7365  0.0392
  125OSM   C10S13252   5.524   0.747   3.748 -0.3683  0.2122 -0.6553
  125OSM   H10S13253   5.446   0.683   3.702  0.4478 -0.8249 -0.6354
  125OSM   H10T13254   5.486   0.851   3.743 -0.1004  0.3614  0.2995
  125OSM   C11S13255   5.548   0.714   3.898  0.9181  0.1765  0.1082
  125OSM   H11S13256   5.634   0.775   3.931 -0.0834  0.5187  2.2765
  125OSM   H11T13257   5.581   0.608   3.896 -0.2622 -0.1958 -1.3614
  125OSM   C12S13258   5.413   0.716   3.976 -0.0350 -0.1156  0.1533
  125OSM   H12S13259   5.328   0.668   3.922 -1.6320  3.2178 -0.5415
  125OSM   H12T13260   5.382   0.822   3.989 -1.7874 -0.5447 -0.2512
  125OSM   C13S13261   5.431   0.646   4.114  0.8746  0.3740 -0.5565
  125OSM   H13S13262   5.524   0.684   4.162  0.8129  2.3911 -1.9134
  125OSM   H13T13263   5.445   0.536   4.103 -1.9661 -0.1282  0.0728
  125OSM   C14S13264   5.313   0.673   4.210  0.8584  0.5820 -0.1733
  125OSM   H14S13265   5.222   0.615   4.184  0.3004  2.1352 -1.8722
  125OSM   H14T13266   5.274   0.774   4.185 -3.4647 -1.4734 -3.0178
  125OSM   C15S13267   5.351   0.640   4.354  0.1404 -0.6514 -0.5591
  125OSM   H15S13268   5.442   0.695   4.384 -2.0069  2.2825  1.1552
  125OSM   H15T13269   5.362   0.530   4.351  2.6485 -0.4523 -0.5222
  125OSM   C16S13270   5.245   0.666   4.467 -0.3399 -0.3659  0.0436
  125OSM   H16S13271   5.155   0.602   4.454  0.0753 -0.7069 -1.3845
  125OSM   H16T13272   5.208   0.769   4.484 -0.5020 -0.4240  0.0492
  125OSM   C17S13273   5.288   0.609   4.605 -0.1662 -0.2591 -0.3367
  125OSM   H17S13274   5.214   0.629   4.685 -0.0769  0.4659 -0.4318
  125OSM   H17T13275   5.382   0.660   4.633 -0.5227  1.0657 -1.4392
  125OSM   C18S13276   5.305   0.459   4.602  0.1793 -0.9381 -0.5179
  125OSM   H18S13277   5.210   0.409   4.572 -0.3035 -1.9464  2.4102
  125OSM   H18T13278   5.325   0.413   4.701  0.8478 -1.3330 -0.8319
  125OSM   H18U13279   5.391   0.424   4.541  3.1193  3.1430  0.8519
  125OSM    C1F13280   5.473   0.354   3.402  0.2389  0.0966 -0.0831
  125OSM     OF13281   5.536   0.249   3.383 -0.1396  0.0029 -0.6590
  125OSM    C2F13282   5.390   0.382   3.518 -0.5719 -0.1366 -0.7963
  125OSM    H2F13283   5.289   0.413   3.484 -0.9298  0.0863  0.4164
  125OSM    H2G13284   5.422   0.470   3.577 -1.8481  0.2742 -0.6950
  125OSM    C3F13285   5.368   0.258   3.614 -0.3405  0.2119  0.9087
  125OSM    H3F13286   5.464   0.210   3.641  0.2686  1.4538  1.0156
  125OSM    H3G13287   5.312   0.170   3.574  0.6886 -0.3974  0.7868
  125OSM    C4F13288   5.304   0.301   3.747  0.3858  0.2313  0.9838
  125OSM    H4F13289   5.201   0.343   3.734 -0.2499 -1.6884 -0.6882
  125OSM    H4G13290   5.366   0.384   3.786  1.1531  0.4198 -0.5381
  125OSM    C5F13291   5.287   0.190   3.847 -0.8136  0.9352 -0.1240
  125OSM    H5F13292   5.384   0.140   3.868 -1.9237 -0.6450  1.5228
  125OSM    H5G13293   5.227   0.105   3.807 -0.1142  0.6467 -0.5967
  125OSM    C6F13294   5.237   0.247   3.984 -0.0551 -0.0269  1.2122
  125OSM    H6F13295   5.136   0.293   3.972  0.0017 -0.3314 -0.7319
  125OSM    H6G13296   5.318   0.321   4.001  2.2654 -2.2782  0.6374
  125OSM    C7F13297   5.236   0.146   4.094 -0.1203 -0.5924 -0.4857
  125OSM    H7F13298   5.343   0.117   4.102  0.2769  0.8125 -0.4692
  125OSM    H7G13299   5.174   0.058   4.067 -0.1409 -1.4919  2.1862
  125OSM    C8F13300   5.189   0.204   4.226 -0.0891 -0.2888  0.4093
  125OSM    H8F13301   5.087   0.237   4.199  0.8842  1.6086 -1.2593
  125OSM    H8G13302   5.252   0.290   4.260  0.7716 -1.7003  2.5758
  125OSM    C9F13303   5.183   0.099   4.323 -0.0063 -0.2864  0.0422
  125OSM    H9F13304   5.256   0.017   4.316  0.7108  0.3612 -0.1806
  125OSM   C10F13305   5.089   0.074   4.414  0.2112 -0.3002 -0.1390
  125OSM   H10F13306   5.092  -0.020   4.471 -0.5651 -0.0233  0.3829
  125OSM   C11F13307   4.973   0.166   4.445  0.6632  0.4594 -0.3611
  125OSM   H11F13308   4.884   0.101   4.430  1.9699 -1.1330 -1.5727
  125OSM   H11G13309   4.973   0.259   4.385  1.3369  0.2598 -0.6777
  125OSM   C12F13310   4.976   0.223   4.594  0.3048  0.5095  0.3480
  125OSM   H12F13311   5.081   0.259   4.598  0.6792 -0.5956  1.1982
  125OSM   H12G13312   4.952   0.144   4.669  0.9017 -0.3732 -0.3619
  125OSM   C13F13313   4.901   0.353   4.628 -0.3022 -0.7620 -0.7885
  125OSM   H13F13314   4.795   0.321   4.633  0.0213 -1.7629  0.0137
  125OSM   H13G13315   4.907   0.427   4.546 -0.7019 -1.4373 -1.4400
  125OSM   C14F13316   4.941   0.425   4.748  0.2923 -0.6065  0.0593
  125OSM   H14F13317   5.051   0.415   4.762  0.1410 -0.9497  1.1269
  125OSM   H14G13318   4.900   0.386   4.843  1.7388 -0.0366  0.9529
  125OSM   C15F13319   4.920   0.571   4.738 -0.3761 -0.3658  0.0022
  125OSM   H15F13320   4.978   0.613   4.654  0.8817 -1.2375  0.4010
  125OSM   H15G13321   4.956   0.623   4.829 -1.1492 -2.3059  1.4871
  125OSM   C16F13322   4.773   0.627   4.738 -0.2761  0.4116  0.0891
  125OSM   H16F13323   4.720   0.594   4.646 -1.5322 -1.5383  1.4358
  125OSM   H16G13324   4.780   0.737   4.723  1.2666  0.0889 -2.0073
  125OSM   C17F13325   4.688   0.598   4.865 -0.6945  0.1656  0.2653
  125OSM   H17F13326   4.716   0.655   4.957 -0.9689  0.2890  0.2725
  125OSM   H17G13327   4.715   0.493   4.890 -1.5270  0.5223  3.0626
  125OSM   C18F13328   4.542   0.608   4.832  0.0296 -0.6814 -0.2509
  125OSM   H18F13329   4.540   0.702   4.774 -0.5756 -1.5992 -1.7859
  125OSM   H18G13330   4.468   0.617   4.915 -0.8642  0.4789 -1.1456
  125OSM   H18H13331   4.513   0.521   4.769 -2.4882 -0.6176  0.6790
  126OSM      N13332   5.517   6.428   2.430  0.7430  1.0820  0.1920
  126OSM    C1513333   5.628   6.347   2.496 -0.1683  0.2701  0.2086
  126OSM   H15A13334   5.707   6.411   2.531  0.0630 -0.9369  1.9980
  126OSM   H15B13335   5.673   6.277   2.427 -1.5480 -0.1756 -0.2913
  126OSM   H15C13336   5.599   6.296   2.587  0.4938  0.3130  0.4473
  126OSM    C1413337   5.575   6.500   2.311  0.2285  0.5768 -0.0629
  126OSM   H14A13338   5.611   6.425   2.243  0.6266  0.6711  0.0391
  126OSM   H14B13339   5.664   6.558   2.331  0.4151  0.0670  0.6091
  126OSM   H14C13340   5.499   6.558   2.261  0.5092 -0.8301 -2.2639
  126OSM    C1313341   5.418   6.325   2.387  0.1877 -0.0876  0.1705
  126OSM   H13A13342   5.365   6.297   2.478 -1.9396  0.6683 -0.7609
  126OSM   H13B13343   5.464   6.245   2.331  1.0132 -0.1676  0.9522
  126OSM   H13C13344   5.341   6.362   2.321 -0.1432  2.3177  1.7744
  126OSM    C1213345   5.449   6.518   2.540 -0.3277  0.0387 -0.0709
  126OSM   H12A13346   5.399   6.457   2.612 -1.5633 -0.5322 -1.3628
  126OSM   H12B13347   5.372   6.574   2.489  0.1722  1.7962  1.0043
  126OSM    C1113348   5.530   6.634   2.614 -0.2728 -0.1664 -0.1236
  126OSM   H11A13349   5.463   6.699   2.674  0.0315  0.0037  0.0335
  126OSM   H11B13350   5.560   6.704   2.533 -2.5030 -0.2402 -1.0878
  126OSM      P13351   5.613   6.506   2.826  0.2247  0.0133 -0.3481
  126OSM    O1313352   5.470   6.516   2.857 -0.3383  0.2036  0.6835
  126OSM    O1413353   5.666   6.371   2.817 -0.3033  0.1958 -0.1745
  126OSM    O1113354   5.699   6.586   2.931 -0.3510  0.3614  0.5038
  126OSM    O1213355   5.640   6.579   2.686 -0.0363  0.5302  0.4637
  126OSM    C1S13356   5.637   6.637   3.050  0.4229 -0.1675 -0.2699
  126OSM    H1S13357   5.591   6.549   3.099  0.9406 -0.7817 -0.8697
  126OSM    H1T13358   5.557   6.711   3.029 -0.5049 -0.7509  1.1330
  126OSM     NF13359   5.673   6.735   3.269  0.5748 -0.5625  0.0509
  126OSM    HNF13360   5.624   6.821   3.279  0.1636 -0.7510 -0.3068
  126OSM    C2S13361   5.738   6.717   3.142 -0.8310  0.2894 -0.7833
  126OSM    H2S13362   5.832   6.659   3.158 -1.4287 -0.4280  0.2175
  126OSM    C3S13363   5.793   6.841   3.070 -0.6419  0.4044  0.5732
  126OSM    H3S13364   5.706   6.901   3.037 -2.4608 -2.1823  0.3492
  126OSM     O313365   5.853   6.811   2.940 -0.3287 -0.1192 -0.3620
  126OSM    HO313366   5.840   6.717   2.925 -0.4468 -0.0156 -0.9154
  126OSM    C4S13367   5.870   6.920   3.154 -0.2423 -0.0663 -0.3317
  126OSM    H4S13368   5.812   6.987   3.219 -1.6612 -0.3393 -1.2820
  126OSM    C5S13369   6.003   6.917   3.157  0.3788  0.7320 -0.2589
  126OSM    H5S13370   6.061   6.838   3.107 -0.8326 -0.0100 -0.5388
  126OSM    C6S13371   6.077   7.007   3.259  0.3792  0.3612 -0.2109
  126OSM    H6S13372   6.133   7.077   3.193  1.6171 -1.2186 -0.9197
  126OSM    H6T13373   6.156   6.941   3.302 -0.6260 -0.5397  0.3034
  126OSM    C7S13374   5.993   7.086   3.365  0.4424  0.4250 -0.6398
  126OSM    H7S13375   5.915   7.142   3.310  2.0342  1.0006 -2.4499
  126OSM    H7T13376   6.063   7.162   3.406  2.6895 -0.1082 -3.1677
  126OSM    C8S13377   5.940   6.996   3.481 -0.0704  0.0225  0.4227
  126OSM    H8S13378   6.032   6.948   3.519  0.6904  0.9049 -0.2804
  126OSM    H8T13379   5.883   6.916   3.428 -0.1396  0.7777 -0.6802
  126OSM    C9S13380   5.870   7.085   3.586  0.4235  0.1644 -0.1402
  126OSM    H9S13381   5.829   7.168   3.526  1.3202 -0.0745 -1.1198
  126OSM    H9T13382   5.961   7.128   3.634  2.1877 -1.4090 -1.9223
  126OSM   C10S13383   5.776   7.015   3.687  0.3157  0.6712 -0.7427
  126OSM   H10S13384   5.829   6.927   3.729 -4.1474 -2.2667 -0.5233
  126OSM   H10T13385   5.687   6.981   3.629 -0.8321  2.8487 -0.3677
  126OSM   C11S13386   5.731   7.103   3.800  0.3679 -0.4153 -0.2435
  126OSM   H11S13387   5.625   7.131   3.782 -0.2350 -1.2766  1.6851
  126OSM   H11T13388   5.783   7.201   3.791 -0.8768  0.2621 -0.3418
  126OSM   C12S13389   5.748   7.044   3.941 -0.1388 -0.5673 -0.2835
  126OSM   H12S13390   5.856   7.047   3.969  0.0199  1.3639 -0.9538
  126OSM   H12T13391   5.705   6.944   3.958  0.1058 -0.4509  1.2168
  126OSM   C13S13392   5.682   7.125   4.051  0.0188 -0.4281  0.0255
  126OSM   H13S13393   5.573   7.114   4.034  0.1027  0.2244 -1.0358
  126OSM   H13T13394   5.715   7.230   4.035 -0.2498 -0.6196 -1.9571
  126OSM   C14S13395   5.730   7.070   4.187  0.1966  0.5578  0.4496
  126OSM   H14S13396   5.840   7.079   4.198  0.1252  1.5597  0.4049
  126OSM   H14T13397   5.722   6.959   4.179  0.8994  0.6186 -1.6635
  126OSM   C15S13398   5.655   7.113   4.313  0.0856  0.8147 -0.4629
  126OSM   H15S13399   5.546   7.093   4.312  0.1040  0.7034 -2.0129
  126OSM   H15T13400   5.676   7.222   4.309 -0.8689  0.9748 -2.7031
  126OSM   C16S13401   5.729   7.053   4.437 -0.0398  0.3084  0.0087
  126OSM   H16S13402   5.832   7.094   4.437  0.3330 -0.4546 -2.3798
  126OSM   H16T13403   5.741   6.943   4.426  0.7557  0.5350 -1.7624
  126OSM   C17S13404   5.662   7.095   4.576  0.0520  1.0937  0.5090
  126OSM   H17S13405   5.566   7.043   4.595  0.1921  0.7056  0.1644
  126OSM   H17T13406   5.653   7.205   4.585  0.4490  0.9858  2.7811
  126OSM   C18S13407   5.757   7.067   4.686 -0.5096 -0.4873 -0.1867
  126OSM   H18S13408   5.798   6.964   4.682 -0.7874 -0.5878 -0.4769
  126OSM   H18T13409   5.706   7.079   4.784  1.0705  0.9701  0.5094
  126OSM   H18U13410   5.842   7.138   4.674 -1.1351  0.4325  0.5954
  126OSM    C1F13411   5.658   6.642   3.372  0.1526  0.7054  0.4276
  126OSM     OF13412   5.693   6.526   3.347 -0.5094  0.1886  0.1567
  126OSM    C2F13413   5.595   6.689   3.500  0.1805 -0.2798  0.1643
  126OSM    H2F13414   5.487   6.710   3.488  0.5235  1.4696 -0.0861
  126OSM    H2G13415   5.647   6.786   3.515 -0.5325  0.0129  0.8476
  126OSM    C3F13416   5.629   6.595   3.621  0.3262  1.4391  0.5229
  126OSM    H3F13417   5.737   6.582   3.641 -0.1538 -0.4745  2.1406
  126OSM    H3G13418   5.593   6.492   3.603  1.3721  1.2017 -0.3222
  126OSM    C4F13419   5.567   6.664   3.748  0.2563 -0.3805  0.4805
  126OSM    H4F13420   5.458   6.686   3.744 -0.9108 -4.5381  2.8469
  126OSM    H4G13421   5.615   6.764   3.758 -0.5450  0.1931 -1.0953
  126OSM    C5F13422   5.584   6.578   3.876 -0.0824 -0.1443 -0.3431
  126OSM    H5F13423   5.690   6.547   3.869  1.3410  3.6879  1.4353
  126OSM    H5G13424   5.510   6.497   3.861 -3.0053  2.3690 -0.6336
  126OSM    C6F13425   5.558   6.661   4.007 -0.5345 -0.1356 -0.0262
  126OSM    H6F13426   5.475   6.734   3.997 -0.7457 -0.4068 -0.2735
  126OSM    H6G13427   5.654   6.717   4.014  0.4429 -1.5755 -1.1115
  126OSM    C7F13428   5.538   6.574   4.133  0.2460 -0.3996  0.2593
  126OSM    H7F13429   5.609   6.491   4.117  2.0299  1.2281 -0.7586
  126OSM    H7G13430   5.433   6.539   4.139 -0.0731  0.4637 -0.0216
  126OSM    C8F13431   5.582   6.646   4.263  0.1941 -0.3721  0.0010
  126OSM    H8F13432   5.519   6.734   4.288 -1.5336 -1.9749  1.7476
  126OSM    H8G13433   5.684   6.684   4.243 -0.4260  0.3044 -2.1667
  126OSM    C9F13434   5.595   6.555   4.388  0.5696  0.7286 -0.5502
  126OSM    H9F13435   5.650   6.462   4.368  0.0006  0.7607 -2.4256
  126OSM   C10F13436   5.556   6.584   4.510 -1.5552  0.2086  0.5737
  126OSM   H10F13437   5.576   6.499   4.577  0.4603 -1.0210 -1.4682
  126OSM   C11F13438   5.491   6.705   4.560  0.2657 -0.0619  0.1688
  126OSM   H11F13439   5.450   6.765   4.477  5.0865 -0.9081 -3.2632
  126OSM   H11G13440   5.558   6.768   4.622  0.7885 -1.4058  1.0335
  126OSM   C12F13441   5.375   6.662   4.661 -0.0150  0.5843 -0.1076
  126OSM   H12F13442   5.402   6.582   4.733  0.4640  0.5845 -0.2820
  126OSM   H12G13443   5.292   6.639   4.591  0.2668 -0.1856 -0.1912
  126OSM   C13F13444   5.327   6.782   4.748  0.4318  0.0713 -0.1782
  126OSM   H13F13445   5.279   6.859   4.683  0.9236 -0.4762 -1.2100
  126OSM   H13G13446   5.411   6.830   4.802  1.6647 -2.1330 -0.0243
  126OSM   C14F13447   5.226   6.731   4.849  0.2767 -0.7005  0.1219
  126OSM   H14F13448   5.259   6.640   4.902 -0.9100 -0.4335  1.3876
  126OSM   H14G13449   5.138   6.710   4.783 -0.0857  0.8175  0.0735
  126OSM   C15F13450   5.183   6.844   4.948  0.8145 -0.3727  0.3850
  126OSM   H15F13451   5.155   6.929   4.882 -1.2870 -1.3895 -0.1360
  126OSM   H15G13452   5.270   6.876   5.009  0.1853 -0.8688  1.5841
  126OSM   C16F13453   5.056   6.808   5.025  0.1767  0.4631  0.7277
  126OSM   H16F13454   4.992   6.761   4.947  0.4132  1.9987 -0.4305
  126OSM   H16G13455   5.004   6.904   5.047 -0.8677  0.6783 -2.2134
  126OSM   C17F13456   5.075   6.723   5.158  0.8204  0.1881 -0.7889
  126OSM   H17F13457   5.180   6.745   5.185 -0.0885  2.7619  1.0444
  126OSM   H17G13458   5.080   6.613   5.144 -0.3132  0.1532 -1.0671
  126OSM   C18F13459   4.983   6.761   5.281  0.7842  0.1406 -0.2508
  126OSM   H18F13460   4.875   6.761   5.257  0.6284 -1.3603  0.3257
  126OSM   H18G13461   5.018   6.862   5.312 -3.2496  2.5024 -2.5127
  126OSM   H18H13462   5.013   6.683   5.354  0.7077 -0.9476 -1.3482
  127OSM      N13463   3.378   3.708   2.279  0.7627  0.6359  0.1415
  127OSM    C1513464   3.326   3.605   2.177 -0.5271  0.3637 -0.3785
  127OSM   H15A13465   3.274   3.529   2.233  0.5517 -0.0180  0.1425
  127OSM   H15B13466   3.401   3.556   2.118 -1.0452 -0.2623 -0.5216
  127OSM   H15C13467   3.254   3.648   2.109 -1.2343  0.2812  0.3054
  127OSM    C1413468   3.459   3.816   2.217  1.0527 -0.4598  0.1810
  127OSM   H14A13469   3.554   3.775   2.185  0.8692  0.0902 -1.1244
  127OSM   H14B13470   3.479   3.891   2.292 -1.7577  0.1298  0.4412
  127OSM   H14C13471   3.414   3.860   2.129  1.6431 -0.5981 -0.1932
  127OSM    C1313472   3.255   3.768   2.344  0.6446  0.0345  0.4166
  127OSM   H13A13473   3.277   3.833   2.426 -2.3237  2.7894 -0.7446
  127OSM   H13B13474   3.199   3.683   2.381  0.5788 -1.2693 -2.3492
  127OSM   H13C13475   3.178   3.812   2.282 -0.8659 -1.5505  1.0745
  127OSM    C1213476   3.461   3.637   2.382 -0.2331 -0.8915  0.4922
  127OSM   H12A13477   3.506   3.716   2.441 -0.2453 -0.6160  0.1324
  127OSM   H12B13478   3.543   3.590   2.329  1.1955 -0.2563  2.0149
  127OSM    C1113479   3.390   3.532   2.481  0.3456  0.2137  0.7012
  127OSM   H11A13480   3.307   3.578   2.538 -0.4114 -1.7304  1.2587
  127OSM   H11B13481   3.447   3.486   2.565 -1.0114 -2.5688  0.2312
  127OSM      P13482   3.429   3.291   2.379 -0.0487  0.1525  0.2992
  127OSM    O1313483   3.341   3.176   2.335  0.3097 -0.3699 -0.3431
  127OSM    O1413484   3.549   3.323   2.293  0.4527 -0.2075 -0.0113
  127OSM    O1113485   3.484   3.255   2.521 -0.1128  0.4752  0.3360
  127OSM    O1213486   3.343   3.418   2.405  0.2380  0.1542  0.1414
  127OSM    C1S13487   3.514   3.128   2.574 -0.6153 -0.3499  0.5260
  127OSM    H1S13488   3.605   3.084   2.526  0.4959  0.6305  1.6798
  127OSM    H1T13489   3.428   3.062   2.549 -2.3271  1.4783  1.3563
  127OSM     NF13490   3.625   3.021   2.777  0.3841 -0.2432 -0.0321
  127OSM    HNF13491   3.569   2.950   2.818  0.1489  0.2192  0.4670
  127OSM    C2S13492   3.543   3.131   2.731 -0.0039  0.0830  0.0592
  127OSM    H2S13493   3.610   3.217   2.751  0.8641 -0.1678 -1.5780
  127OSM    C3S13494   3.409   3.150   2.809 -0.4268  0.4716 -0.0677
  127OSM    H3S13495   3.356   3.052   2.801 -1.0005  0.8418 -0.8153
  127OSM     O313496   3.309   3.230   2.739 -0.0908 -0.8385  0.4165
  127OSM    HO313497   3.348   3.260   2.657  0.1080 -0.2027  0.7452
  127OSM    C4S13498   3.426   3.197   2.953  0.4810  0.1539  0.0382
  127OSM    H4S13499   3.449   3.118   3.026  2.4211  0.7561  0.1253
  127OSM    C5S13500   3.420   3.325   3.002  0.5225 -0.3998  0.1433
  127OSM    H5S13501   3.421   3.408   2.930  0.7494  0.9278  1.6047
  127OSM    C6S13502   3.416   3.368   3.150  0.3571  0.3945  0.1524
  127OSM    H6S13503   3.343   3.450   3.169  0.4385  0.4086  0.4194
  127OSM    H6T13504   3.509   3.413   3.190 -0.7253 -0.2500  3.8506
  127OSM    C7S13505   3.372   3.254   3.249 -0.3645  0.6016  0.0781
  127OSM    H7S13506   3.441   3.167   3.242  1.0163  1.6093  0.8382
  127OSM    H7T13507   3.266   3.227   3.227 -1.3216  2.3433  2.2516
  127OSM    C8S13508   3.375   3.299   3.389 -0.0680  0.6848  0.3744
  127OSM    H8S13509   3.310   3.388   3.399 -1.0333 -0.2783  3.7026
  127OSM    H8T13510   3.473   3.344   3.415  0.2265  0.0650  0.3579
  127OSM    C9S13511   3.356   3.193   3.493 -0.1876 -0.1592 -0.0642
  127OSM    H9S13512   3.431   3.111   3.495  0.8986  0.8155  0.7319
  127OSM    H9T13513   3.261   3.143   3.466 -1.2599  0.9881  1.4017
  127OSM   C10S13514   3.371   3.254   3.633  0.0884 -0.3595 -0.2603
  127OSM   H10S13515   3.280   3.309   3.667  1.2982  1.9015 -0.4430
  127OSM   H10T13516   3.453   3.328   3.621  1.5918 -2.0177 -0.5854
  127OSM   C11S13517   3.400   3.145   3.736 -0.1368 -0.2303  0.1706
  127OSM   H11S13518   3.499   3.098   3.720  0.0040  0.6533 -1.8695
  127OSM   H11T13519   3.324   3.066   3.719  0.3781 -0.7789  0.4171
  127OSM   C12S13520   3.371   3.190   3.880 -0.3455  1.1869  0.0083
  127OSM   H12S13521   3.263   3.213   3.888 -0.5293 -0.0224  1.6671
  127OSM   H12T13522   3.424   3.284   3.904  0.9033  0.6997 -0.7603
  127OSM   C13S13523   3.399   3.093   3.990 -0.0777 -0.1169  0.0257
  127OSM   H13S13524   3.507   3.092   4.017  0.6385  3.7149 -1.9778
  127OSM   H13T13525   3.348   2.996   3.972 -3.5221  1.0296  2.3613
  127OSM   C14S13526   3.320   3.148   4.114 -0.9418 -0.9739  0.4184
  127OSM   H14S13527   3.212   3.144   4.085 -0.8373 -1.0833  0.0341
  127OSM   H14T13528   3.366   3.247   4.135  0.5171 -1.2806 -1.1471
  127OSM   C15S13529   3.337   3.069   4.243  0.0826 -0.8082 -0.1381
  127OSM   H15S13530   3.446   3.049   4.256  0.0860  0.4518  2.5198
  127OSM   H15T13531   3.286   2.970   4.246 -0.0330 -0.7359  1.2479
  127OSM   C16S13532   3.292   3.155   4.363  0.4591 -0.4865 -0.1797
  127OSM   H16S13533   3.199   3.212   4.340  2.7306  2.5663 -2.7922
  127OSM   H16T13534   3.360   3.239   4.388 -0.2024  0.2198 -0.7150
  127OSM   C17S13535   3.255   3.069   4.485 -0.5493  0.4569 -0.5400
  127OSM   H17S13536   3.334   2.994   4.504 -1.3212 -0.0372  0.7950
  127OSM   H17T13537   3.158   3.023   4.458 -2.0922  3.1283  0.1251
  127OSM   C18S13538   3.255   3.138   4.621  0.3467 -0.2263  0.4772
  127OSM   H18S13539   3.343   3.206   4.630 -1.0558  1.5026  2.1942
  127OSM   H18T13540   3.251   3.056   4.696 -0.9043 -0.9923 -0.3863
  127OSM   H18U13541   3.172   3.211   4.627  1.5435  1.3456 -0.9485
  127OSM    C1F13542   3.749   3.004   2.723  0.1731 -0.1064  0.3915
  127OSM     OF13543   3.799   3.099   2.664  0.3075  0.1727 -0.2331
  127OSM    C2F13544   3.812   2.869   2.723  0.3700  0.3665 -0.3468
  127OSM    H2F13545   3.804   2.825   2.622  0.5208  0.1602 -0.2696
  127OSM    H2G13546   3.758   2.799   2.790  1.3332  2.5399  2.9724
  127OSM    C3F13547   3.960   2.883   2.768 -0.0647 -0.6174  0.0413
  127OSM    H3F13548   4.009   2.970   2.720 -1.8975  0.3572 -0.1241
  127OSM    H3G13549   4.013   2.796   2.724 -2.8581 -2.1766 -0.4135
  127OSM    C4F13550   3.975   2.878   2.919  0.0635  0.5841  0.0965
  127OSM    H4F13551   3.942   2.775   2.945 -0.1812  0.2864 -1.3055
  127OSM    H4G13552   3.910   2.952   2.971 -1.8874 -1.3535  0.5555
  127OSM    C5F13553   4.121   2.892   2.966  0.3284 -0.3242  0.0754
  127OSM    H5F13554   4.143   2.999   2.942 -2.1997  0.2658  0.0250
  127OSM    H5G13555   4.187   2.831   2.901  0.4485  0.2789 -0.3865
  127OSM    C6F13556   4.153   2.863   3.110  0.7646 -0.5831 -0.7771
  127OSM    H6F13557   4.073   2.913   3.168  3.0092  2.2627  0.0591
  127OSM    H6G13558   4.251   2.905   3.141  1.0097 -0.8429 -1.1872
  127OSM    C7F13559   4.168   2.710   3.138 -0.6938  0.4887  0.4679
  127OSM    H7F13560   4.262   2.673   3.090 -0.7737  0.2238  0.5146
  127OSM    H7G13561   4.079   2.659   3.096 -0.7400 -0.2810  1.4522
  127OSM    C8F13562   4.177   2.681   3.288 -0.0540  0.4374 -0.0740
  127OSM    H8F13563   4.225   2.581   3.298  4.2701  2.3624  0.7214
  127OSM    H8G13564   4.073   2.671   3.326  0.5228 -3.2204  0.9158
  127OSM    C9F13565   4.249   2.778   3.370 -0.1333 -0.4973  0.0087
  127OSM    H9F13566   4.261   2.880   3.330  0.0982 -1.5361 -2.8418
  127OSM   C10F13567   4.326   2.748   3.480 -0.2926 -0.0047  0.0609
  127OSM   H10F13568   4.374   2.831   3.533 -1.3730  0.6979 -0.0355
  127OSM   C11F13569   4.337   2.615   3.545 -0.1578 -0.4743 -0.1644
  127OSM   H11F13570   4.437   2.573   3.521  0.7982 -0.0886  2.7464
  127OSM   H11G13571   4.263   2.542   3.505  0.9561 -1.3609 -0.6562
  127OSM   C12F13572   4.336   2.624   3.698 -0.5192 -0.1566 -0.0239
  127OSM   H12F13573   4.434   2.663   3.735 -0.0341  0.0811 -1.5033
  127OSM   H12G13574   4.328   2.523   3.743 -0.5679 -1.4186 -2.7059
  127OSM   C13F13575   4.223   2.700   3.759 -0.1787 -0.5920  0.4047
  127OSM   H13F13576   4.140   2.626   3.756  1.1560 -2.1022 -0.3078
  127OSM   H13G13577   4.193   2.785   3.695  0.0961  0.5381  1.7150
  127OSM   C14F13578   4.249   2.745   3.910 -0.0740  0.3322 -0.3874
  127OSM   H14F13579   4.282   2.655   3.966  0.3250  0.2283 -0.7883
  127OSM   H14G13580   4.148   2.766   3.950 -0.2072 -0.3398 -0.3603
  127OSM   C15F13581   4.331   2.877   3.929 -0.3184 -0.1102  0.2111
  127OSM   H15F13582   4.285   2.959   3.869 -1.7623 -1.3860 -0.4778
  127OSM   H15G13583   4.431   2.850   3.888 -0.4435 -0.1823 -0.0539
  127OSM   C16F13584   4.339   2.931   4.072  0.1819 -0.9349  0.3793
  127OSM   H16F13585   4.420   2.881   4.129 -0.0422 -2.9594 -0.9586
  127OSM   H16G13586   4.238   2.906   4.112 -0.4471 -1.0205 -1.1714
  127OSM   C17F13587   4.353   3.086   4.069 -0.1289 -0.6533 -0.0686
  127OSM   H17F13588   4.294   3.131   3.986 -0.9929 -0.4042  0.6666
  127OSM   H17G13589   4.458   3.113   4.041 -0.4172  1.0054  0.3432
  127OSM   C18F13590   4.304   3.150   4.198  0.0376  0.2384  0.1761
  127OSM   H18F13591   4.322   3.259   4.198 -4.1982  1.1496 -1.4698
  127OSM   H18G13592   4.369   3.114   4.280 -0.0294 -0.4905 -0.0736
  127OSM   H18H13593   4.197   3.119   4.200  0.2386 -0.4083  1.3900
  128OSM      N13594   2.974   0.816   2.258 -0.1766  0.3182  0.5600
  128OSM    C1513595   2.962   0.748   2.387  0.2212  0.7030 -0.0645
  128OSM   H15A13596   3.016   0.796   2.467 -0.9172 -0.5932  1.5419
  128OSM   H15B13597   3.007   0.649   2.385  3.0642  1.7865  2.1800
  128OSM   H15C13598   2.864   0.733   2.429  1.6935 -1.3594  3.0190
  128OSM    C1413599   3.126   0.818   2.237 -0.0739  0.0585  0.6061
  128OSM   H14A13600   3.151   0.858   2.139 -0.7858 -0.1819  0.3180
  128OSM   H14B13601   3.185   0.730   2.258  2.6391  1.6670  0.0945
  128OSM   H14C13602   3.165   0.887   2.310 -1.4182  1.9335 -0.3765
  128OSM    C1313603   2.923   0.719   2.152 -0.0321  0.5349 -0.5340
  128OSM   H13A13604   2.827   0.686   2.189  0.1284 -0.1554 -0.7159
  128OSM   H13B13605   2.980   0.627   2.152  0.0675  0.5101  2.6625
  128OSM   H13C13606   2.905   0.769   2.058 -0.8010  1.9355  0.3351
  128OSM    C1213607   2.914   0.951   2.229  0.6248 -0.3452 -0.5099
  128OSM   H12A13608   2.806   0.950   2.235  0.4968  1.7888 -1.4579
  128OSM   H12B13609   2.926   0.981   2.125 -0.1527  1.4727 -0.1143
  128OSM    C1113610   2.965   1.073   2.311 -0.1978 -0.1272  0.2486
  128OSM   H11A13611   2.950   1.046   2.417  0.1680  0.2086  0.3853
  128OSM   H11B13612   2.909   1.169   2.301  2.3310  1.2228 -2.4227
  128OSM      P13613   3.174   1.226   2.283 -0.2125  0.2431 -0.0790
  128OSM    O1313614   3.322   1.213   2.297  0.2359  0.0615  0.0650
  128OSM    O1413615   3.126   1.306   2.165  0.0813  0.0812  0.0665
  128OSM    O1113616   3.115   1.297   2.409  0.0541  0.6086 -0.3991
  128OSM    O1213617   3.102   1.086   2.289 -0.1775  0.1578 -0.0994
  128OSM    C1S13618   3.159   1.258   2.538  0.8379  0.0815 -0.3736
  128OSM    H1S13619   3.267   1.280   2.550  0.5196  0.4383  2.4309
  128OSM    H1T13620   3.133   1.153   2.564 -1.8111  0.9122  0.6169
  128OSM     NF13621   3.153   1.335   2.785  0.8161 -0.4324  0.5231
  128OSM    HNF13622   3.101   1.279   2.849  0.6458 -2.4614 -1.2463
  128OSM    C2S13623   3.089   1.349   2.650 -0.0542 -0.0949 -0.2431
  128OSM    H2S13624   3.104   1.451   2.609 -0.5086 -0.7563 -2.1245
  128OSM    C3S13625   2.932   1.326   2.653  0.1014 -0.0439 -0.6575
  128OSM    H3S13626   2.924   1.231   2.710  1.4207 -0.1496 -0.6092
  128OSM     O313627   2.870   1.293   2.532  0.0435 -0.1032  0.2472
  128OSM    HO313628   2.946   1.274   2.477 -1.7695 -0.7929 -2.1548
  128OSM    C4S13629   2.855   1.429   2.734 -0.3905 -0.1024  0.8614
  128OSM    H4S13630   2.865   1.529   2.689 -0.3720 -0.4779  0.0216
  128OSM    C5S13631   2.764   1.406   2.837  0.0402 -0.4829 -0.0163
  128OSM    H5S13632   2.752   1.299   2.859  0.1398 -0.1066  2.1451
  128OSM    C6S13633   2.675   1.494   2.915 -0.0199 -0.1341 -0.6365
  128OSM    H6S13634   2.652   1.447   3.013 -0.4670  0.9412 -0.2114
  128OSM    H6T13635   2.578   1.513   2.864 -0.6327  1.8456  1.1111
  128OSM    C7S13636   2.742   1.630   2.959  0.2724  0.3170  0.3942
  128OSM    H7S13637   2.668   1.674   3.030  0.0502 -0.1511  0.4588
  128OSM    H7T13638   2.749   1.693   2.868 -1.5577  0.4431  0.3025
  128OSM    C8S13639   2.877   1.621   3.037  1.0443  0.3889  0.7310
  128OSM    H8S13640   2.926   1.719   3.019  0.0725  0.4425 -2.0796
  128OSM    H8T13641   2.938   1.540   2.991  1.2287  0.9357 -0.0041
  128OSM    C9S13642   2.851   1.594   3.184 -0.7859 -0.4039  0.0289
  128OSM    H9S13643   2.822   1.488   3.200  1.1272 -0.8872  0.4700
  128OSM    H9T13644   2.770   1.666   3.211 -0.1469  0.1297  0.5858
  128OSM   C10S13645   2.985   1.615   3.265  0.0215  0.0143 -0.1990
  128OSM   H10S13646   3.029   1.710   3.230 -0.6375  0.8697  1.1935
  128OSM   H10T13647   3.062   1.536   3.254  1.7641  1.3417  1.6382
  128OSM   C11S13648   2.958   1.648   3.411  0.3113  0.1210 -0.3639
  128OSM   H11S13649   2.937   1.548   3.455  0.7800 -1.3275 -3.1768
  128OSM   H11T13650   2.868   1.711   3.430 -0.1717 -0.4270 -0.7797
  128OSM   C12S13651   3.085   1.698   3.484  0.0466 -0.3694 -0.0020
  128OSM   H12S13652   3.122   1.799   3.455  1.6886 -0.9194  0.0868
  128OSM   H12T13653   3.170   1.635   3.451 -0.9910 -1.2983 -0.9581
  128OSM   C13S13654   3.072   1.687   3.636 -0.2369  0.3433  0.5283
  128OSM   H13S13655   3.081   1.577   3.653 -2.7525  0.0380  0.2750
  128OSM   H13T13656   2.972   1.709   3.679  0.5131  1.1013  1.9686
  128OSM   C14S13657   3.172   1.774   3.716  0.5889 -0.2111 -0.0916
  128OSM   H14S13658   3.162   1.879   3.681 -1.6035 -0.4179 -0.2316
  128OSM   H14T13659   3.273   1.728   3.720 -0.2462 -2.0693  1.3157
  128OSM   C15S13660   3.136   1.773   3.863  0.8272 -0.4202 -0.3640
  128OSM   H15S13661   3.131   1.665   3.891 -0.0015 -0.2044  0.3739
  128OSM   H15T13662   3.034   1.811   3.887  0.6480 -1.5444  0.7486
  128OSM   C16S13663   3.240   1.849   3.956  0.4125 -0.5377 -0.3328
  128OSM   H16S13664   3.206   1.954   3.971 -2.2837 -1.2364 -0.9740
  128OSM   H16T13665   3.338   1.858   3.905  0.1795 -0.4157 -0.7681
  128OSM   C17S13666   3.235   1.782   4.095 -0.2249 -0.2907  0.4074
  128OSM   H17S13667   3.327   1.823   4.141  0.6182 -0.7597 -0.8058
  128OSM   H17T13668   3.247   1.671   4.094  2.6773 -0.0547 -1.5121
  128OSM   C18S13669   3.114   1.815   4.179  0.3124  0.0378  0.2602
  128OSM   H18S13670   3.125   1.776   4.282 -1.5993  0.6924  0.7603
  128OSM   H18T13671   3.023   1.767   4.136  0.5948 -0.5938  0.3548
  128OSM   H18U13672   3.096   1.924   4.179  0.8176  0.2045 -2.5320
  128OSM    C1F13673   3.276   1.377   2.819 -0.2803 -0.6109 -0.3987
  128OSM     OF13674   3.330   1.457   2.747  1.2861 -0.4209 -0.6607
  128OSM    C2F13675   3.344   1.320   2.938 -0.0892  0.4272  0.2061
  128OSM    H2F13676   3.450   1.296   2.916 -0.2911 -0.9658  0.6671
  128OSM    H2G13677   3.297   1.224   2.969  0.0547  0.0641 -0.6588
  128OSM    C3F13678   3.352   1.419   3.063  0.1196  0.1412 -0.0251
  128OSM    H3F13679   3.253   1.450   3.101  0.5727  0.0876  1.2401
  128OSM    H3G13680   3.407   1.510   3.030 -0.1438 -0.4356 -2.2043
  128OSM    C4F13681   3.432   1.364   3.176 -0.1586  0.1815  0.1918
  128OSM    H4F13682   3.542   1.370   3.163 -0.1911 -0.0656 -0.2068
  128OSM    H4G13683   3.399   1.259   3.192 -0.3214  0.0042 -1.2184
  128OSM    C5F13684   3.404   1.433   3.307  0.2455 -0.6301  0.0247
  128OSM    H5F13685   3.300   1.430   3.347 -0.1201 -0.9358 -0.9193
  128OSM    H5G13686   3.438   1.538   3.302 -0.5255 -0.2766  1.6995
  128OSM    C6F13687   3.484   1.362   3.423  0.2392  0.2916  0.8471
  128OSM    H6F13688   3.594   1.374   3.418  0.6931 -2.6428  1.7064
  128OSM    H6G13689   3.472   1.253   3.401  2.5401  0.1580 -0.0593
  128OSM    C7F13690   3.440   1.376   3.573 -0.0609  0.0273  0.4130
  128OSM    H7F13691   3.493   1.298   3.632  1.3992  0.2633 -0.5256
  128OSM    H7G13692   3.332   1.351   3.582 -0.1973  1.3097  3.2918
  128OSM    C8F13693   3.457   1.523   3.629  0.5665 -0.5218 -0.1052
  128OSM    H8F13694   3.419   1.541   3.732 -0.6766  3.2210 -1.0505
  128OSM    H8G13695   3.400   1.596   3.567  0.2884  0.7899  1.6370
  128OSM    C9F13696   3.596   1.569   3.611  0.2337  0.4032  0.0436
  128OSM    H9F13697   3.637   1.577   3.510  1.8125 -2.1869  0.3694
  128OSM   C10F13698   3.672   1.612   3.713 -0.1307  0.3775  0.0820
  128OSM   H10F13699   3.777   1.642   3.700  1.0146 -2.2122  2.3135
  128OSM   C11F13700   3.647   1.603   3.862  0.2732  0.0088 -0.8935
  128OSM   H11F13701   3.739   1.581   3.920 -0.8801  2.9447  2.4531
  128OSM   H11G13702   3.570   1.530   3.893 -1.3507  2.3753  1.0471
  128OSM   C12F13703   3.597   1.740   3.914 -0.2962 -0.3489  1.0842
  128OSM   H12F13704   3.498   1.759   3.866 -0.3408 -1.6348  0.6425
  128OSM   H12G13705   3.665   1.824   3.886  1.2499 -1.6206  0.8926
  128OSM   C13F13706   3.582   1.749   4.070 -0.4085 -0.2860 -0.4204
  128OSM   H13F13707   3.530   1.659   4.108 -2.1340  0.0858 -1.8001
  128OSM   H13G13708   3.531   1.842   4.106 -2.0516 -0.1858 -2.7888
  128OSM   C14F13709   3.721   1.747   4.143 -0.5227 -0.0994 -0.0178
  128OSM   H14F13710   3.776   1.839   4.114 -0.2374  0.0943  1.0954
  128OSM   H14G13711   3.784   1.658   4.120  1.5574  0.9323  1.2772
  128OSM   C15F13712   3.732   1.764   4.295  0.2245 -0.1692  0.5302
  128OSM   H15F13713   3.630   1.751   4.337  0.0963  1.0335  0.6407
  128OSM   H15G13714   3.747   1.871   4.321  0.5812  0.5713 -2.3075
  128OSM   C16F13715   3.836   1.677   4.363  0.3503  0.0493  0.2680
  128OSM   H16F13716   3.933   1.708   4.320  0.2094  0.1061 -0.0119
  128OSM   H16G13717   3.812   1.570   4.350 -0.6420  0.5582 -3.5623
  128OSM   C17F13718   3.832   1.708   4.509 -0.6389  0.2218 -0.2769
  128OSM   H17F13719   3.735   1.673   4.550 -0.0573 -2.9571 -1.2700
  128OSM   H17G13720   3.829   1.818   4.518 -0.0578  0.3592 -1.4572
  128OSM   C18F13721   3.962   1.655   4.584  0.0524 -0.4765 -0.4994
  128OSM   H18F13722   4.046   1.677   4.515 -0.0977  1.2051 -0.1845
  128OSM   H18G13723   3.951   1.545   4.597 -0.0586 -0.3254  0.8311
  128OSM   H18H13724   3.975   1.705   4.683  1.1315 -2.2858  0.3090
  129OSM      N13725   5.684   5.130   2.824  0.4308  0.5272 -0.3301
  129OSM    C1513726   5.790   5.152   2.725 -0.6531  0.6900  0.6929
  129OSM   H15A13727   5.793   5.083   2.642 -2.0864  2.1596 -0.6705
  129OSM   H15B13728   5.892   5.169   2.757  0.2738  0.0482 -1.7198
  129OSM   H15C13729   5.759   5.241   2.673 -0.2693  0.6135  0.3291
  129OSM    C1413730   5.682   5.241   2.921 -0.5896  0.4389  0.2205
  129OSM   H14A13731   5.599   5.236   2.990 -2.2244 -1.2116 -1.7406
  129OSM   H14B13732   5.675   5.330   2.861  0.4057 -2.5217 -4.8632
  129OSM   H14C13733   5.764   5.230   2.990 -0.2499 -0.8862 -0.3482
  129OSM    C1313734   5.552   5.130   2.746  0.0398 -0.4505  0.0279
  129OSM   H13A13735   5.536   5.223   2.694 -0.7859  0.2066  1.4180
  129OSM   H13B13736   5.469   5.105   2.810  0.2360 -0.0923  0.4267
  129OSM   H13C13737   5.554   5.065   2.659 -1.0174  0.0345 -0.3673
  129OSM    C1213738   5.707   5.002   2.902  0.3306  0.0877 -0.4310
  129OSM   H12A13739   5.695   4.918   2.835 -2.9311  0.7669 -0.8592
  129OSM   H12B13740   5.621   4.991   2.966 -0.3500  0.8616 -1.1854
  129OSM    C1113741   5.836   4.985   2.981  0.3112  0.3836  0.1507
  129OSM   H11A13742   5.818   4.906   3.056  0.4463  1.9585  1.9023
  129OSM   H11B13743   5.867   5.081   3.026 -0.9735  1.3792 -1.0078
  129OSM      P13744   5.970   4.804   2.830 -0.0158  0.5788  0.3127
  129OSM    O1313745   5.840   4.738   2.802 -0.1680 -0.3857 -0.0485
  129OSM    O1413746   6.059   4.819   2.713 -0.5046 -0.2334  0.2515
  129OSM    O1113747   6.035   4.726   2.947 -0.1712  0.6175  0.3433
  129OSM    O1213748   5.943   4.949   2.897 -0.4257  0.5392 -0.2365
  129OSM    C1S13749   6.077   4.792   3.063  0.4600 -0.8642  0.0556
  129OSM    H1S13750   5.988   4.814   3.125 -0.1742  0.5931 -1.3000
  129OSM    H1T13751   6.136   4.884   3.043 -1.4078  0.5433  0.8224
  129OSM     NF13752   6.197   4.748   3.280  0.1505  0.2775  0.2868
  129OSM    HNF13753   6.283   4.797   3.283  0.7961 -0.8675  2.3433
  129OSM    C2S13754   6.170   4.690   3.145  0.4174  0.0654 -0.3413
  129OSM    H2S13755   6.106   4.600   3.162  1.0869  0.0059  2.2991
  129OSM    C3S13756   6.294   4.654   3.061  0.1652  0.1651 -0.6440
  129OSM    H3S13757   6.350   4.749   3.049  1.4271 -0.7473 -2.3357
  129OSM     O313758   6.270   4.599   2.934  0.0792  0.1270 -0.1722
  129OSM    HO313759   6.178   4.625   2.927  0.4442  1.7942  0.8278
  129OSM    C4S13760   6.385   4.571   3.151 -0.4497 -0.5330  0.7563
  129OSM    H4S13761   6.464   4.629   3.201 -0.9206  0.4508  0.3693
  129OSM    C5S13762   6.381   4.439   3.155 -0.6472  0.2376  0.0304
  129OSM    H5S13763   6.302   4.377   3.111 -1.3583  1.4479 -0.4512
  129OSM    C6S13764   6.469   4.360   3.245 -0.6175 -0.1645  0.8299
  129OSM    H6S13765   6.565   4.332   3.197 -0.7852  1.7898 -0.7543
  129OSM    H6T13766   6.409   4.271   3.275 -1.5659 -0.3158 -1.3547
  129OSM    C7S13767   6.519   4.410   3.384  0.1783 -0.4398  0.3920
  129OSM    H7S13768   6.553   4.514   3.370  1.7055 -0.5778  2.5562
  129OSM    H7T13769   6.605   4.348   3.416 -0.8702 -1.8511  0.6218
  129OSM    C8S13770   6.413   4.402   3.498 -0.4988  0.7480  0.2963
  129OSM    H8S13771   6.384   4.295   3.508  0.9953  0.1672 -1.1322
  129OSM    H8T13772   6.333   4.463   3.450 -0.8178 -0.5872 -0.9656
  129OSM    C9S13773   6.447   4.451   3.637 -0.7246  0.5039 -0.4168
  129OSM    H9S13774   6.487   4.554   3.628  0.6598 -0.0702 -1.2132
  129OSM    H9T13775   6.530   4.390   3.679 -1.9164 -0.3942  0.7316
  129OSM   C10S13776   6.326   4.452   3.737  0.0414  0.1020 -0.1765
  129OSM   H10S13777   6.290   4.348   3.753 -2.1294  0.9814  1.1603
  129OSM   H10T13778   6.241   4.507   3.691 -0.4054 -1.0314 -0.7614
  129OSM   C11S13779   6.363   4.511   3.876  0.6536  0.6988  0.7238
  129OSM   H11S13780   6.390   4.618   3.864 -1.3187  1.0594 -1.0792
  129OSM   H11T13781   6.446   4.448   3.914 -1.3058 -2.2023  0.5806
  129OSM   C12S13782   6.256   4.497   3.986 -0.0533  0.9045  0.0946
  129OSM   H12S13783   6.212   4.398   4.015 -0.1039  1.3919  1.7901
  129OSM   H12T13784   6.163   4.550   3.955 -0.5596 -0.5090 -0.9185
  129OSM   C13S13785   6.313   4.546   4.113 -0.5273  0.2934 -0.2829
  129OSM   H13S13786   6.345   4.649   4.089  0.3735  0.6264  2.0103
  129OSM   H13T13787   6.405   4.485   4.120 -1.1396 -0.6830 -0.5539
  129OSM   C14S13788   6.232   4.550   4.245  0.0416 -0.0686 -0.0414
  129OSM   H14S13789   6.191   4.451   4.277  1.4724 -0.1000  1.8483
  129OSM   H14T13790   6.151   4.624   4.230  0.9721  0.5336 -2.3896
  129OSM   C15S13791   6.306   4.605   4.371 -0.7519  0.0506 -0.2135
  129OSM   H15S13792   6.333   4.710   4.346  1.2625 -0.6311 -1.0725
  129OSM   H15T13793   6.403   4.551   4.376  1.0700  3.0841 -0.3867
  129OSM   C16S13794   6.209   4.599   4.495 -0.7667 -0.1663  1.0557
  129OSM   H16S13795   6.143   4.510   4.481  0.5699 -0.8464 -1.4162
  129OSM   H16T13796   6.143   4.687   4.480  1.3269  1.2634 -0.2602
  129OSM   C17S13797   6.265   4.618   4.639 -0.6079  0.5284 -0.5394
  129OSM   H17S13798   6.314   4.526   4.677  0.3715  2.1369  2.4087
  129OSM   H17T13799   6.187   4.651   4.710 -0.5669  0.2088 -0.3421
  129OSM   C18S13800   6.376   4.722   4.643 -0.1505 -0.3545 -0.2583
  129OSM   H18S13801   6.342   4.825   4.617  0.6978  0.4828  1.7058
  129OSM   H18T13802   6.450   4.686   4.569 -0.7452 -0.8373 -0.6194
  129OSM   H18U13803   6.428   4.723   4.742  0.0327  0.1120 -0.3546
  129OSM    C1F13804   6.107   4.756   3.375  0.1521  0.3055  0.5457
  129OSM     OF13805   5.997   4.703   3.360  0.2575  0.5548  0.0378
  129OSM    C2F13806   6.152   4.827   3.496  0.1743  0.2379 -0.1795
  129OSM    H2F13807   6.130   4.935   3.480  0.3007  0.6033  1.7772
  129OSM    H2G13808   6.259   4.825   3.523  0.2263  3.3004  0.2159
  129OSM    C3F13809   6.069   4.785   3.611  0.4077  1.2016  0.8167
  129OSM    H3F13810   6.070   4.677   3.637 -2.7643  0.6514 -0.8932
  129OSM    H3G13811   5.962   4.801   3.589 -0.6625 -3.2092  1.9625
  129OSM    C4F13812   6.095   4.872   3.736  0.0938 -0.6045 -0.0064
  129OSM    H4F13813   6.109   4.976   3.699  0.0008 -0.3367  0.7041
  129OSM    H4G13814   6.192   4.840   3.778  2.4975  1.7656 -3.2267
  129OSM    C5F13815   5.974   4.865   3.836  0.1090  0.5514 -0.9248
  129OSM    H5F13816   5.919   4.768   3.829  0.5297  0.2308  0.0361
  129OSM    H5G13817   5.901   4.943   3.804  1.0068  1.6809 -0.3019
  129OSM    C6F13818   6.023   4.884   3.983  0.7689  0.2079  0.0058
  129OSM    H6F13819   6.082   4.978   3.992  0.8675  0.1859 -0.3820
  129OSM    H6G13820   6.093   4.800   4.006 -2.2104 -1.8764  2.2530
  129OSM    C7F13821   5.900   4.879   4.077  0.0869  0.6071 -0.0978
  129OSM    H7F13822   5.812   4.834   4.028  0.4482  1.7270 -1.8732
  129OSM    H7G13823   5.863   4.984   4.080 -1.7108 -0.0124  0.4544
  129OSM    C8F13824   5.920   4.818   4.216 -0.2267 -0.2950 -0.1485
  129OSM    H8F13825   5.952   4.714   4.194  0.1289 -0.1909 -0.1347
  129OSM    H8G13826   5.826   4.818   4.275  0.7497  0.8169  1.4703
  129OSM    C9F13827   6.021   4.902   4.291  0.3634 -0.6807 -0.3146
  129OSM    H9F13828   6.122   4.913   4.247  1.1112 -1.1287  1.2249
  129OSM   C10F13829   6.000   4.979   4.398  0.0400 -0.4474  0.0480
  129OSM   H10F13830   6.085   5.037   4.438 -2.1856  2.6388  0.6113
  129OSM   C11F13831   5.870   4.990   4.478  0.2712 -0.3472 -0.8306
  129OSM   H11F13832   5.806   4.899   4.475 -1.8142  1.0514 -0.7288
  129OSM   H11G13833   5.818   5.078   4.437 -0.0636  0.1099  0.5266
  129OSM   C12F13834   5.903   5.024   4.633  0.8336 -0.2494  0.4049
  129OSM   H12F13835   5.799   5.028   4.672 -0.1976 -0.9017 -2.0446
  129OSM   H12G13836   5.946   5.126   4.627 -0.8332  0.4584 -0.1967
  129OSM   C13F13837   5.985   4.919   4.711 -0.3047 -0.4457  0.6943
  129OSM   H13F13838   6.088   4.911   4.670 -0.3468  1.6930  0.0582
  129OSM   H13G13839   5.931   4.823   4.694 -0.8928 -0.1280  0.7287
  129OSM   C14F13840   5.995   4.954   4.857 -0.3437 -0.3379  0.1080
  129OSM   H14F13841   5.893   4.945   4.902 -0.8494 -1.4721 -1.1954
  129OSM   H14G13842   6.026   5.058   4.880 -0.8923 -0.4103  1.2130
  129OSM   C15F13843   6.071   4.840   4.926 -0.6472 -0.5630 -0.3969
  129OSM   H15F13844   6.166   4.832   4.871 -1.3280 -0.4371 -1.6188
  129OSM   H15G13845   6.015   4.745   4.939 -1.1102 -0.1585  0.7524
  129OSM   C16F13846   6.118   4.889   5.064  0.3253  0.2472  0.1259
  129OSM   H16F13847   6.032   4.915   5.130  0.5076  1.1376  0.0249
  129OSM   H16G13848   6.176   4.984   5.056  0.2145  0.3612  0.6382
  129OSM   C17F13849   6.207   4.792   5.147 -0.0168  0.2482  0.0611
  129OSM   H17F13850   6.297   4.767   5.088 -1.3128 -1.1940 -1.3764
  129OSM   H17G13851   6.157   4.694   5.162  0.8673 -0.6391 -2.3377
  129OSM   C18F13852   6.250   4.852   5.284  0.0307  0.1495 -0.1152
  129OSM   H18F13853   6.251   4.963   5.276 -1.3675  0.2165  0.3040
  129OSM   H18G13854   6.342   4.799   5.316  0.1838 -0.8584 -2.0411
  129OSM   H18H13855   6.184   4.823   5.368  1.6182 -4.3323 -0.1514
  130OSM      N13856   6.678   4.004   2.444 -0.5287 -0.5531 -0.4990
  130OSM    C1513857   6.755   3.932   2.549 -0.6425  0.4442  0.7961
  130OSM   H15A13858   6.820   4.002   2.599  0.4633  0.7169 -0.9127
  130OSM   H15B13859   6.828   3.870   2.498 -1.4240 -1.0514  1.4381
  130OSM   H15C13860   6.697   3.862   2.607 -0.5100 -0.1293  0.2498
  130OSM    C1413861   6.625   3.919   2.347  1.2529  0.9086  0.9534
  130OSM   H14A13862   6.556   3.972   2.283  0.4253 -1.3691 -0.1379
  130OSM   H14B13863   6.554   3.843   2.378  1.0206  0.5412 -0.4242
  130OSM   H14C13864   6.693   3.870   2.279  0.4692  1.7940 -0.5220
  130OSM    C1313865   6.562   4.074   2.511  0.4641 -0.4368  0.5018
  130OSM   H13A13866   6.490   4.109   2.439 -0.1506 -1.1136  0.7817
  130OSM   H13B13867   6.603   4.157   2.567 -1.8758  0.5819  0.8187
  130OSM   H13C13868   6.504   4.011   2.576 -2.2710  1.5120  0.1416
  130OSM    C1213869   6.777   4.097   2.371 -0.5523 -0.1126  0.2055
  130OSM   H12A13870   6.730   4.156   2.295 -0.0471  1.4420  1.0428
  130OSM   H12B13871   6.859   4.041   2.329 -0.3468 -0.0413  0.5040
  130OSM    C1113872   6.835   4.214   2.465 -0.6718 -0.5461 -0.1605
  130OSM   H11A13873   6.753   4.273   2.513  0.4644  1.6776 -0.7915
  130OSM   H11B13874   6.883   4.295   2.407 -0.1645  0.3508  1.4385
  130OSM      P13875   7.064   4.131   2.549 -0.0266  0.4971  0.1446
  130OSM    O1313876   7.079   3.996   2.486  0.1196  0.0899  0.8326
  130OSM    O1413877   7.130   4.241   2.478  0.1972 -0.1564 -0.1893
  130OSM    O1113878   7.129   4.118   2.689  0.2949 -0.4236 -0.3842
  130OSM    O1213879   6.906   4.169   2.578  0.1229  0.4841  0.1659
  130OSM    C1S13880   7.083   4.171   2.807 -0.4484  0.4548 -0.3295
  130OSM    H1S13881   6.988   4.227   2.796 -0.7227  0.0142 -0.2291
  130OSM    H1T13882   7.157   4.248   2.839 -0.7871  2.0358 -2.9983
  130OSM     NF13883   7.052   4.143   3.046 -0.1513  0.2293  0.4871
  130OSM    HNF13884   7.122   4.145   3.117 -0.0600 -1.4639  0.4805
  130OSM    C2S13885   7.072   4.072   2.919  0.7136  0.0493 -0.0119
  130OSM    H2S13886   6.983   4.008   2.901  1.5835 -1.0442 -0.5318
  130OSM    C3S13887   7.204   3.975   2.930 -0.0295 -0.0745 -0.1784
  130OSM    H3S13888   7.282   4.033   2.983 -0.6556 -1.2886  2.2203
  130OSM     O313889   7.252   3.933   2.806 -0.7903  0.0407  0.1154
  130OSM    HO313890   7.202   3.989   2.746 -0.9754  1.4237  1.5052
  130OSM    C4S13891   7.163   3.866   3.024 -0.0138 -0.0978  0.2711
  130OSM    H4S13892   7.208   3.855   3.124  2.4950 -1.1322 -0.8845
  130OSM    C5S13893   7.069   3.768   2.996 -0.1454  0.4960 -0.0575
  130OSM    H5S13894   7.010   3.777   2.903 -2.2973  1.5861  1.3239
  130OSM    C6S13895   7.026   3.670   3.107 -0.8262  0.2104  0.4893
  130OSM    H6S13896   7.115   3.641   3.167 -0.0049 -0.9245 -1.2012
  130OSM    H6T13897   6.984   3.581   3.055 -3.6498  0.4907  2.0872
  130OSM    C7S13898   6.914   3.744   3.186  0.5801 -0.4234 -0.0328
  130OSM    H7S13899   6.824   3.772   3.126 -0.7115  0.8971  2.3588
  130OSM    H7T13900   6.953   3.840   3.225 -0.3865  0.5648 -1.4137
  130OSM    C8S13901   6.876   3.658   3.307 -0.1661  0.4292  0.1494
  130OSM    H8S13902   6.974   3.631   3.353 -0.1958  0.6477  0.3385
  130OSM    H8T13903   6.826   3.565   3.273  1.8300  0.0554 -2.0463
  130OSM    C9S13904   6.800   3.733   3.415  0.7323  0.1244  0.2210
  130OSM    H9S13905   6.694   3.744   3.385  0.0583 -0.7838  2.1007
  130OSM    H9T13906   6.834   3.838   3.432 -1.7458  1.3370 -1.6410
  130OSM   C10S13907   6.796   3.653   3.540 -0.4781  0.4349 -0.5685
  130OSM   H10S13908   6.901   3.644   3.575 -0.1474 -0.4880 -1.7127
  130OSM   H10T13909   6.753   3.553   3.517 -0.5885  0.2157  0.5585
  130OSM   C11S13910   6.718   3.724   3.657  0.1327  0.5168  0.6942
  130OSM   H11S13911   6.611   3.699   3.642  0.1673  1.1893 -0.7783
  130OSM   H11T13912   6.736   3.833   3.658 -0.1862  0.5811  2.1983
  130OSM   C12S13913   6.770   3.661   3.788  0.3308 -0.3393 -0.4802
  130OSM   H12S13914   6.878   3.682   3.806  0.8317  0.8822 -4.1795
  130OSM   H12T13915   6.761   3.551   3.780 -0.6345 -0.5451  2.2813
  130OSM   C13S13916   6.692   3.705   3.916  0.3585 -0.1706 -0.2669
  130OSM   H13S13917   6.585   3.686   3.892  0.8888 -2.2794 -1.1663
  130OSM   H13T13918   6.696   3.816   3.910 -0.4909 -0.1949 -1.7220
  130OSM   C14S13919   6.730   3.634   4.051  0.0123 -0.0641 -0.3079
  130OSM   H14S13920   6.815   3.687   4.098 -1.2894  0.0045  2.1020
  130OSM   H14T13921   6.760   3.530   4.023  0.2479  0.1104 -0.7113
  130OSM   C15S13922   6.618   3.648   4.158 -0.0143  0.0041 -0.0234
  130OSM   H15S13923   6.637   3.573   4.238  2.2377 -1.3502 -1.7017
  130OSM   H15T13924   6.517   3.630   4.115 -0.0617 -0.4755  0.2748
  130OSM   C16S13925   6.609   3.795   4.211  0.3842 -0.1747 -0.1371
  130OSM   H16S13926   6.592   3.860   4.123 -1.3547  2.2567  1.8164
  130OSM   H16T13927   6.703   3.830   4.261  1.2011  0.3827 -1.9949
  130OSM   C17S13928   6.500   3.823   4.313 -1.0415 -0.5679  0.0406
  130OSM   H17S13929   6.396   3.803   4.278 -1.0673 -0.6000  0.1352
  130OSM   H17T13930   6.512   3.932   4.332 -2.0321 -0.2960 -0.7793
  130OSM   C18S13931   6.535   3.760   4.443  1.3762  0.4091 -0.7737
  130OSM   H18S13932   6.631   3.802   4.481  2.1799 -0.4366 -1.8043
  130OSM   H18T13933   6.542   3.651   4.426  0.0471  0.3682 -1.1887
  130OSM   H18U13934   6.458   3.777   4.520  0.3555  1.7387 -2.0319
  130OSM    C1F13935   6.935   4.190   3.079 -0.1432  0.6419  0.9773
  130OSM     OF13936   6.836   4.163   3.012 -0.2858  0.2714  0.2969
  130OSM    C2F13937   6.929   4.275   3.196 -0.8675  0.7141 -0.0248
  130OSM    H2F13938   6.869   4.365   3.174 -0.9104  0.3085 -1.6911
  130OSM    H2G13939   7.032   4.305   3.225  0.2788 -2.5140 -0.3473
  130OSM    C3F13940   6.856   4.203   3.312 -0.3187 -0.1478  0.7420
  130OSM    H3F13941   6.889   4.097   3.309 -1.6888 -0.7451  3.5139
  130OSM    H3G13942   6.747   4.204   3.291 -0.1932 -1.1402 -0.0750
  130OSM    C4F13943   6.888   4.259   3.452 -0.4444  0.6297 -0.3132
  130OSM    H4F13944   6.879   4.369   3.459 -0.9036  0.6272 -0.7591
  130OSM    H4G13945   6.993   4.231   3.479 -0.2258  2.0437  0.3669
  130OSM    C5F13946   6.794   4.216   3.568  0.3676  0.0584 -0.4880
  130OSM    H5F13947   6.772   4.109   3.546 -3.2591  0.9486 -1.9989
  130OSM    H5G13948   6.694   4.264   3.559  1.2456  2.1719  0.5281
  130OSM    C6F13949   6.845   4.257   3.704  0.2109 -0.1776  0.5451
  130OSM    H6F13950   6.865   4.366   3.703 -0.4066 -0.0690 -0.0231
  130OSM    H6G13951   6.944   4.206   3.716  0.5746  0.3674 -0.0934
  130OSM    C7F13952   6.750   4.220   3.824  0.5255 -0.2468 -0.2741
  130OSM    H7F13953   6.722   4.114   3.807 -3.1465  0.6769 -0.9525
  130OSM    H7G13954   6.653   4.275   3.817  0.3403 -0.3814  0.8879
  130OSM    C8F13955   6.807   4.261   3.955  0.0357 -0.4218 -0.6185
  130OSM    H8F13956   6.776   4.362   3.990  0.4179 -1.1942  2.2352
  130OSM    H8G13957   6.917   4.261   3.935  0.6255  1.2025  2.1414
  130OSM    C9F13958   6.761   4.156   4.058  0.6918 -0.0775 -0.5686
  130OSM    H9F13959   6.764   4.049   4.036 -2.8820 -0.3421 -0.4344
  130OSM   C10F13960   6.706   4.190   4.174  0.2591 -0.4802 -1.1044
  130OSM   H10F13961   6.676   4.112   4.245  1.7288 -0.3941 -0.3511
  130OSM   C11F13962   6.684   4.329   4.231 -0.7887 -0.2575  0.5837
  130OSM   H11F13963   6.625   4.394   4.163  0.9941  1.9921  1.0462
  130OSM   H11G13964   6.784   4.379   4.226 -0.4670 -1.0243 -1.7466
  130OSM   C12F13965   6.635   4.330   4.376  0.1983  0.1304 -0.0558
  130OSM   H12F13966   6.532   4.291   4.390  0.1523 -0.4118 -1.6708
  130OSM   H12G13967   6.614   4.437   4.399  0.6412  0.5557 -1.5217
  130OSM   C13F13968   6.734   4.274   4.480  0.5933  0.1184 -0.8463
  130OSM   H13F13969   6.766   4.349   4.555  2.4778 -1.5352  0.0904
  130OSM   H13G13970   6.832   4.243   4.438  0.5671 -1.0776 -0.0858
  130OSM   C14F13971   6.684   4.155   4.546  0.7471  0.2545  0.2974
  130OSM   H14F13972   6.682   4.070   4.475  1.5528  0.8848 -0.5007
  130OSM   H14G13973   6.575   4.167   4.564  0.6266  5.0539 -2.2324
  130OSM   C15F13974   6.747   4.120   4.676  0.2490  0.2633  0.3197
  130OSM   H15F13975   6.707   4.021   4.707 -0.1302  0.3690  0.1789
  130OSM   H15G13976   6.725   4.193   4.757  0.9532  0.5926  0.2169
  130OSM   C16F13977   6.899   4.094   4.672 -0.5302  0.4045  0.1214
  130OSM   H16F13978   6.954   4.191   4.673  1.5337 -0.5101 -4.0584
  130OSM   H16G13979   6.936   4.045   4.579  2.8316  1.4273  0.7772
  130OSM   C17F13980   6.939   3.994   4.783 -0.2218 -0.6880  0.7268
  130OSM   H17F13981   6.888   3.896   4.772  1.7518 -1.5112 -2.4111
  130OSM   H17G13982   6.904   4.046   4.875  0.2788  1.8405 -0.4175
  130OSM   C18F13983   7.088   3.965   4.794 -0.2830  0.9417 -0.2333
  130OSM   H18F13984   7.114   3.916   4.891 -0.0804  1.6447  0.0716
  130OSM   H18G13985   7.140   4.063   4.797  4.2699 -1.1984 -1.3242
  130OSM   H18H13986   7.137   3.904   4.715  0.7273  0.5551  0.6717
  131OSM      N13987   5.190   5.564   2.953  0.0147  0.0130 -0.1571
  131OSM    C1513988   5.138   5.618   2.828 -0.4328 -0.3954 -0.3983
  131OSM   H15A13989   5.078   5.707   2.838 -2.1896 -1.6415  0.9361
  131OSM   H15B13990   5.079   5.546   2.773  0.6952 -0.3220 -1.7913
  131OSM   H15C13991   5.225   5.646   2.771 -1.7914  0.2333 -2.2758
  131OSM    C1413992   5.085   5.567   3.061 -0.2321  0.5566  0.7631
  131OSM   H14A13993   5.125   5.520   3.150  1.9012 -2.2666 -1.4949
  131OSM   H14B13994   5.005   5.505   3.023  1.3118 -0.5744 -0.8074
  131OSM   H14C13995   5.046   5.665   3.081  0.3316  1.0035 -0.3087
  131OSM    C1313996   5.242   5.422   2.935  0.4980 -0.9434  0.1251
  131OSM   H13A13997   5.157   5.357   2.921 -1.3314  1.1737  0.8386
  131OSM   H13B13998   5.293   5.390   3.025 -0.9322  0.2715  1.4346
  131OSM   H13C13999   5.314   5.407   2.857  0.4781  0.6084 -0.2312
  131OSM    C1214000   5.298   5.657   3.007  0.4295  0.3093 -0.3308
  131OSM   H12A14001   5.378   5.665   2.935 -0.0850 -1.6507 -1.1959
  131OSM   H12B14002   5.336   5.606   3.094 -1.3008  0.1349  0.3549
  131OSM    C1114003   5.252   5.801   3.043 -0.2918  0.0928  0.2253
  131OSM   H11A14004   5.177   5.791   3.125 -0.8245 -0.7738 -0.3490
  131OSM   H11B14005   5.195   5.843   2.957 -0.4527 -0.6011 -0.0138
  131OSM      P14006   5.486   5.906   3.022  0.3093  0.4103  0.4633
  131OSM    O1314007   5.548   5.772   3.033  0.4058  0.1390 -0.1346
  131OSM    O1414008   5.453   5.964   2.890  0.2579  0.6989  0.2209
  131OSM    O1114009   5.582   6.002   3.101  0.2611 -0.0901 -0.1222
  131OSM    O1214010   5.348   5.887   3.101 -0.5112  0.0194  0.1150
  131OSM    C1S14011   5.552   6.141   3.121  0.7286  0.1400  0.2298
  131OSM    H1S14012   5.448   6.173   3.096  0.1402 -1.4235  0.5591
  131OSM    H1T14013   5.613   6.214   3.064  1.5182 -1.6412 -1.2904
  131OSM     NF14014   5.512   6.309   3.299  0.8960 -0.2179  0.1167
  131OSM    HNF14015   5.574   6.378   3.334  2.3988 -0.5362 -1.7510
  131OSM    C2S14016   5.563   6.175   3.271  0.2279 -0.6162 -0.6716
  131OSM    H2S14017   5.503   6.099   3.326  1.7413 -1.3077  0.0803
  131OSM    C3S14018   5.708   6.149   3.309 -0.2447  0.1936  0.4108
  131OSM    H3S14019   5.768   6.225   3.253  0.4610 -1.2681 -0.9121
  131OSM     O314020   5.752   6.018   3.281 -0.3095  0.5357  0.6212
  131OSM    HO314021   5.715   5.987   3.197 -0.1771 -1.3892  1.2102
  131OSM    C4S14022   5.740   6.188   3.453  0.5279 -0.2931  0.4948
  131OSM    H4S14023   5.675   6.161   3.538 -0.9246  1.0976 -0.1339
  131OSM    C5S14024   5.871   6.214   3.473  0.5927  0.2932  0.1561
  131OSM    H5S14025   5.941   6.198   3.390 -2.4628 -1.1015 -2.3896
  131OSM    C6S14026   5.922   6.208   3.610  0.3206 -0.9139  0.1702
  131OSM    H6S14027   6.031   6.189   3.617  0.4546  0.1748  1.3240
  131OSM    H6T14028   5.888   6.112   3.655 -0.3691 -2.8949 -4.0660
  131OSM    C7S14029   5.886   6.321   3.714  0.2987 -0.1373  0.0785
  131OSM    H7S14030   5.777   6.308   3.731 -0.0336  0.3304 -1.4824
  131OSM    H7T14031   5.893   6.420   3.664 -3.5484 -0.1637 -0.8159
  131OSM    C8S14032   5.961   6.305   3.842 -0.4068 -0.5970 -0.7642
  131OSM    H8S14033   6.070   6.320   3.823 -0.6639  1.0808 -1.1208
  131OSM    H8T14034   5.951   6.203   3.883 -0.7599 -0.1765  0.2395
  131OSM    C9S14035   5.929   6.406   3.960  0.7681  0.0263  0.3876
  131OSM    H9S14036   5.820   6.401   3.977  0.6030 -1.1160 -0.8776
  131OSM    H9T14037   5.961   6.511   3.943 -0.8129  0.5658  0.6547
  131OSM   C10S14038   5.987   6.355   4.099  0.8464  0.2356  0.6049
  131OSM   H10S14039   6.095   6.340   4.080  0.7674  1.5554 -1.1842
  131OSM   H10T14040   5.954   6.252   4.122  0.2040  0.4205  0.5297
  131OSM   C11S14041   5.961   6.454   4.208  0.0262 -0.4552 -0.7110
  131OSM   H11S14042   5.852   6.471   4.212 -0.2876 -2.5751  1.0986
  131OSM   H11T14043   6.006   6.554   4.188 -0.4320  0.2238  1.4322
  131OSM   C12S14044   6.007   6.412   4.347  0.6235  0.3171 -1.1450
  131OSM   H12S14045   5.988   6.303   4.363  2.5868  0.3425  2.2026
  131OSM   H12T14046   5.938   6.459   4.421  1.4237  0.5637 -0.5466
  131OSM   C13S14047   6.143   6.445   4.390  0.2128 -0.3062 -0.2811
  131OSM   H13S14048   6.155   6.555   4.382  0.3849 -0.3830 -1.2068
  131OSM   H13T14049   6.226   6.389   4.341 -0.0746 -0.9258 -0.0677
  131OSM   C14S14050   6.156   6.420   4.539  0.0163  0.5693  0.3955
  131OSM   H14S14051   6.140   6.318   4.580 -1.9426  0.6214 -0.1339
  131OSM   H14T14052   6.080   6.489   4.582 -0.1418  0.7742 -0.2036
  131OSM   C15S14053   6.286   6.472   4.598  0.5652  0.6132 -0.2393
  131OSM   H15S14054   6.305   6.571   4.551 -3.0122  0.9807 -1.1944
  131OSM   H15T14055   6.365   6.407   4.556 -0.5746 -0.6493 -0.4717
  131OSM   C16S14056   6.277   6.480   4.755  0.3513  0.3109  0.9516
  131OSM   H16S14057   6.249   6.379   4.791 -1.4425  0.4092 -0.0426
  131OSM   H16T14058   6.189   6.545   4.777 -0.8953 -0.9727 -0.0425
  131OSM   C17S14059   6.412   6.523   4.821 -0.2606  0.6560 -0.4100
  131OSM   H17S14060   6.438   6.626   4.791  3.0424  0.3063  0.8018
  131OSM   H17T14061   6.492   6.455   4.785 -0.3975  0.3962 -0.2302
  131OSM   C18S14062   6.413   6.527   4.968 -0.2290  0.2737  0.8049
  131OSM   H18S14063   6.508   6.481   5.001 -0.3061 -0.2170  0.3552
  131OSM   H18T14064   6.332   6.475   5.023  0.7697 -0.3820  1.6901
  131OSM   H18U14065   6.422   6.630   5.009  0.7718  0.1475  0.9336
  131OSM    C1F14066   5.375   6.327   3.290  0.0477  0.4454 -0.1269
  131OSM     OF14067   5.302   6.229   3.283 -0.2952  0.0306 -0.0198
  131OSM    C2F14068   5.329   6.463   3.304 -0.1621  0.4927 -0.2442
  131OSM    H2F14069   5.276   6.490   3.209 -1.0441  0.2306  0.1626
  131OSM    H2G14070   5.409   6.537   3.325  0.1420 -0.2835  1.4779
  131OSM    C3F14071   5.213   6.474   3.410  0.4335 -0.3232  0.0140
  131OSM    H3F14072   5.129   6.406   3.386 -0.6167  1.1297 -0.5531
  131OSM    H3G14073   5.173   6.577   3.399 -0.7335 -0.7188  0.4366
  131OSM    C4F14074   5.263   6.451   3.551 -0.3390 -0.1711 -0.3635
  131OSM    H4F14075   5.360   6.502   3.566  0.4933 -1.6382 -0.6338
  131OSM    H4G14076   5.277   6.342   3.568  2.0753  0.5193  3.0176
  131OSM    C5F14077   5.165   6.507   3.661 -0.2014 -0.2555  0.3024
  131OSM    H5F14078   5.068   6.469   3.622 -0.8820 -0.6183  2.2381
  131OSM    H5G14079   5.173   6.617   3.646 -0.1108 -0.2679  0.2578
  131OSM    C6F14080   5.183   6.490   3.811  0.2227 -0.2572  0.0395
  131OSM    H6F14081   5.109   6.560   3.855 -0.2386 -0.2731 -0.6928
  131OSM    H6G14082   5.287   6.505   3.847  0.5114  0.5213 -1.0634
  131OSM    C7F14083   5.142   6.355   3.868  0.4536  0.4950  0.1004
  131OSM    H7F14084   5.200   6.274   3.818  1.0358 -0.4439  2.2138
  131OSM    H7G14085   5.035   6.332   3.850  1.1065 -2.3467 -0.8301
  131OSM    C8F14086   5.158   6.339   4.018 -0.5048 -0.5382  0.1516
  131OSM    H8F14087   5.268   6.349   4.030 -0.7920  2.3970  1.3002
  131OSM    H8G14088   5.127   6.234   4.038  0.0860 -1.0421 -1.4481
  131OSM    C9F14089   5.076   6.427   4.112 -0.5402  0.4482  0.0384
  131OSM    H9F14090   4.996   6.482   4.060 -0.5234  1.3571  0.9487
  131OSM   C10F14091   5.091   6.452   4.243 -0.0165 -0.1531 -0.0023
  131OSM   H10F14092   5.015   6.511   4.295 -0.5348 -0.4918 -0.3655
  131OSM   C11F14093   5.194   6.402   4.341  0.3073 -0.2423 -0.7331
  131OSM   H11F14094   5.232   6.475   4.416 -0.4802 -0.2725 -0.2946
  131OSM   H11G14095   5.287   6.370   4.289 -0.0161 -0.0398 -1.4404
  131OSM   C12F14096   5.139   6.290   4.430  0.1863 -0.5495 -0.3896
  131OSM   H12F14097   5.117   6.211   4.355  0.1711  0.8444 -1.9173
  131OSM   H12G14098   5.042   6.322   4.473 -0.5055 -0.0118 -2.2396
  131OSM   C13F14099   5.224   6.249   4.546  0.4328  0.2618  0.0143
  131OSM   H13F14100   5.253   6.338   4.606  1.4913 -0.1674  0.1656
  131OSM   H13G14101   5.321   6.212   4.505 -0.5230 -0.0350 -2.0600
  131OSM   C14F14102   5.165   6.151   4.644 -0.3025  0.7285 -0.5519
  131OSM   H14F14103   5.139   6.055   4.595  2.0279  1.3021 -3.1357
  131OSM   H14G14104   5.065   6.191   4.671 -0.1846  2.1911 -2.0880
  131OSM   C15F14105   5.246   6.139   4.775 -0.0236 -0.1339  0.0799
  131OSM   H15F14106   5.342   6.096   4.741  1.0423  3.0246 -1.2888
  131OSM   H15G14107   5.194   6.051   4.819  1.1232 -1.1490 -0.5240
  131OSM   C16F14108   5.269   6.262   4.862 -0.8437 -0.6936 -0.5036
  131OSM   H16F14109   5.172   6.294   4.907 -0.0830 -0.4320  0.9769
  131OSM   H16G14110   5.314   6.356   4.822  1.6426 -1.2419  0.8467
  131OSM   C17F14111   5.364   6.239   4.976  0.7077 -0.1357  0.2608
  131OSM   H17F14112   5.464   6.214   4.935 -0.0469 -1.8118 -0.6699
  131OSM   H17G14113   5.344   6.149   5.038  1.9406 -0.3004  0.4535
  131OSM   C18F14114   5.371   6.351   5.076 -0.6544  0.0596  0.2698
  131OSM   H18F14115   5.393   6.446   5.021 -1.1118  0.3008  0.5009
  131OSM   H18G14116   5.461   6.317   5.132 -2.7074 -1.2958  2.9227
  131OSM   H18H14117   5.285   6.357   5.145  0.8033  0.5184  2.1369
  132OSM      N14118   2.178   1.612   2.408  0.8963 -0.6545 -0.2129
  132OSM    C1514119   2.094   1.735   2.427  0.3143  0.2319 -0.0877
  132OSM   H15A14120   2.153   1.824   2.444 -1.4601  1.3675  0.4187
  132OSM   H15B14121   2.026   1.732   2.511 -0.5833  2.4099 -0.6708
  132OSM   H15C14122   2.052   1.750   2.328  2.2739 -0.9036 -1.1569
  132OSM    C1414123   2.244   1.598   2.535 -0.0848 -0.3813  0.1770
  132OSM   H14A14124   2.337   1.652   2.532 -0.1739 -0.2533 -0.2746
  132OSM   H14B14125   2.253   1.494   2.562 -2.9962 -1.0486 -1.1009
  132OSM   H14C14126   2.173   1.625   2.612 -0.7963 -1.9211  0.0941
  132OSM    C1314127   2.091   1.493   2.380 -0.5452 -0.4010  0.0684
  132OSM   H13A14128   2.003   1.491   2.443 -0.3496 -0.4584  0.3420
  132OSM   H13B14129   2.146   1.402   2.397 -0.6536 -0.8074 -1.5973
  132OSM   H13C14130   2.062   1.500   2.277 -3.1344 -0.4150  0.7237
  132OSM    C1214131   2.280   1.627   2.292 -0.6415  0.4451 -0.0757
  132OSM   H12A14132   2.220   1.660   2.208 -1.0264 -0.5359 -0.2035
  132OSM   H12B14133   2.317   1.528   2.269  0.4578 -0.2669  3.9806
  132OSM    C1114134   2.401   1.715   2.320 -0.0158  0.7662  0.1113
  132OSM   H11A14135   2.477   1.691   2.243 -1.8844 -2.0067 -1.0544
  132OSM   H11B14136   2.447   1.697   2.420  1.1866 -0.1827 -0.6002
  132OSM      P14137   2.455   1.978   2.342  0.3623  0.2190  0.2317
  132OSM    O1314138   2.557   1.979   2.233 -0.4114 -1.3789 -0.2157
  132OSM    O1414139   2.369   2.098   2.357 -0.1685 -0.2706  0.3610
  132OSM    O1114140   2.509   1.937   2.482 -0.4638  0.1672  0.2562
  132OSM    O1214141   2.360   1.850   2.318  0.2855 -0.3718  0.1630
  132OSM    C1S14142   2.425   1.940   2.597  0.3526 -0.3785  0.1990
  132OSM    H1S14143   2.365   1.847   2.599 -1.4625  0.7480  1.6505
  132OSM    H1T14144   2.357   2.028   2.604  0.5516 -0.2323  0.2934
  132OSM     NF14145   2.435   1.893   2.834  0.2788 -0.2184  0.5859
  132OSM    HNF14146   2.378   1.957   2.885 -1.8276 -1.2344 -0.3958
  132OSM    C2S14147   2.515   1.937   2.723  0.4249 -0.0999  0.3749
  132OSM    H2S14148   2.591   1.859   2.699 -0.3193 -0.7487  0.0763
  132OSM    C3S14149   2.592   2.071   2.748 -0.1010 -0.2367  0.9541
  132OSM    H3S14150   2.533   2.156   2.789  0.5181  0.1719  1.0142
  132OSM     O314151   2.646   2.120   2.625 -0.0299  0.0979  0.2766
  132OSM    HO314152   2.611   2.052   2.567 -0.1749 -1.2138  1.8439
  132OSM    C4S14153   2.696   2.034   2.845  0.0831  0.2959  0.6640
  132OSM    H4S14154   2.766   1.956   2.813 -1.0766 -0.2567 -0.6550
  132OSM    C5S14155   2.706   2.085   2.973  0.5770 -0.5989  0.0545
  132OSM    H5S14156   2.633   2.161   3.004  1.0510  0.0715 -0.4422
  132OSM    C6S14157   2.800   2.041   3.084  0.4858  0.6038 -0.0138
  132OSM    H6S14158   2.894   2.100   3.084  0.9587 -0.1364  0.0837
  132OSM    H6T14159   2.822   1.932   3.078 -2.7295 -0.3332  2.3444
  132OSM    C7S14160   2.719   2.057   3.210 -0.1831 -0.4411  0.0253
  132OSM    H7S14161   2.639   1.980   3.210 -2.2051  1.5563  0.8580
  132OSM    H7T14162   2.663   2.152   3.217 -1.9528 -1.5084  1.4074
  132OSM    C8S14163   2.803   2.043   3.345  0.1198 -0.1428  0.4504
  132OSM    H8S14164   2.885   2.118   3.341 -0.6550  0.6721 -1.0617
  132OSM    H8T14165   2.854   1.945   3.353 -0.5060 -0.4284  1.0374
  132OSM    C9S14166   2.719   2.074   3.466  0.1739 -0.1371 -0.8215
  132OSM    H9S14167   2.630   2.009   3.482  0.5519 -0.2451  1.1666
  132OSM    H9T14168   2.683   2.179   3.456  0.5709 -0.0096 -0.9080
  132OSM   C10S14169   2.812   2.043   3.589  0.1558 -0.0043  0.3090
  132OSM   H10S14170   2.904   2.105   3.589 -0.7694  1.5070 -1.5553
  132OSM   H10T14171   2.832   1.935   3.580 -1.7474 -0.2745 -1.4445
  132OSM   C11S14172   2.736   2.061   3.721 -0.1644  0.2697  0.0195
  132OSM   H11S14173   2.650   1.991   3.719 -0.5239  0.7016  0.2478
  132OSM   H11T14174   2.713   2.169   3.713  1.1094  0.4240 -2.3740
  132OSM   C12S14175   2.817   2.045   3.851 -0.3180 -0.3301  0.6403
  132OSM   H12S14176   2.902   2.116   3.849 -1.8941  1.6688 -2.2596
  132OSM   H12T14177   2.855   1.941   3.847 -0.5488 -0.5072 -5.3008
  132OSM   C13S14178   2.738   2.079   3.977  0.1778  0.5807 -0.6362
  132OSM   H13S14179   2.632   2.048   3.968  0.6922 -1.0081 -1.5026
  132OSM   H13T14180   2.732   2.188   3.998 -2.5711  0.6625 -1.4958
  132OSM   C14S14181   2.787   2.000   4.098 -0.3906 -0.6124  0.0199
  132OSM   H14S14182   2.889   2.038   4.119 -1.0048  0.7919  0.5330
  132OSM   H14T14183   2.779   1.891   4.077  0.8745 -0.7242  0.0378
  132OSM   C15S14184   2.706   2.021   4.220 -0.6980  0.0426 -0.6737
  132OSM   H15S14185   2.599   1.989   4.213 -0.6380 -0.1357 -0.8016
  132OSM   H15T14186   2.691   2.131   4.226 -1.0163  0.2378 -3.5580
  132OSM   C16S14187   2.768   1.965   4.354 -0.1468 -0.7795  1.0843
  132OSM   H16S14188   2.864   2.017   4.376 -0.2219 -0.6954  1.2154
  132OSM   H16T14189   2.792   1.860   4.327 -2.1823 -0.6375 -1.7268
  132OSM   C17S14190   2.669   1.971   4.472  0.5734  0.2994 -0.5614
  132OSM   H17S14191   2.612   2.063   4.446 -0.6117 -0.4509 -0.7047
  132OSM   H17T14192   2.728   1.969   4.565 -1.2697  2.5617  0.7604
  132OSM   C18S14193   2.566   1.856   4.472 -0.3394  0.1314 -0.0149
  132OSM   H18S14194   2.484   1.878   4.544 -0.3950 -0.2222  0.0334
  132OSM   H18T14195   2.611   1.760   4.507 -1.3520 -0.7309 -0.9851
  132OSM   H18U14196   2.516   1.837   4.375  0.0600 -0.1902 -0.1592
  132OSM    C1F14197   2.388   1.770   2.851 -0.5718  0.0910  0.5041
  132OSM     OF14198   2.435   1.684   2.774 -0.2710 -0.0379  0.0073
  132OSM    C2F14199   2.276   1.745   2.950 -0.5795  0.0485  0.1761
  132OSM    H2F14200   2.186   1.800   2.915 -0.1967  0.6167  0.0721
  132OSM    H2G14201   2.297   1.793   3.048 -2.0839  0.9163  0.0942
  132OSM    C3F14202   2.256   1.594   2.970  0.3542  0.5478  0.4232
  132OSM    H3F14203   2.337   1.550   3.032 -1.4204 -2.0603  1.0356
  132OSM    H3G14204   2.265   1.545   2.871  2.9942  2.1673 -0.2718
  132OSM    C4F14205   2.125   1.566   3.036  0.4038  0.5269 -0.4071
  132OSM    H4F14206   2.119   1.455   3.033 -2.1142  0.5942 -0.2916
  132OSM    H4G14207   2.039   1.611   2.982 -1.8768 -1.3284  1.4450
  132OSM    C5F14208   2.118   1.616   3.187  0.3184  0.2339  0.5222
  132OSM    H5F14209   2.107   1.723   3.158 -0.3783 -0.7194 -3.3097
  132OSM    H5G14210   2.221   1.596   3.225 -0.0585  0.3653  1.6315
  132OSM    C6F14211   1.991   1.572   3.265  0.5354  0.0563 -1.0429
  132OSM    H6F14212   1.994   1.466   3.297  3.4559  0.5509  0.7017
  132OSM    H6G14213   1.900   1.558   3.202  0.0625  0.2064 -0.4017
  132OSM    C7F14214   1.956   1.675   3.373  0.8264 -0.4329  0.6920
  132OSM    H7F14215   1.868   1.631   3.424 -0.2128 -1.6137 -1.9456
  132OSM    H7G14216   1.915   1.767   3.325  0.2083 -0.3119  1.4291
  132OSM    C8F14217   2.064   1.731   3.469 -0.5500  0.0480  0.1504
  132OSM    H8F14218   2.022   1.807   3.540  0.0603  0.8959 -0.3800
  132OSM    H8G14219   2.145   1.779   3.411 -0.3849  2.8485  2.4227
  132OSM    C9F14220   2.110   1.610   3.549  0.6715 -0.5876 -0.2915
  132OSM    H9F14221   2.153   1.522   3.498  1.4455 -1.9353  2.4606
  132OSM   C10F14222   2.114   1.598   3.687 -0.4784  0.4739  0.5058
  132OSM   H10F14223   2.141   1.499   3.726  0.4228 -0.0228 -1.2918
  132OSM   C11F14224   2.068   1.696   3.794  0.7507  0.9431 -0.3645
  132OSM   H11F14225   1.978   1.652   3.842  2.3437 -0.3543  1.5979
  132OSM   H11G14226   2.032   1.789   3.744  0.2336  1.6958  1.3208
  132OSM   C12F14227   2.163   1.736   3.903 -0.1158 -0.6346  0.2240
  132OSM   H12F14228   2.251   1.785   3.856 -0.7190 -0.6971 -0.9867
  132OSM   H12G14229   2.203   1.656   3.970 -0.6870 -0.1719  1.1310
  132OSM   C13F14230   2.105   1.837   3.998 -0.5422 -0.3673 -0.0716
  132OSM   H13F14231   2.001   1.808   4.021 -0.4330 -1.4237 -0.8149
  132OSM   H13G14232   2.091   1.929   3.937  1.4100  0.4080  0.5738
  132OSM   C14F14233   2.196   1.850   4.122  0.2912 -0.5630  0.1992
  132OSM   H14F14234   2.298   1.885   4.095  0.4407 -0.5969  0.7166
  132OSM   H14G14235   2.217   1.751   4.168  3.7525 -0.1593 -0.2947
  132OSM   C15F14236   2.141   1.944   4.230 -0.0015 -0.6620  0.5403
  132OSM   H15F14237   2.042   1.910   4.267 -0.9272  0.9254 -0.3625
  132OSM   H15G14238   2.127   2.037   4.171 -1.0121 -1.4795 -0.5451
  132OSM   C16F14239   2.238   1.957   4.346  0.0409 -0.5610 -0.1996
  132OSM   H16F14240   2.336   1.989   4.303  0.6019 -0.9781  0.7196
  132OSM   H16G14241   2.261   1.864   4.402 -1.6510  1.0440  3.5658
  132OSM   C17F14242   2.193   2.064   4.452  0.3698  0.0068  0.1129
  132OSM   H17F14243   2.159   2.154   4.397  0.2175  1.1100  1.9427
  132OSM   H17G14244   2.282   2.095   4.510 -0.5993 -0.2574  1.7846
  132OSM   C18F14245   2.085   2.015   4.546 -0.0912  0.5517 -0.1510
  132OSM   H18F14246   2.053   2.102   4.606  2.6617  3.0395 -2.0040
  132OSM   H18G14247   2.126   1.933   4.609 -1.0762 -0.8122 -1.2114
  132OSM   H18H14248   1.992   1.985   4.494  0.4708 -2.9016  0.5866
  133OSM      N14249   0.809   1.980   2.202  0.3136 -0.4700  0.2354
  133OSM    C1514250   0.933   2.061   2.175  0.0717 -0.3351 -0.8130
  133OSM   H15A14251   0.925   2.132   2.094 -0.8793  0.8468  0.2747
  133OSM   H15B14252   1.013   1.989   2.166  0.7854 -0.3857  3.6357
  133OSM   H15C14253   0.969   2.114   2.261  0.2282 -2.7858  0.7364
  133OSM    C1414254   0.777   1.902   2.079 -0.0252 -0.2997  0.3445
  133OSM   H14A14255   0.859   1.837   2.051  0.7184 -0.0827  1.9531
  133OSM   H14B14256   0.740   1.977   2.011  2.7977  1.1465  0.2789
  133OSM   H14C14257   0.701   1.828   2.100 -0.2918 -0.8571 -2.2097
  133OSM    C1314258   0.843   1.886   2.316  0.0380  0.3193 -0.1782
  133OSM   H13A14259   0.886   1.944   2.396 -0.5109 -1.8557  1.7908
  133OSM   H13B14260   0.916   1.809   2.294  0.1623  0.6852 -1.1258
  133OSM   H13C14261   0.749   1.841   2.343 -1.0364  1.1153 -2.3230
  133OSM    C1214262   0.701   2.083   2.236  0.1864 -0.3350  0.0346
  133OSM   H12A14263   0.599   2.050   2.224 -2.2419  5.0192  2.8070
  133OSM   H12B14264   0.710   2.173   2.177  0.7356  0.7631  1.7156
  133OSM    C1114265   0.693   2.135   2.382 -0.2805 -0.9265  0.3237
  133OSM   H11A14266   0.647   2.051   2.440 -1.8419  0.1308  0.6847
  133OSM   H11B14267   0.616   2.214   2.392 -0.1560 -0.9668  1.8021
  133OSM      P14268   0.874   2.201   2.557  0.1369 -0.0284 -0.0323
  133OSM    O1314269   1.023   2.178   2.572 -0.0918 -0.7952 -0.1519
  133OSM    O1414270   0.826   2.339   2.586 -0.2020  0.1467 -0.0127
  133OSM    O1114271   0.794   2.094   2.644  0.6100  0.3080 -0.8627
  133OSM    O1214272   0.825   2.162   2.412 -0.5614  0.5294 -0.2757
  133OSM    C1S14273   0.847   2.043   2.768  0.0040  0.4677  0.9016
  133OSM    H1S14274   0.948   1.998   2.755 -0.0261  0.4320  0.7835
  133OSM    H1T14275   0.793   1.948   2.789 -0.9589  0.6150 -0.6795
  133OSM     NF14276   0.906   2.067   3.008  0.4670  0.0994 -0.3606
  133OSM    HNF14277   0.846   2.030   3.079  1.6490  0.0944  0.6643
  133OSM    C2S14278   0.841   2.132   2.896 -0.1283  0.3819  0.6024
  133OSM    H2S14279   0.890   2.229   2.872 -1.7522  0.5128 -2.8734
  133OSM    C3S14280   0.687   2.174   2.918  0.5083  0.6467  0.8516
  133OSM    H3S14281   0.628   2.080   2.932 -0.4763  1.0693 -0.2523
  133OSM     O314282   0.623   2.231   2.803  0.4014 -0.4120  0.0709
  133OSM    HO314283   0.682   2.210   2.730  0.4470 -0.6463  0.1734
  133OSM    C4S14284   0.671   2.260   3.039  0.0274  0.8799  0.2753
  133OSM    H4S14285   0.633   2.205   3.126  0.6079  1.9772  1.2526
  133OSM    C5S14286   0.700   2.391   3.048 -0.7158  0.2419  1.0270
  133OSM    H5S14287   0.724   2.445   2.956 -3.1592 -0.0837  0.1228
  133OSM    C6S14288   0.681   2.466   3.173  0.4507  0.1854 -0.5666
  133OSM    H6S14289   0.583   2.515   3.149  0.3868  0.6803  0.6586
  133OSM    H6T14290   0.748   2.554   3.179 -0.2529  0.8095 -1.4393
  133OSM    C7S14291   0.680   2.385   3.307 -0.3371  0.4213 -0.1161
  133OSM    H7S14292   0.779   2.334   3.314 -1.1464 -1.3109 -0.6961
  133OSM    H7T14293   0.596   2.312   3.305  0.6447 -0.9065  2.3720
  133OSM    C8S14294   0.651   2.468   3.435 -0.1953 -0.7585  0.6104
  133OSM    H8S14295   0.560   2.530   3.421  0.5712  1.4409  4.0794
  133OSM    H8T14296   0.732   2.542   3.451 -0.8526  0.7597 -2.3049
  133OSM    C9S14297   0.637   2.388   3.561 -0.0217  0.1428  0.1136
  133OSM    H9S14298   0.731   2.329   3.566 -1.4288 -2.2373 -0.0981
  133OSM    H9T14299   0.560   2.308   3.557  1.0024 -0.9000  0.7779
  133OSM   C10S14300   0.622   2.474   3.689  0.1049 -0.1312 -0.8735
  133OSM   H10S14301   0.531   2.537   3.688  0.1977  0.0626  0.5228
  133OSM   H10T14302   0.708   2.545   3.694 -0.0763  0.0311  0.3743
  133OSM   C11S14303   0.608   2.389   3.824 -0.5303  0.1526  0.9579
  133OSM   H11S14304   0.709   2.342   3.828  0.1873  1.6847  1.6720
  133OSM   H11T14305   0.527   2.316   3.802  1.1703 -1.1137 -1.6463
  133OSM   C12S14306   0.576   2.473   3.944  0.9748 -0.0893 -0.1124
  133OSM   H12S14307   0.472   2.510   3.953  0.6237 -1.4475  2.1148
  133OSM   H12T14308   0.652   2.553   3.956  1.9626 -0.7955 -1.4484
  133OSM   C13S14309   0.587   2.396   4.079 -0.2554  0.3278  0.2049
  133OSM   H13S14310   0.605   2.461   4.168  1.5007 -1.2540  1.0533
  133OSM   H13T14311   0.681   2.338   4.067 -1.1924 -0.7665 -2.7213
  133OSM   C14S14312   0.478   2.296   4.104  0.4824  0.5692  0.6014
  133OSM   H14S14313   0.472   2.213   4.031 -1.4277 -0.4765  1.8822
  133OSM   H14T14314   0.381   2.349   4.111  0.2906  0.4912 -0.9504
  133OSM   C15S14315   0.490   2.230   4.247  0.2379  0.0207  0.0909
  133OSM   H15S14316   0.600   2.224   4.258  0.1249  0.8401  2.2267
  133OSM   H15T14317   0.447   2.128   4.257 -0.5724  0.2397 -1.0122
  133OSM   C16S14318   0.425   2.317   4.358  0.5433 -0.1979 -0.5959
  133OSM   H16S14319   0.327   2.357   4.321  0.3312  1.0142  1.1431
  133OSM   H16T14320   0.487   2.407   4.378  1.0059 -0.7467  0.4963
  133OSM   C17S14321   0.392   2.238   4.485 -0.3412  0.7273 -0.7071
  133OSM   H17S14322   0.380   2.130   4.465  3.2242 -0.0237  0.4207
  133OSM   H17T14323   0.301   2.274   4.539 -1.0354  1.2182 -2.1669
  133OSM   C18S14324   0.516   2.243   4.573  0.6977  0.0643 -0.4272
  133OSM   H18S14325   0.512   2.176   4.661  2.1378  1.7393  0.9839
  133OSM   H18T14326   0.524   2.341   4.624  1.0504 -0.5253  0.6830
  133OSM   H18U14327   0.612   2.231   4.518 -0.0875  0.0991 -1.8524
  133OSM    C1F14328   1.038   2.059   3.017  0.2653  0.1052 -0.7169
  133OSM     OF14329   1.110   2.117   2.934 -0.4700 -0.7762 -0.3406
  133OSM    C2F14330   1.098   1.970   3.123 -0.3991 -0.3434  0.0148
  133OSM    H2F14331   1.161   1.899   3.066 -0.1849  2.0878 -3.0631
  133OSM    H2G14332   1.019   1.919   3.182 -1.1758 -0.8179 -1.3949
  133OSM    C3F14333   1.192   2.053   3.218  0.1643 -0.3962  0.6463
  133OSM    H3F14334   1.276   2.101   3.164 -0.6412  0.1695 -0.1341
  133OSM    H3G14335   1.252   1.986   3.284  2.9632 -0.6676 -1.9693
  133OSM    C4F14336   1.115   2.162   3.300 -0.6112 -0.5875  0.3189
  133OSM    H4F14337   1.089   2.255   3.246 -0.0121  0.7593  2.2398
  133OSM    H4G14338   1.186   2.193   3.380 -1.5571 -2.5286  2.0221
  133OSM    C5F14339   0.993   2.115   3.371  0.3247  0.8481  0.3986
  133OSM    H5F14340   1.015   2.008   3.394  0.5474  1.1484  1.6617
  133OSM    H5G14341   0.897   2.118   3.316 -0.4908 -1.6130  1.5202
  133OSM    C6F14342   0.966   2.180   3.512  0.5980 -0.4077  0.5837
  133OSM    H6F14343   0.866   2.154   3.554  0.0296  0.8292  0.0196
  133OSM    H6G14344   0.959   2.289   3.493  0.7745 -0.8009 -2.1093
  133OSM    C7F14345   1.065   2.153   3.620 -0.2646 -0.0234  0.3969
  133OSM    H7F14346   1.169   2.189   3.600  0.2201  1.0606  4.0976
  133OSM    H7G14347   1.077   2.043   3.629 -0.3532 -0.1428 -0.8515
  133OSM    C8F14348   1.013   2.211   3.751 -0.2008  0.2280  0.0794
  133OSM    H8F14349   0.915   2.161   3.770 -1.4060  1.1492 -3.0688
  133OSM    H8G14350   1.002   2.321   3.740 -0.4001  0.1099 -1.1115
  133OSM    C9F14351   1.122   2.181   3.856  0.1840  0.5651 -0.0209
  133OSM    H9F14352   1.227   2.190   3.824 -0.1678  0.8457 -1.1659
  133OSM   C10F14353   1.094   2.140   3.979 -0.3107  0.4801 -0.1639
  133OSM   H10F14354   1.180   2.124   4.045 -0.0331  1.5784 -0.2477
  133OSM   C11F14355   0.955   2.118   4.044  0.0353 -0.0582 -0.3663
  133OSM   H11F14356   0.935   2.016   4.083 -0.4132  0.3311  0.4459
  133OSM   H11G14357   0.871   2.131   3.971 -0.1995  1.4777  0.1452
  133OSM   C12F14358   0.923   2.217   4.159  0.5251  0.0298 -0.2045
  133OSM   H12F14359   0.828   2.183   4.204  0.1025  0.2453 -0.9000
  133OSM   H12G14360   0.903   2.316   4.112 -2.4084 -0.2728  0.2654
  133OSM   C13F14361   1.034   2.231   4.258 -0.1803  0.3680  0.3098
  133OSM   H13F14362   1.129   2.275   4.220  1.5849 -2.0319  1.5939
  133OSM   H13G14363   1.053   2.130   4.300  1.5491  0.6696  0.3423
  133OSM   C14F14364   0.988   2.325   4.375 -0.4380  0.4674  0.2063
  133OSM   H14F14365   0.891   2.301   4.422  0.9907 -0.5217  2.8632
  133OSM   H14G14366   0.990   2.425   4.328  2.0247  0.7933  0.8654
  133OSM   C15F14367   1.086   2.329   4.495 -0.4021  0.5441 -1.3900
  133OSM   H15F14368   1.182   2.379   4.472  0.2823 -0.7877 -1.5178
  133OSM   H15G14369   1.123   2.226   4.512  0.4311  0.8776 -1.1634
  133OSM   C16F14370   1.022   2.379   4.628  0.2950 -0.5635  0.0777
  133OSM   H16F14371   0.973   2.290   4.673  1.9967 -0.9651  1.2223
  133OSM   H16G14372   0.934   2.442   4.604 -0.1929 -1.1267  0.3614
  133OSM   C17F14373   1.115   2.441   4.734 -0.1775  0.0058  0.5137
  133OSM   H17F14374   1.059   2.451   4.830 -0.1152 -0.5682  0.6141
  133OSM   H17G14375   1.143   2.543   4.702  3.1515 -1.6436 -2.4679
  133OSM   C18F14376   1.254   2.371   4.758  0.2089  0.2462  0.7539
  133OSM   H18F14377   1.253   2.262   4.778 -0.2487  0.0424 -0.3700
  133OSM   H18G14378   1.300   2.425   4.844  1.8148 -0.2217  0.2301
  133OSM   H18H14379   1.317   2.391   4.669  0.9052 -1.0113  0.9443
  134OSM      N14380   1.775   4.892   3.006 -0.3265  0.5965  0.0044
  134OSM    C1514381   1.861   4.909   3.124  0.5093  0.3436 -0.3975
  134OSM   H15A14382   1.912   4.819   3.155 -1.4475 -0.1633  1.5530
  134OSM   H15B14383   1.816   4.949   3.214 -0.1493 -1.2223 -0.0153
  134OSM   H15C14384   1.950   4.967   3.103  0.4702  0.7407  0.5114
  134OSM    C1414385   1.867   4.880   2.884  0.0572 -0.8011 -0.3027
  134OSM   H14A14386   1.918   4.975   2.873  0.6696 -0.6763  2.7182
  134OSM   H14B14387   1.816   4.849   2.794 -1.7084 -2.8499  1.2930
  134OSM   H14C14388   1.951   4.815   2.901  1.5471  0.7829 -1.2000
  134OSM    C1314389   1.699   4.761   3.023 -0.6171 -0.0412  0.1206
  134OSM   H13A14390   1.649   4.759   3.118 -0.1255 -1.0845  0.3733
  134OSM   H13B14391   1.751   4.668   3.007 -2.1240 -0.5469 -2.2200
  134OSM   H13C14392   1.617   4.748   2.955 -1.5406 -0.9904  1.3794
  134OSM    C1214393   1.675   5.003   2.999  0.5192  0.5707  0.4888
  134OSM   H12A14394   1.720   5.099   3.023  1.3931  0.2285  0.2758
  134OSM   H12B14395   1.595   4.976   3.066 -0.5201 -1.1606 -1.3553
  134OSM    C1114396   1.602   5.020   2.862 -0.1860 -0.1093  0.7880
  134OSM   H11A14397   1.683   5.036   2.787  0.5052  0.2484  1.6013
  134OSM   H11B14398   1.535   5.108   2.855  0.9887  0.7654  0.0789
  134OSM      P14399   1.374   4.898   2.828  0.0814  0.1408 -0.2060
  134OSM    O1314400   1.315   5.010   2.747  0.2326 -0.4447  0.1636
  134OSM    O1414401   1.343   4.760   2.799 -0.1528 -0.0691  0.7447
  134OSM    O1114402   1.351   4.929   2.982  0.0350 -0.2693  0.3583
  134OSM    O1214403   1.531   4.901   2.815 -0.5492 -0.1110 -0.9132
  134OSM    C1S14404   1.307   4.816   3.058  0.5505  0.3783  0.6537
  134OSM    H1S14405   1.376   4.729   3.052 -0.2116 -0.1288 -1.4503
  134OSM    H1T14406   1.208   4.780   3.023  2.0325 -2.1431 -1.3283
  134OSM     NF14407   1.274   4.749   3.295 -0.7264 -0.8545 -0.5719
  134OSM    HNF14408   1.178   4.733   3.318 -0.5300  0.0156  0.9922
  134OSM    C2S14409   1.288   4.861   3.209 -0.0680  0.4105  0.3989
  134OSM    H2S14410   1.384   4.904   3.245 -0.1498 -0.3442  1.5803
  134OSM    C3S14411   1.172   4.967   3.221 -0.1984  0.1294 -0.3181
  134OSM    H3S14412   1.069   4.931   3.200 -0.3765  0.7518 -0.5664
  134OSM     O314413   1.188   5.072   3.132  0.0299  0.3833  0.2070
  134OSM    HO314414   1.248   5.030   3.070  1.6743  0.4659  1.6325
  134OSM    C4S14415   1.169   5.011   3.370 -0.0155 -0.6130  0.5330
  134OSM    H4S14416   1.097   4.950   3.426  0.9405 -0.0609  2.4563
  134OSM    C5S14417   1.239   5.099   3.441  0.3828  0.6492  0.4623
  134OSM    H5S14418   1.310   5.168   3.393  0.7887  1.6713  2.4234
  134OSM    C6S14419   1.217   5.120   3.592  0.1128  0.2720  0.4119
  134OSM    H6S14420   1.145   5.203   3.609  0.2937  0.6199 -0.5043
  134OSM    H6T14421   1.311   5.159   3.636  1.2055 -0.3814 -1.2654
  134OSM    C7S14422   1.167   5.002   3.685  0.0183  1.2111 -0.2305
  134OSM    H7S14423   1.230   4.911   3.672  0.6668  1.7517 -1.0131
  134OSM    H7T14424   1.063   4.984   3.650  0.5490  0.3306 -1.4176
  134OSM    C8S14425   1.164   5.057   3.825 -0.3625  0.4752  0.1194
  134OSM    H8S14426   1.121   5.157   3.843  1.1539  1.1459  0.1605
  134OSM    H8T14427   1.272   5.064   3.852 -0.4292 -0.9571  0.8616
  134OSM    C9S14428   1.086   4.958   3.918 -0.0279  0.2988 -0.6334
  134OSM    H9S14429   1.118   4.857   3.884 -0.6490 -0.4652  0.9738
  134OSM    H9T14430   0.976   4.967   3.908 -0.0523 -1.0830 -2.0902
  134OSM   C10S14431   1.116   4.982   4.072  0.3064 -0.3032  0.3440
  134OSM   H10S14432   1.074   5.079   4.106  0.0111 -0.6897  1.0813
  134OSM   H10T14433   1.226   4.999   4.079  0.2225  0.7919 -0.6183
  134OSM   C11S14434   1.098   4.869   4.167  0.0728 -0.5434 -0.6469
  134OSM   H11S14435   1.166   4.789   4.131 -0.5601 -2.1282  1.4959
  134OSM   H11T14436   0.990   4.846   4.169 -0.0259 -0.0503  0.5448
  134OSM   C12S14437   1.149   4.897   4.311  0.3151 -0.8832 -0.1232
  134OSM   H12S14438   1.111   4.991   4.356 -1.9733 -2.1865  0.8454
  134OSM   H12T14439   1.260   4.893   4.314  0.3285 -1.5310 -0.9663
  134OSM   C13S14440   1.093   4.786   4.400 -0.1936  0.1407 -0.2935
  134OSM   H13S14441   1.103   4.684   4.355  1.9244  1.6441 -3.5975
  134OSM   H13T14442   0.987   4.809   4.424 -0.1312  0.1928 -0.0680
  134OSM   C14S14443   1.161   4.782   4.539 -0.1705 -0.3283  0.0426
  134OSM   H14S14444   1.168   4.889   4.567  0.6746 -0.1638 -0.7362
  134OSM   H14T14445   1.269   4.756   4.530  0.6916  2.9595 -0.3001
  134OSM   C15S14446   1.086   4.694   4.642 -0.9627 -0.3532 -0.2248
  134OSM   H15S14447   1.125   4.591   4.626  1.4708  0.6101 -0.9795
  134OSM   H15T14448   0.978   4.691   4.618 -1.2737 -0.9140  1.1118
  134OSM   C16S14449   1.100   4.733   4.794  0.0126 -0.0292 -0.3428
  134OSM   H16S14450   1.079   4.842   4.801  1.1099  0.1711  0.0174
  134OSM   H16T14451   1.210   4.724   4.809  0.3014  2.5977 -0.4642
  134OSM   C17S14452   1.021   4.642   4.885 -0.2502 -0.6452 -0.2852
  134OSM   H17S14453   1.043   4.534   4.868  0.9737 -0.2686 -1.2578
  134OSM   H17T14454   0.914   4.661   4.860  0.3907  0.9342 -2.0505
  134OSM   C18S14455   1.030   4.668   5.032  0.3954 -0.3543 -0.0553
  134OSM   H18S14456   0.961   4.607   5.094 -0.2771  1.6606  1.2938
  134OSM   H18T14457   1.018   4.775   5.061  1.2158  0.1756 -1.5488
  134OSM   H18U14458   1.123   4.623   5.074 -0.0284 -1.3700 -0.1819
  134OSM    C1F14459   1.366   4.654   3.326  0.7460 -0.0455  0.0589
  134OSM     OF14460   1.479   4.650   3.286 -0.7593 -0.0046  0.3953
  134OSM    C2F14461   1.308   4.554   3.418 -0.6424  0.7096 -0.5431
  134OSM    H2F14462   1.378   4.468   3.423 -2.2141 -0.8224 -2.7207
  134OSM    H2G14463   1.209   4.514   3.386  0.5784 -3.3305  0.1928
  134OSM    C3F14464   1.286   4.621   3.556 -0.0541 -0.2546 -0.0394
  134OSM    H3F14465   1.203   4.696   3.550 -1.2039 -1.4669  0.2011
  134OSM    H3G14466   1.382   4.666   3.586  0.0647 -0.9609  0.6562
  134OSM    C4F14467   1.242   4.517   3.661 -0.8013 -0.4706 -0.5237
  134OSM    H4F14468   1.301   4.425   3.641  1.6647  0.0285  3.4222
  134OSM    H4G14469   1.131   4.511   3.656 -1.0905  2.5827  0.3249
  134OSM    C5F14470   1.276   4.565   3.797  0.5187  0.0099  0.8366
  134OSM    H5F14471   1.226   4.662   3.820 -1.6373 -1.1962  1.5875
  134OSM    H5G14472   1.387   4.571   3.804  0.6026  0.7147 -0.6835
  134OSM    C6F14473   1.250   4.466   3.918  0.0123  0.5659 -0.0729
  134OSM    H6F14474   1.260   4.361   3.881 -1.5349  0.7704 -1.1639
  134OSM    H6G14475   1.149   4.485   3.959  0.8126  5.0006  0.3139
  134OSM    C7F14476   1.340   4.469   4.042 -0.8462  0.0448 -0.0932
  134OSM    H7F14477   1.301   4.545   4.112 -0.0991 -0.8989  1.4013
  134OSM    H7G14478   1.440   4.508   4.012 -0.9730  0.7052  0.3250
  134OSM    C8F14479   1.347   4.334   4.119  0.3039  0.0062 -0.7635
  134OSM    H8F14480   1.417   4.334   4.205 -1.0194 -0.2107  0.3423
  134OSM    H8G14481   1.395   4.258   4.055  0.4516 -1.3024  0.8454
  134OSM    C9F14482   1.218   4.283   4.173  0.1174  0.0877 -0.3084
  134OSM    H9F14483   1.158   4.224   4.102 -0.6042  0.4413 -0.0053
  134OSM   C10F14484   1.183   4.278   4.300  1.0144  0.1278 -0.2179
  134OSM   H10F14485   1.088   4.238   4.339  1.3483 -0.0937  0.3876
  134OSM   C11F14486   1.252   4.342   4.422  0.5613 -0.3079 -0.5692
  134OSM   H11F14487   1.185   4.397   4.491  2.4329  0.5461  0.6530
  134OSM   H11G14488   1.332   4.414   4.396  0.6608 -0.7093 -1.4113
  134OSM   C12F14489   1.332   4.240   4.511 -0.5192  0.1954 -0.3441
  134OSM   H12F14490   1.402   4.185   4.445  0.9697  0.6819  0.7482
  134OSM   H12G14491   1.254   4.172   4.551 -1.8779  1.0264 -1.4992
  134OSM   C13F14492   1.403   4.292   4.633 -0.7302 -0.9916  0.3742
  134OSM   H13F14493   1.450   4.391   4.612  0.2645 -2.0481 -3.1548
  134OSM   H13G14494   1.482   4.215   4.640 -2.0755 -2.6542 -1.6497
  134OSM   C14F14495   1.323   4.292   4.762 -0.2914 -0.2843 -0.0926
  134OSM   H14F14496   1.271   4.199   4.794  1.4096 -1.2089  0.0584
  134OSM   H14G14497   1.244   4.369   4.749  0.3905  0.5177  0.3924
  134OSM   C15F14498   1.412   4.334   4.883 -0.2963  0.5724  0.2319
  134OSM   H15F14499   1.440   4.441   4.874 -0.5499  0.7513  1.4556
  134OSM   H15G14500   1.504   4.271   4.889 -0.8222 -0.0602  2.3955
  134OSM   C16F14501   1.342   4.335   5.020  0.0298 -0.1291 -0.2980
  134OSM   H16F14502   1.351   4.233   5.064  2.9455  0.7224  1.3746
  134OSM   H16G14503   1.240   4.376   5.008  0.0435 -0.0212 -0.0522
  134OSM   C17F14504   1.417   4.417   5.134  0.3066 -0.0390  0.5019
  134OSM   H17F14505   1.371   4.398   5.233  1.0427  0.1766  0.8982
  134OSM   H17G14506   1.410   4.525   5.111  1.6327  0.0733  0.5390
  134OSM   C18F14507   1.565   4.380   5.138  1.1596 -0.5719  0.0657
  134OSM   H18F14508   1.627   4.411   5.051  0.7564  0.0241 -0.0104
  134OSM   H18G14509   1.566   4.269   5.137 -1.7289 -0.6934  1.8143
  134OSM   H18H14510   1.620   4.408   5.230  0.4548 -0.8427  0.5774
  135OSM      N14511   2.942   2.982   1.832 -0.1883  0.1357 -0.0341
  135OSM    C1514512   3.089   3.037   1.815  0.6585 -0.1799  0.3115
  135OSM   H15A14513   3.144   2.951   1.780 -0.3403 -1.5840  2.0468
  135OSM   H15B14514   3.137   3.083   1.900  3.0307  0.6717 -1.3770
  135OSM   H15C14515   3.095   3.099   1.727 -0.3982  0.6620  0.8005
  135OSM    C1414516   2.843   3.082   1.853  0.4302 -0.0886  0.0706
  135OSM   H14A14517   2.833   3.149   1.769  0.0916  1.4174  1.2596
  135OSM   H14B14518   2.871   3.136   1.942  2.0591  1.6242 -1.3895
  135OSM   H14C14519   2.747   3.033   1.864 -0.0336  0.3226 -1.7877
  135OSM    C1314520   2.904   2.902   1.704 -0.2056 -0.2547 -0.4884
  135OSM   H13A14521   2.805   2.861   1.722  0.2043 -1.7546 -1.4214
  135OSM   H13B14522   2.985   2.833   1.687  1.4242  1.3071  0.5662
  135OSM   H13C14523   2.888   2.967   1.619 -1.2560 -0.7183 -0.6678
  135OSM    C1214524   2.940   2.888   1.957  0.2697 -0.4687  0.3639
  135OSM   H12A14525   3.016   2.813   1.949 -0.0197 -0.6333 -1.0245
  135OSM   H12B14526   2.848   2.832   1.955 -0.9876  1.4897 -1.4007
  135OSM    C1114527   2.954   2.958   2.097 -0.0741  0.2405  0.6646
  135OSM   H11A14528   3.038   3.029   2.089  1.6500 -1.7191  0.5306
  135OSM   H11B14529   2.984   2.894   2.183 -0.6238 -1.3090 -0.2534
  135OSM      P14530   2.817   3.149   2.234  0.3770  0.3852 -0.1552
  135OSM    O1314531   2.870   3.266   2.167 -0.7795 -0.3653  0.3971
  135OSM    O1414532   2.679   3.152   2.286 -0.7453  0.1881  0.3335
  135OSM    O1114533   2.917   3.109   2.344 -0.5844 -0.3027 -0.5594
  135OSM    O1214534   2.829   3.029   2.128  0.0336 -0.1187 -0.8553
  135OSM    C1S14535   2.978   3.194   2.441 -0.2664  0.0574  0.4487
  135OSM    H1S14536   2.926   3.292   2.441  0.2275  0.3377 -1.0363
  135OSM    H1T14537   3.085   3.207   2.416  0.8216 -0.9766  4.0282
  135OSM     NF14538   3.030   3.235   2.674 -0.2296 -0.1218 -0.0043
  135OSM    HNF14539   3.120   3.222   2.715 -1.6114 -4.2469  2.3775
  135OSM    C2S14540   2.979   3.134   2.582 -0.8062 -0.0463  0.5120
  135OSM    H2S14541   2.875   3.110   2.611 -0.1736 -0.0754  2.9666
  135OSM    C3S14542   3.060   3.003   2.582  0.6839  0.6395  0.5555
  135OSM    H3S14543   3.159   3.040   2.548  0.0786  1.7679 -0.0282
  135OSM     O314544   3.015   2.906   2.484 -0.4559 -0.1531 -0.3361
  135OSM    HO314545   2.967   2.959   2.421 -1.6218 -0.6951  0.0597
  135OSM    C4S14546   3.074   2.943   2.719  0.0439  0.1781  0.3468
  135OSM    H4S14547   3.168   2.970   2.768 -0.7716 -1.6022  3.1267
  135OSM    C5S14548   2.998   2.852   2.784  0.0827  0.1054 -0.1105
  135OSM    H5S14549   2.902   2.820   2.741 -0.7198  2.9659 -0.6569
  135OSM    C6S14550   3.038   2.802   2.920 -0.1396  0.6799  0.2725
  135OSM    H6S14551   3.139   2.838   2.949  0.2537 -1.9450  2.5609
  135OSM    H6T14552   3.036   2.691   2.910  0.3258  0.7397 -0.6440
  135OSM    C7S14553   2.928   2.844   3.022 -0.8088  0.5231 -0.0543
  135OSM    H7S14554   2.825   2.817   2.988 -0.8790  2.1199 -1.2085
  135OSM    H7T14555   2.929   2.952   3.045 -3.0617  0.9839 -1.8277
  135OSM    C8S14556   2.958   2.769   3.151 -0.2494  0.3276  0.7336
  135OSM    H8S14557   3.067   2.771   3.171 -0.0312 -0.8691 -0.2123
  135OSM    H8T14558   2.930   2.663   3.134 -0.8096  0.8219 -1.7693
  135OSM    C9S14559   2.889   2.833   3.269  0.7799  0.4505 -0.3031
  135OSM    H9S14560   2.782   2.850   3.247  0.4739  1.3651  1.6833
  135OSM    H9T14561   2.922   2.939   3.274  0.1343  0.6319  0.2089
  135OSM   C10S14562   2.916   2.753   3.393  0.2218  0.3419  0.3486
  135OSM   H10S14563   3.027   2.750   3.402  0.2747 -2.3070 -0.3410
  135OSM   H10T14564   2.886   2.649   3.369  0.8326 -0.1357  1.5629
  135OSM   C11S14565   2.853   2.811   3.522  0.1227 -0.9177 -0.4476
  135OSM   H11S14566   2.749   2.772   3.522 -0.0361 -0.6572 -2.7054
  135OSM   H11T14567   2.859   2.920   3.503  0.4869 -1.0769 -1.3231
  135OSM   C12S14568   2.917   2.783   3.666  0.0208  0.6803  0.3097
  135OSM   H12S14569   2.942   2.675   3.672  3.3873  1.3992  2.2011
  135OSM   H12T14570   2.845   2.814   3.745 -1.5799  0.2762 -0.9358
  135OSM   C13S14571   3.041   2.864   3.692 -0.0239  0.3195 -0.4072
  135OSM   H13S14572   3.015   2.972   3.688  2.1268  0.8751 -4.1910
  135OSM   H13T14573   3.111   2.847   3.608 -0.3417  1.6339 -0.9589
  135OSM   C14S14574   3.120   2.804   3.814 -0.4885 -0.0447 -0.3837
  135OSM   H14S14575   3.220   2.853   3.810 -1.5356  2.2384  0.0644
  135OSM   H14T14576   3.129   2.693   3.806 -2.4471 -0.2240 -0.5707
  135OSM   C15S14577   3.048   2.832   3.939 -0.1513 -0.3056  0.8752
  135OSM   H15S14578   2.948   2.785   3.941  0.4721 -1.7493 -0.2570
  135OSM   H15T14579   3.046   2.941   3.960 -1.8859 -0.2862  0.7223
  135OSM   C16S14580   3.114   2.775   4.064  0.0511  0.3279  0.2802
  135OSM   H16S14581   3.225   2.772   4.065  0.0903  0.0900 -1.4693
  135OSM   H16T14582   3.087   2.667   4.067  2.6119 -0.4022 -0.2081
  135OSM   C17S14583   3.052   2.827   4.195 -0.5309  0.9528  0.1060
  135OSM   H17S14584   2.942   2.830   4.180 -0.5726  1.1278  0.4522
  135OSM   H17T14585   3.079   2.933   4.214 -1.1560  1.1132  0.1366
  135OSM   C18S14586   3.064   2.743   4.324  0.6362  0.2744  0.5655
  135OSM   H18S14587   3.169   2.707   4.331  0.7475  0.1268 -1.3219
  135OSM   H18T14588   2.996   2.656   4.315  0.9791  0.0184  0.4235
  135OSM   H18U14589   3.039   2.804   4.413  0.6433 -0.2095  0.9026
  135OSM    C1F14590   2.969   3.354   2.688 -0.0646 -0.6276  0.1973
  135OSM     OF14591   2.843   3.365   2.670 -0.0693  0.6135  0.1147
  135OSM    C2F14592   3.045   3.471   2.744 -0.0273  0.2296  0.2769
  135OSM    H2F14593   3.057   3.557   2.674  1.6344  0.4142  0.7476
  135OSM    H2G14594   3.150   3.449   2.771 -0.3974 -0.5607  1.1248
  135OSM    C3F14595   2.988   3.531   2.881 -0.5318 -0.1991  0.1100
  135OSM    H3F14596   2.878   3.541   2.869 -0.4363  0.4182 -0.2916
  135OSM    H3G14597   3.042   3.627   2.898  0.2028 -0.8268  1.5897
  135OSM    C4F14598   3.019   3.444   3.005 -0.3182  0.9273  0.1450
  135OSM    H4F14599   2.975   3.501   3.089 -1.2041  0.5004 -0.0255
  135OSM    H4G14600   3.127   3.431   3.027 -0.4164 -0.6445 -0.1697
  135OSM    C5F14601   2.955   3.300   3.010  0.7041 -0.1842 -0.0343
  135OSM    H5F14602   3.014   3.235   2.942 -0.4177  0.6845 -1.9355
  135OSM    H5G14603   2.859   3.310   2.955  1.5155 -1.2007 -1.7057
  135OSM    C6F14604   2.944   3.237   3.148  0.2039  0.2798 -0.2515
  135OSM    H6F14605   3.048   3.230   3.185  0.2374  0.9524 -0.2052
  135OSM    H6G14606   2.908   3.132   3.144 -1.0667  0.6205  1.1339
  135OSM    C7F14607   2.867   3.321   3.249 -0.2022 -0.3438 -1.0292
  135OSM    H7F14608   2.773   3.342   3.195 -0.5574 -1.2588 -0.7844
  135OSM    H7G14609   2.915   3.418   3.273  1.9470 -1.2091 -1.6037
  135OSM    C8F14610   2.833   3.250   3.378 -0.3436  0.2407 -0.2008
  135OSM    H8F14611   2.783   3.151   3.370  0.3301 -0.0844 -0.4354
  135OSM    H8G14612   2.755   3.312   3.427  0.2366  1.7306 -1.1001
  135OSM    C9F14613   2.959   3.231   3.461  0.4223 -0.1280 -0.4608
  135OSM    H9F14614   3.054   3.209   3.410  0.8965  0.5956  0.0888
  135OSM   C10F14615   2.974   3.241   3.597 -0.9642  0.0482  0.1008
  135OSM   H10F14616   3.075   3.225   3.637 -1.2637 -1.6016  0.2521
  135OSM   C11F14617   2.872   3.275   3.705  0.6794 -0.5627 -0.0753
  135OSM   H11F14618   2.772   3.279   3.656 -0.1710 -0.0100  1.6305
  135OSM   H11G14619   2.884   3.379   3.743 -1.8910 -0.2545  0.0624
  135OSM   C12F14620   2.876   3.179   3.814 -0.9967 -0.9800 -0.0617
  135OSM   H12F14621   2.978   3.137   3.826 -0.7075 -0.7200 -1.3664
  135OSM   H12G14622   2.813   3.091   3.786 -0.7966 -1.6970  1.6650
  135OSM   C13F14623   2.834   3.237   3.953  0.2456 -0.0990  0.0065
  135OSM   H13F14624   2.724   3.249   3.959  0.0343 -2.0674  0.9393
  135OSM   H13G14625   2.885   3.333   3.971  0.9502 -0.3213 -0.7501
  135OSM   C14F14626   2.870   3.140   4.073  0.6979 -0.0993  0.5315
  135OSM   H14F14627   2.980   3.125   4.069  0.5642 -0.8879 -0.9003
  135OSM   H14G14628   2.820   3.046   4.043 -0.1972  0.5885 -0.1924
  135OSM   C15F14629   2.817   3.198   4.212  0.4181  0.2935 -0.0144
  135OSM   H15F14630   2.706   3.190   4.211  0.4755 -0.6419 -0.8696
  135OSM   H15G14631   2.849   3.304   4.217  0.4093  0.3245 -0.5491
  135OSM   C16F14632   2.875   3.126   4.340 -0.0005 -0.0144 -0.3169
  135OSM   H16F14633   2.978   3.156   4.366  0.2352 -1.4774  0.5386
  135OSM   H16G14634   2.875   3.016   4.325  0.7871  0.0985 -1.2386
  135OSM   C17F14635   2.802   3.157   4.467 -0.7052 -1.0030  0.1822
  135OSM   H17F14636   2.694   3.138   4.451 -1.6583  2.7451  1.0986
  135OSM   H17G14637   2.798   3.267   4.483 -0.6591 -1.1350  1.1450
  135OSM   C18F14638   2.871   3.090   4.592 -0.0294 -0.0991 -0.0163
  135OSM   H18F14639   2.972   3.133   4.608 -1.2464  3.0979 -0.1346
  135OSM   H18G14640   2.883   2.981   4.580 -1.2914 -0.0724 -2.1065
  135OSM   H18H14641   2.804   3.111   4.678 -0.3337  0.8692 -0.4736
  136OSM      N14642   0.933   4.966   2.701  0.3259  0.5015 -0.1264
  136OSM    C1514643   1.039   4.982   2.595  0.7102  0.6010 -0.7092
  136OSM   H15A14644   1.134   5.007   2.640  0.6694 -1.2463  0.5513
  136OSM   H15B14645   1.017   5.054   2.519 -1.1859  0.6102 -0.2006
  136OSM   H15C14646   1.064   4.884   2.557  0.8943  0.0303  0.7934
  136OSM    C1414647   0.883   5.099   2.729  0.3402 -0.0222  0.1255
  136OSM   H14A14648   0.789   5.089   2.780 -0.2804 -0.3662 -1.0422
  136OSM   H14B14649   0.867   5.156   2.639  1.7319  0.6086  0.2403
  136OSM   H14C14650   0.965   5.151   2.778  0.0409  0.4080  0.1760
  136OSM    C1314651   0.828   4.879   2.642  0.3429  0.3922  0.4893
  136OSM   H13A14652   0.746   4.878   2.712 -0.0483  1.1443  0.0556
  136OSM   H13B14653   0.856   4.776   2.625  1.0405  0.7049 -0.3384
  136OSM   H13C14654   0.801   4.921   2.546  0.3844  1.6297  0.9974
  136OSM    C1214655   0.998   4.909   2.826  0.0707 -0.3417  0.3495
  136OSM   H12A14656   1.086   4.969   2.847  1.3644 -2.2443  0.6024
  136OSM   H12B14657   1.038   4.812   2.802  0.5605 -0.6641  2.2836
  136OSM    C1114658   0.904   4.905   2.950 -0.5478 -0.1336 -0.0626
  136OSM   H11A14659   0.866   5.009   2.955 -0.0946 -0.0159  1.4259
  136OSM   H11B14660   0.955   4.887   3.048  0.1252  0.9060 -0.2063
  136OSM      P14661   0.835   4.653   2.968 -0.3307 -0.2374 -0.4224
  136OSM    O1314662   0.721   4.565   2.928 -0.4767 -0.2587 -0.3585
  136OSM    O1414663   0.963   4.618   2.908 -0.3638 -0.2402  0.0145
  136OSM    O1114664   0.851   4.658   3.128 -0.4023  0.5987 -0.4615
  136OSM    O1214665   0.801   4.807   2.934  0.0644  0.0600 -0.1336
  136OSM    C1S14666   0.754   4.721   3.210  0.0028  0.6765  0.0764
  136OSM    H1S14667   0.651   4.706   3.172 -0.4155  0.7514  1.1253
  136OSM    H1T14668   0.773   4.831   3.209 -0.1099  0.7228  1.2623
  136OSM     NF14669   0.641   4.694   3.430 -1.0809 -0.0481 -1.1916
  136OSM    HNF14670   0.659   4.766   3.497 -2.9518  0.0005 -0.6799
  136OSM    C2S14671   0.763   4.660   3.355 -0.2986 -0.5497 -0.0017
  136OSM    H2S14672   0.768   4.550   3.341  1.7773 -0.4742 -0.1587
  136OSM    C3S14673   0.889   4.712   3.418  0.0396 -0.5663 -0.2557
  136OSM    H3S14674   0.877   4.822   3.433 -3.0729 -0.8782  0.3689
  136OSM     O314675   1.009   4.688   3.345  0.1859 -0.0276 -0.3717
  136OSM    HO314676   0.981   4.653   3.260 -1.0490  0.9065 -0.3847
  136OSM    C4S14677   0.901   4.641   3.549 -0.1763 -0.1085 -0.3869
  136OSM    H4S14678   0.932   4.536   3.537 -1.0764 -0.2214 -2.1017
  136OSM    C5S14679   0.899   4.700   3.667  0.4337  0.1405  0.2959
  136OSM    H5S14680   0.887   4.809   3.677  2.8501  0.7753 -2.5268
  136OSM    C6S14681   0.926   4.629   3.796  0.4736  0.2642 -0.0628
  136OSM    H6S14682   1.006   4.674   3.858 -0.6128 -0.2711  1.8225
  136OSM    H6T14683   0.957   4.524   3.783 -0.1034  0.0936 -0.0988
  136OSM    C7S14684   0.800   4.623   3.892  0.3373 -0.0565 -0.7744
  136OSM    H7S14685   0.732   4.543   3.856  0.6543  0.2928 -2.2157
  136OSM    H7T14686   0.735   4.712   3.891 -0.9960 -0.8970  1.5772
  136OSM    C8S14687   0.845   4.584   4.039 -0.1453 -0.0262  1.0257
  136OSM    H8S14688   0.906   4.654   4.099  0.3016  0.0800  0.4614
  136OSM    H8T14689   0.920   4.503   4.032 -2.7623 -2.4714 -0.7503
  136OSM    C9S14690   0.733   4.536   4.121 -0.5690  0.0825 -0.0747
  136OSM    H9S14691   0.680   4.449   4.079 -1.3318 -0.6716  2.3376
  136OSM    H9T14692   0.663   4.622   4.128  0.8316  1.3392 -0.8396
  136OSM   C10S14693   0.772   4.505   4.269 -0.0133 -0.4353  0.2101
  136OSM   H10S14694   0.816   4.598   4.309  0.5058 -0.8113  0.5256
  136OSM   H10T14695   0.852   4.429   4.273  3.2383  2.7925  2.4779
  136OSM   C11S14696   0.653   4.462   4.356 -0.1901  0.6264 -0.5381
  136OSM   H11S14697   0.620   4.362   4.322  0.6565 -0.8154  2.5434
  136OSM   H11T14698   0.567   4.529   4.334 -1.2730 -0.1817  1.0230
  136OSM   C12S14699   0.693   4.468   4.501 -0.5101 -0.6139 -0.8602
  136OSM   H12S14700   0.737   4.559   4.548 -0.8220 -2.0356  2.3763
  136OSM   H12T14701   0.775   4.395   4.516 -1.3649 -0.9340  3.3470
  136OSM   C13S14702   0.572   4.435   4.595 -0.1893 -0.0982 -0.1840
  136OSM   H13S14703   0.519   4.349   4.550 -1.6364  0.1941  0.8745
  136OSM   H13T14704   0.510   4.527   4.586 -0.3782 -0.1788  0.2594
  136OSM   C14S14705   0.606   4.415   4.744 -0.0518  0.0108  0.1914
  136OSM   H14S14706   0.517   4.399   4.809 -0.1528 -1.6482 -0.3301
  136OSM   H14T14707   0.654   4.507   4.786  1.9615 -1.3905  1.1246
  136OSM   C15S14708   0.698   4.290   4.775  0.1357  0.1385 -0.5976
  136OSM   H15S14709   0.792   4.308   4.718 -0.7042  0.2556 -2.0020
  136OSM   H15T14710   0.648   4.211   4.716  0.3321  0.2833 -0.9596
  136OSM   C16S14711   0.722   4.267   4.929  0.0804 -0.1082  0.3865
  136OSM   H16S14712   0.628   4.227   4.972 -0.0872  1.9679  2.1492
  136OSM   H16T14713   0.739   4.366   4.976 -1.5860 -1.0039  3.0979
  136OSM   C17S14714   0.838   4.168   4.961 -0.6357  0.0685 -0.0139
  136OSM   H17S14715   0.929   4.197   4.906 -2.1686 -0.6914 -3.1543
  136OSM   H17T14716   0.807   4.076   4.907 -1.6773  1.0090 -1.0691
  136OSM   C18S14717   0.854   4.131   5.109 -0.4056  0.1219 -0.3609
  136OSM   H18S14718   0.768   4.078   5.155  1.4621 -0.2942  2.9646
  136OSM   H18T14719   0.858   4.225   5.169  2.2629 -0.3947  0.3559
  136OSM   H18U14720   0.941   4.064   5.124 -0.9450 -1.2976 -2.8931
  136OSM    C1F14721   0.517   4.644   3.397 -0.7327 -0.0916 -0.1477
  136OSM     OF14722   0.504   4.575   3.299  0.3526 -0.6108 -0.0241
  136OSM    C2F14723   0.398   4.702   3.482 -0.8626 -0.6850 -0.1663
  136OSM    H2F14724   0.316   4.735   3.416 -1.6203 -1.2272  0.4795
  136OSM    H2G14725   0.436   4.787   3.542  0.7657 -0.5872 -1.2650
  136OSM    C3F14726   0.351   4.592   3.586  0.1794 -0.3932 -0.7024
  136OSM    H3F14727   0.278   4.517   3.548 -2.0985  0.4119  1.7400
  136OSM    H3G14728   0.280   4.650   3.650  1.1810 -1.4494  1.4741
  136OSM    C4F14729   0.452   4.523   3.675 -0.4811  0.0614 -0.3203
  136OSM    H4F14730   0.533   4.599   3.686 -1.7863  1.3469  0.8439
  136OSM    H4G14731   0.491   4.435   3.619 -1.0303 -0.2078 -0.2811
  136OSM    C5F14732   0.412   4.477   3.819 -0.5541 -0.3850  0.0519
  136OSM    H5F14733   0.504   4.426   3.855 -1.0115 -1.2425  0.0183
  136OSM    H5G14734   0.332   4.400   3.822 -0.5300 -0.4631 -0.9939
  136OSM    C6F14735   0.379   4.594   3.909  0.1392  0.9459 -0.5759
  136OSM    H6F14736   0.297   4.657   3.868 -1.5391 -0.4316  0.5110
  136OSM    H6G14737   0.464   4.665   3.920  1.4491 -0.8061  1.4129
  136OSM    C7F14738   0.341   4.562   4.046 -0.1210 -0.1276 -0.8055
  136OSM    H7F14739   0.422   4.499   4.088 -0.1001 -1.2897 -2.4568
  136OSM    H7G14740   0.246   4.505   4.043 -0.7372  0.4841  2.9917
  136OSM    C8F14741   0.324   4.685   4.143 -0.2300 -0.3322  0.6192
  136OSM    H8F14742   0.422   4.737   4.147  0.8209 -2.2071  0.2399
  136OSM    H8G14743   0.300   4.638   4.241 -1.1670 -3.3991 -0.9382
  136OSM    C9F14744   0.235   4.801   4.102 -0.4044  0.4297 -0.1696
  136OSM    H9F14745   0.255   4.850   4.006 -2.5143  0.1674 -0.8011
  136OSM   C10F14746   0.133   4.849   4.177  0.5142  0.4633  0.2350
  136OSM   H10F14747   0.070   4.930   4.137 -0.5348  0.3797  1.6646
  136OSM   C11F14748   0.083   4.789   4.311 -0.3954 -0.9325 -0.5449
  136OSM   H11F14749   0.101   4.679   4.309  1.4287 -0.6965  0.5654
  136OSM   H11G14750  -0.025   4.808   4.327 -0.3940 -0.6504 -0.8722
  136OSM   C12F14751   0.153   4.854   4.433  0.2642  0.1724 -0.3115
  136OSM   H12F14752   0.133   4.961   4.452  0.0887  0.4864 -2.1196
  136OSM   H12G14753   0.261   4.840   4.411 -0.2878  0.1280 -3.3418
  136OSM   C13F14754   0.138   4.781   4.567 -0.5590  0.1684  0.5518
  136OSM   H13F14755   0.032   4.794   4.597 -1.1022  1.0889 -1.6064
  136OSM   H13G14756   0.214   4.835   4.627 -0.3467 -0.4539  0.8527
  136OSM   C14F14757   0.185   4.639   4.571  0.1594  0.0669  0.5255
  136OSM   H14F14758   0.288   4.633   4.529 -0.0882  0.6524 -0.1699
  136OSM   H14G14759   0.124   4.575   4.504  1.6214  0.1596 -0.9388
  136OSM   C15F14760   0.193   4.575   4.712 -0.7886  0.4483 -0.9733
  136OSM   H15F14761   0.217   4.467   4.696  0.5053  0.7870 -1.4626
  136OSM   H15G14762   0.097   4.581   4.766  0.7302  4.5494  1.7406
  136OSM   C16F14763   0.299   4.630   4.808 -0.3503  0.0099  0.7007
  136OSM   H16F14764   0.277   4.737   4.828 -0.4716  0.3614 -1.1433
  136OSM   H16G14765   0.397   4.615   4.758 -0.5809  0.2050  0.1847
  136OSM   C17F14766   0.309   4.566   4.948 -0.0087  0.0058  0.0872
  136OSM   H17F14767   0.327   4.457   4.939 -2.2355 -0.3663 -0.5310
  136OSM   H17G14768   0.211   4.579   4.999 -0.5955  1.6368 -1.3376
  136OSM   C18F14769   0.407   4.641   5.038  0.2329 -0.3402  0.9310
  136OSM   H18F14770   0.509   4.634   4.995  1.1125  1.1484  2.6714
  136OSM   H18G14771   0.408   4.587   5.135  0.0174 -3.0415 -0.4788
  136OSM   H18H14772   0.375   4.747   5.048 -2.4792 -1.1681  2.0160
  137OSM      N14773   2.665   3.566   2.363 -0.3740  0.2247 -0.8620
  137OSM    C1514774   2.688   3.526   2.217 -0.2837  0.0285 -0.6671
  137OSM   H15A14775   2.755   3.602   2.179  1.1880 -1.1192 -0.4734
  137OSM   H15B14776   2.596   3.517   2.162  0.0451  0.3009 -1.2788
  137OSM   H15C14777   2.734   3.429   2.212 -0.2864 -0.1405  1.5637
  137OSM    C1414778   2.594   3.700   2.366 -0.1743 -0.0045 -0.1925
  137OSM   H14A14779   2.672   3.771   2.346 -0.9439  0.9595  0.1865
  137OSM   H14B14780   2.559   3.713   2.468  1.6030  1.6710  0.2708
  137OSM   H14C14781   2.508   3.705   2.302 -0.4386  0.1094  0.1707
  137OSM    C1314782   2.571   3.458   2.421  0.0267 -0.7407  0.0706
  137OSM   H13A14783   2.543   3.478   2.523  0.4502  2.3226 -0.3036
  137OSM   H13B14784   2.622   3.363   2.425  0.9830 -0.2712 -0.4349
  137OSM   H13C14785   2.481   3.450   2.362 -0.2123  0.3434  0.2603
  137OSM    C1214786   2.795   3.571   2.435 -0.6404  0.0833 -0.1690
  137OSM   H12A14787   2.837   3.472   2.443  0.8537  0.7535  0.7015
  137OSM   H12B14788   2.775   3.599   2.538  2.1381  1.5435  0.0824
  137OSM    C1114789   2.903   3.673   2.402  0.0141  0.3175 -0.0979
  137OSM   H11A14790   2.922   3.667   2.292 -0.1775  0.5604 -0.1450
  137OSM   H11B14791   3.001   3.649   2.447  0.0756  1.8606  0.6439
  137OSM      P14792   2.891   3.851   2.581  0.0792 -0.3113 -0.1987
  137OSM    O1314793   3.027   3.833   2.623 -0.3022  0.3021  0.4136
  137OSM    O1414794   2.835   3.988   2.594 -0.1405  0.0689 -0.6886
  137OSM    O1114795   2.809   3.749   2.663  0.1119  0.2336 -0.6602
  137OSM    O1214796   2.872   3.811   2.429 -0.4463  0.0907 -0.9036
  137OSM    C1S14797   2.673   3.775   2.712 -0.5938 -0.0139  0.7999
  137OSM    H1S14798   2.603   3.728   2.640 -0.1528 -2.1129  1.6816
  137OSM    H1T14799   2.644   3.882   2.726 -1.8219 -0.2774  0.4290
  137OSM     NF14800   2.496   3.689   2.863 -0.4409  0.0844 -0.4672
  137OSM    HNF14801   2.452   3.772   2.895  1.3757  0.6133  0.8115
  137OSM    C2S14802   2.640   3.707   2.843  0.0268  0.3772 -0.1659
  137OSM    H2S14803   2.685   3.606   2.838  1.0702  0.8911 -1.5954
  137OSM    C3S14804   2.708   3.788   2.955 -0.1559  0.0292 -0.3868
  137OSM    H3S14805   2.661   3.886   2.977 -0.5616  0.7410 -3.7895
  137OSM     O314806   2.846   3.818   2.933  0.1234  0.2534  0.3625
  137OSM    HO314807   2.861   3.779   2.847 -0.2091 -0.6996  0.7289
  137OSM    C4S14808   2.709   3.709   3.082 -0.2490  0.3588  0.2625
  137OSM    H4S14809   2.771   3.619   3.071 -1.6801 -0.6059 -0.1968
  137OSM    C5S14810   2.626   3.727   3.190  0.2000 -0.1258  0.0418
  137OSM    H5S14811   2.561   3.815   3.189  1.4825  0.8479 -0.0549
  137OSM    C6S14812   2.618   3.634   3.311 -0.0500 -0.3691  0.1533
  137OSM    H6S14813   2.694   3.553   3.303 -0.0241 -0.3296 -0.0145
  137OSM    H6T14814   2.517   3.588   3.312  1.2917 -3.5391  0.0023
  137OSM    C7S14815   2.632   3.721   3.430  0.2989  0.5242  0.4370
  137OSM    H7S14816   2.542   3.787   3.432  0.0450  0.1618  1.3817
  137OSM    H7T14817   2.722   3.787   3.422  1.2326 -0.9433 -4.7866
  137OSM    C8S14818   2.638   3.632   3.550 -0.5682 -0.0239 -0.0231
  137OSM    H8S14819   2.732   3.573   3.546  0.3832  1.1766  2.4034
  137OSM    H8T14820   2.545   3.573   3.556 -0.2832 -0.2966  2.5784
  137OSM    C9S14821   2.646   3.708   3.684  0.0672  0.3253 -0.1294
  137OSM    H9S14822   2.571   3.790   3.675 -1.6058 -1.1216  0.2380
  137OSM    H9T14823   2.737   3.768   3.702  0.0348 -0.0445  1.3320
  137OSM   C10S14824   2.619   3.622   3.804 -0.4487  0.1726  0.1709
  137OSM   H10S14825   2.701   3.548   3.815 -1.2777 -0.5314  1.9945
  137OSM   H10T14826   2.518   3.577   3.790 -0.4961  0.4459 -0.4265
  137OSM   C11S14827   2.625   3.697   3.936  0.7492 -0.0193 -0.3376
  137OSM   H11S14828   2.557   3.785   3.939  1.5433  0.5690  0.9394
  137OSM   H11T14829   2.727   3.733   3.960 -0.5227  3.9114 -0.1375
  137OSM   C12S14830   2.586   3.601   4.048  0.0756  0.1938  0.3755
  137OSM   H12S14831   2.662   3.521   4.035 -1.4533 -1.2740  0.1349
  137OSM   H12T14832   2.495   3.545   4.019  1.2627 -1.4345 -0.4412
  137OSM   C13S14833   2.581   3.655   4.194  0.9268 -0.4360  0.4695
  137OSM   H13S14834   2.672   3.719   4.200  0.5870  0.4004 -1.9513
  137OSM   H13T14835   2.590   3.569   4.264  1.2986 -0.8405 -0.0616
  137OSM   C14S14836   2.441   3.724   4.215  0.3627  0.5773 -0.1357
  137OSM   H14S14837   2.362   3.646   4.213 -0.2753  1.1497  1.4175
  137OSM   H14T14838   2.413   3.792   4.133 -0.6627 -0.0477 -0.3191
  137OSM   C15S14839   2.439   3.784   4.351  0.5171 -0.2219  0.2587
  137OSM   H15S14840   2.518   3.862   4.356 -0.3640  0.7703 -0.6836
  137OSM   H15T14841   2.482   3.710   4.421  0.4518  0.0886  0.6264
  137OSM   C16S14842   2.304   3.833   4.402 -0.6016  1.0553 -0.3211
  137OSM   H16S14843   2.241   3.742   4.388  0.1642  0.2806  1.0082
  137OSM   H16T14844   2.267   3.921   4.345  2.6362  1.7297 -1.5956
  137OSM   C17S14845   2.301   3.861   4.557  0.7863  0.3097  0.4368
  137OSM   H17S14846   2.357   3.957   4.562  1.1217  0.2506 -1.4100
  137OSM   H17T14847   2.343   3.769   4.604 -0.0082 -0.7974 -0.9600
  137OSM   C18S14848   2.162   3.905   4.607  0.8709 -0.6607 -0.0205
  137OSM   H18S14849   2.158   3.920   4.716 -0.0587  0.6681 -0.2256
  137OSM   H18T14850   2.078   3.843   4.569 -0.9406  0.6387  1.7054
  137OSM   H18U14851   2.136   4.008   4.577 -0.3948 -0.1141  2.6965
  137OSM    C1F14852   2.431   3.591   2.801  0.1598 -1.2574  0.6499
  137OSM     OF14853   2.487   3.496   2.740  0.0804 -0.9221  0.4049
  137OSM    C2F14854   2.289   3.612   2.790  0.1358 -0.2043 -0.1159
  137OSM    H2F14855   2.264   3.561   2.695 -0.4777 -2.3253  1.1164
  137OSM    H2G14856   2.271   3.722   2.783  0.1904 -0.1626  0.3488
  137OSM    C3F14857   2.218   3.555   2.917 -0.1987 -0.2598 -0.1763
  137OSM    H3F14858   2.109   3.572   2.912 -0.1997 -0.6084 -1.9870
  137OSM    H3G14859   2.257   3.614   3.003 -1.7957  2.7097 -1.3237
  137OSM    C4F14860   2.237   3.405   2.927  0.1012 -0.1445  0.2998
  137OSM    H4F14861   2.344   3.379   2.945 -0.0026 -0.3368  0.6292
  137OSM    H4G14862   2.215   3.364   2.826  1.3141 -1.5166  0.5563
  137OSM    C5F14863   2.151   3.336   3.024 -0.2408  0.2148 -0.0088
  137OSM    H5F14864   2.149   3.225   3.032 -3.2323  0.3275  3.4605
  137OSM    H5G14865   2.050   3.352   2.981  0.8288  1.9549 -2.0986
  137OSM    C6F14866   2.168   3.381   3.167  0.2389  0.3072 -0.2301
  137OSM    H6F14867   2.169   3.491   3.184 -1.1722  0.0261  2.0998
  137OSM    H6G14868   2.259   3.331   3.206  1.0359  2.0267  0.1868
  137OSM    C7F14869   2.056   3.317   3.256 -0.1668  0.0013 -0.7758
  137OSM    H7F14870   2.069   3.207   3.257 -0.8666 -0.0915  0.3660
  137OSM    H7G14871   1.954   3.322   3.212 -0.1752 -2.3778 -1.1581
  137OSM    C8F14872   2.058   3.378   3.407 -0.0300  0.2912  0.6750
  137OSM    H8F14873   2.163   3.384   3.440  0.4016 -2.9598  0.2143
  137OSM    H8G14874   2.002   3.301   3.464  1.0542 -0.2696  1.0006
  137OSM    C9F14875   1.994   3.510   3.414 -0.1411 -0.5067  0.7090
  137OSM    H9F14876   1.895   3.513   3.365  0.2969  2.6089 -0.1943
  137OSM   C10F14877   2.020   3.622   3.479 -0.1219 -0.4920  0.2009
  137OSM   H10F14878   1.962   3.710   3.448 -1.3906 -0.8563  1.4350
  137OSM   C11F14879   2.146   3.649   3.550 -0.0286 -0.1241 -0.0475
  137OSM   H11F14880   2.174   3.751   3.515  1.2018  0.5456  2.6134
  137OSM   H11G14881   2.232   3.586   3.516 -0.4103  0.3010 -1.9554
  137OSM   C12F14882   2.146   3.636   3.708 -0.1543  0.3422  0.5628
  137OSM   H12F14883   2.252   3.656   3.734  0.2764 -0.0957 -0.7569
  137OSM   H12G14884   2.120   3.528   3.717 -2.1876  0.8119  0.8960
  137OSM   C13F14885   2.034   3.718   3.775  0.5077 -0.0805 -0.2774
  137OSM   H13F14886   1.938   3.666   3.754  0.0155  0.3631  0.8115
  137OSM   H13G14887   2.022   3.811   3.716 -0.8600 -0.8525 -1.2862
  137OSM   C14F14888   2.061   3.766   3.922 -0.2180 -0.3395 -0.3911
  137OSM   H14F14889   1.977   3.825   3.965 -0.1862 -0.8036  0.3238
  137OSM   H14G14890   2.137   3.846   3.932  1.3794 -1.9728  1.3952
  137OSM   C15F14891   2.095   3.649   4.016 -0.4352 -0.4329 -0.5120
  137OSM   H15F14892   2.202   3.617   4.014 -0.0281  0.7367  1.2259
  137OSM   H15G14893   2.036   3.566   3.971 -0.0368 -1.1587  0.2646
  137OSM   C16F14894   2.057   3.665   4.155 -0.2782  0.8483 -0.3173
  137OSM   H16F14895   1.947   3.676   4.165 -0.6255 -1.3726 -1.2187
  137OSM   H16G14896   2.108   3.754   4.198  2.5790 -1.4966  1.5028
  137OSM   C17F14897   2.085   3.540   4.243 -0.7725  0.5332 -0.1199
  137OSM   H17F14898   2.195   3.534   4.258 -0.3569  1.2559 -2.4940
  137OSM   H17G14899   2.057   3.448   4.189  2.0377 -0.3543 -0.1985
  137OSM   C18F14900   2.017   3.527   4.389  0.0625 -0.4655 -0.5929
  137OSM   H18F14901   1.908   3.516   4.369  0.4462 -1.1426 -2.6060
  137OSM   H18G14902   2.048   3.620   4.440 -0.1458 -0.9950  0.5331
  137OSM   H18H14903   2.065   3.440   4.440  5.7138  1.5496 -1.6988
  138OSM      N14904   0.611   5.784   2.851 -0.0823 -0.5982 -0.2467
  138OSM    C1514905   0.673   5.650   2.845 -0.0820  0.3180  0.1825
  138OSM   H15A14906   0.645   5.594   2.756 -0.5854 -0.8583  1.0595
  138OSM   H15B14907   0.649   5.588   2.930  0.4116 -1.5694 -0.9940
  138OSM   H15C14908   0.781   5.653   2.838 -0.1183  1.6422 -0.0269
  138OSM    C1414909   0.692   5.859   2.942 -0.8789 -0.2938 -0.5392
  138OSM   H14A14910   0.699   5.816   3.041  0.1261 -1.2909 -1.0223
  138OSM   H14B14911   0.664   5.963   2.954  0.0527 -0.2872  2.4382
  138OSM   H14C14912   0.789   5.860   2.894 -1.8770  2.0380 -2.7696
  138OSM    C1314913   0.622   5.843   2.712 -0.0890  0.2377 -0.0799
  138OSM   H13A14914   0.583   5.943   2.719  0.2062  0.2471  1.7215
  138OSM   H13B14915   0.564   5.789   2.638  1.3762 -0.3687 -0.8363
  138OSM   H13C14916   0.726   5.845   2.683 -0.0078 -0.1611  0.1733
  138OSM    C1214917   0.463   5.774   2.884 -0.0921  0.2226 -0.7396
  138OSM   H12A14918   0.413   5.703   2.819  0.5612 -0.8268 -0.1304
  138OSM   H12B14919   0.407   5.866   2.878 -1.5425 -0.6567 -1.6245
  138OSM    C1114920   0.421   5.729   3.029 -0.5592  0.1833  0.1177
  138OSM   H11A14921   0.311   5.744   3.032 -0.8973 -1.4165 -1.7550
  138OSM   H11B14922   0.465   5.800   3.102  0.0693 -1.6899  1.6636
  138OSM      P14923   0.349   5.470   3.034 -0.0571  0.1037  0.0647
  138OSM    O1314924   0.349   5.449   2.887 -0.1256  0.0628 -0.0783
  138OSM    O1414925   0.368   5.351   3.116 -0.3186  0.0677  0.0690
  138OSM    O1114926   0.211   5.535   3.082  0.2030  0.4279 -0.4452
  138OSM    O1214927   0.453   5.588   3.064 -0.5311 -0.1004 -0.7795
  138OSM    C1S14928   0.197   5.563   3.227 -0.6984  0.1196  0.9132
  138OSM    H1S14929   0.242   5.663   3.247 -1.2829  0.7763 -0.8415
  138OSM    H1T14930   0.252   5.491   3.291  0.6500  0.3221 -0.0001
  138OSM     NF14931   0.035   5.570   3.418  0.5016 -0.8451 -0.3414
  138OSM    HNF14932   0.028   5.488   3.475 -0.3920 -0.7031 -0.2285
  138OSM    C2S14933   0.040   5.556   3.275 -0.3386  0.7139  0.0035
  138OSM    H2S14934  -0.012   5.641   3.224 -0.1349 -0.8805 -3.1177
  138OSM    C3S14935  -0.020   5.416   3.221  0.6311 -0.1965 -0.2557
  138OSM    H3S14936   0.039   5.337   3.271 -0.5444 -1.2014 -0.4207
  138OSM     O314937  -0.011   5.392   3.082  0.0379  0.0192  0.3422
  138OSM    HO314938   0.053   5.458   3.056 -1.9820  2.5904  1.4937
  138OSM    C4S14939  -0.168   5.402   3.252  0.3307 -0.7393 -0.6899
  138OSM    H4S14940  -0.230   5.483   3.213  0.1660  0.1138  1.2238
  138OSM    C5S14941  -0.228   5.312   3.326 -0.1951  0.0186 -0.5345
  138OSM    H5S14942  -0.168   5.239   3.383 -0.2183  0.9288  0.7184
  138OSM    C6S14943  -0.374   5.307   3.358  0.3394  0.6895  0.1895
  138OSM    H6S14944  -0.423   5.220   3.310  1.3352 -0.1102  0.5778
  138OSM    H6T14945  -0.428   5.393   3.312 -0.5210  1.2418  2.1168
  138OSM    C7S14946  -0.415   5.307   3.505 -0.2439  0.2966 -0.1377
  138OSM    H7S14947  -0.400   5.203   3.542  1.7107  0.2238 -0.9956
  138OSM    H7T14948  -0.526   5.315   3.506 -0.2743  2.1614 -3.6446
  138OSM    C8S14949  -0.351   5.417   3.594  0.0134 -0.4382 -0.5554
  138OSM    H8S14950  -0.379   5.519   3.560 -1.9307 -0.2109  1.4114
  138OSM    H8T14951  -0.243   5.394   3.596 -0.1106 -0.9902  0.8231
  138OSM    C9S14952  -0.394   5.431   3.744  0.7826 -0.1952  0.3613
  138OSM    H9S14953  -0.409   5.328   3.782 -1.2819 -0.5172 -1.1484
  138OSM    H9T14954  -0.493   5.483   3.747 -0.2026 -2.0153  1.2347
  138OSM   C10S14955  -0.306   5.505   3.839 -0.6121 -0.4289  0.4226
  138OSM   H10S14956  -0.284   5.605   3.795  0.1315  0.3174  2.3821
  138OSM   H10T14957  -0.208   5.452   3.845  0.1956  0.7162 -1.5262
  138OSM   C11S14958  -0.355   5.530   3.979  0.1965  0.3411  0.1894
  138OSM   H11S14959  -0.364   5.434   4.034 -0.5468  0.2900 -0.0159
  138OSM   H11T14960  -0.453   5.583   3.976  1.3318  2.5426 -0.7764
  138OSM   C12S14961  -0.248   5.613   4.051  0.6047  0.0445 -0.0513
  138OSM   H12S14962  -0.235   5.706   3.992 -2.6994 -1.0296 -2.7899
  138OSM   H12T14963  -0.162   5.543   4.051 -0.5007 -1.4219  1.9025
  138OSM   C13S14964  -0.282   5.654   4.193 -0.1480  0.1433 -0.3389
  138OSM   H13S14965  -0.391   5.674   4.200 -0.2749  0.2832 -2.1618
  138OSM   H13T14966  -0.230   5.750   4.212 -0.1466  0.3320 -1.2502
  138OSM   C14S14967  -0.245   5.541   4.292  0.5147 -0.4282 -0.2946
  138OSM   H14S14968  -0.135   5.524   4.300  0.2717 -1.7777  0.4844
  138OSM   H14T14969  -0.290   5.443   4.270 -0.3794 -0.4010  1.2308
  138OSM   C15S14970  -0.308   5.580   4.434 -0.1430 -0.5456  0.9201
  138OSM   H15S14971  -0.412   5.546   4.453 -0.8639  0.5950 -0.6464
  138OSM   H15T14972  -0.312   5.691   4.428 -1.8520 -0.5849  0.9462
  138OSM   C16S14973  -0.229   5.549   4.556  0.0778  0.4349  0.7428
  138OSM   H16S14974  -0.124   5.583   4.545  0.1288 -0.1403 -0.8669
  138OSM   H16T14975  -0.236   5.443   4.586 -4.3296  0.1696 -0.5608
  138OSM   C17S14976  -0.277   5.619   4.682  0.2002 -0.3646 -0.0705
  138OSM   H17S14977  -0.362   5.559   4.721  0.0775 -0.1493  0.0001
  138OSM   H17T14978  -0.303   5.718   4.638  3.2655 -0.4026 -2.2931
  138OSM   C18S14979  -0.170   5.646   4.794  0.0838 -0.1042  1.1127
  138OSM   H18S14980  -0.228   5.711   4.863 -2.5455  0.7460 -1.6755
  138OSM   H18T14981  -0.083   5.695   4.745  0.1805 -0.8972  0.4679
  138OSM   H18U14982  -0.120   5.555   4.833  0.6584 -0.3277 -0.0977
  138OSM    C1F14983   0.058   5.687   3.477  0.1808 -1.1637  0.0140
  138OSM     OF14984   0.084   5.783   3.404  0.4952 -0.0384  0.0340
  138OSM    C2F14985   0.045   5.696   3.624  0.1152 -0.9894 -0.1101
  138OSM    H2F14986   0.144   5.673   3.668 -0.6196 -0.1696  2.1401
  138OSM    H2G14987  -0.030   5.625   3.666 -0.7834 -0.1475 -0.2551
  138OSM    C3F14988   0.011   5.846   3.669 -0.6856  0.0631  0.0640
  138OSM    H3F14989  -0.066   5.866   3.592  0.0050  1.5725 -0.2676
  138OSM    H3G14990   0.089   5.923   3.647 -1.1336  0.9391  1.4625
  138OSM    C4F14991  -0.041   5.859   3.815  0.7898 -0.4108  0.3210
  138OSM    H4F14992  -0.122   5.787   3.836  2.1402 -1.9931  0.3347
  138OSM    H4G14993  -0.088   5.956   3.840  1.7690 -0.1030  1.0558
  138OSM    C5F14994   0.081   5.836   3.910 -0.5643  0.1657 -0.3085
  138OSM    H5F14995   0.157   5.917   3.899  1.9856 -2.0608 -0.0758
  138OSM    H5G14996   0.143   5.745   3.892  2.6265  2.0270  0.3809
  138OSM    C6F14997   0.046   5.833   4.058 -0.6645 -0.0878  0.0004
  138OSM    H6F14998  -0.022   5.748   4.082 -1.1199  0.6761  1.5816
  138OSM    H6G14999  -0.016   5.921   4.086 -0.8619 -0.5021  0.8998
  138OSM    C7F15000   0.167   5.829   4.148 -0.0518  0.4675 -0.3575
  138OSM    H7F15001   0.234   5.913   4.119  0.7568  0.2127  0.7202
  138OSM    H7G15002   0.216   5.742   4.099 -1.5724 -0.4410 -0.3415
  138OSM    C8F15003   0.147   5.821   4.297  0.0581 -0.7830 -0.0031
  138OSM    H8F15004   0.233   5.775   4.350 -0.0812  0.4777  1.3822
  138OSM    H8G15005   0.066   5.755   4.332  0.6526 -0.7241  1.5768
  138OSM    C9F15006   0.136   5.964   4.354  0.0030 -0.4664  0.1827
  138OSM    H9F15007   0.032   5.995   4.372  0.0224 -0.2792 -0.0202
  138OSM   C10F15008   0.230   6.047   4.399 -0.1824 -0.4980  0.0796
  138OSM   H10F15009   0.196   6.147   4.429 -0.8483 -0.4615 -0.7519
  138OSM   C11F15010   0.377   6.020   4.407 -1.0895  0.2361 -0.0401
  138OSM   H11F15011   0.429   6.039   4.310 -2.3595 -0.3546 -0.8726
  138OSM   H11G15012   0.379   5.912   4.435  0.7919  0.7090  1.8742
  138OSM   C12F15013   0.465   6.084   4.519 -0.1705  0.5652  0.5949
  138OSM   H12F15014   0.571   6.053   4.510 -0.2518  0.2660  0.6649
  138OSM   H12G15015   0.428   6.044   4.616 -0.0014 -3.5206 -0.8320
  138OSM   C13F15016   0.440   6.235   4.510  0.1583  0.2523  0.1449
  138OSM   H13F15017   0.343   6.252   4.563 -0.1965 -1.3595  0.0638
  138OSM   H13G15018   0.421   6.268   4.406 -0.8723 -0.9601 -0.0736
  138OSM   C14F15019   0.552   6.314   4.580  0.8375 -0.1835  0.2103
  138OSM   H14F15020   0.605   6.264   4.663  0.7014  0.7833  0.8944
  138OSM   H14G15021   0.504   6.406   4.620  0.8834  0.5204 -1.2825
  138OSM   C15F15022   0.659   6.354   4.483  0.1701 -0.4752  0.3531
  138OSM   H15F15023   0.615   6.418   4.402  3.3810 -0.9821 -2.0068
  138OSM   H15G15024   0.704   6.268   4.429  0.5066  0.9203 -1.7460
  138OSM   C16F15025   0.776   6.427   4.542  0.2103 -0.4215 -0.3435
  138OSM   H16F15026   0.827   6.361   4.616  0.3173  2.0732  1.9921
  138OSM   H16G15027   0.749   6.513   4.608  1.8209 -0.0910 -0.0552
  138OSM   C17F15028   0.860   6.467   4.425 -0.1852 -0.3650  0.1716
  138OSM   H17F15029   0.800   6.528   4.354  2.1384  2.2311  0.2727
  138OSM   H17G15030   0.895   6.372   4.380  2.5932  1.4476 -1.8247
  138OSM   C18F15031   0.986   6.555   4.447 -0.7099 -0.3246  0.1450
  138OSM   H18F15032   1.064   6.495   4.500  0.0582  1.4071  1.0459
  138OSM   H18G15033   0.967   6.644   4.509 -2.5991 -0.8557  0.3740
  138OSM   H18H15034   1.030   6.584   4.349  0.5801 -0.7532  0.5684
  139OSM      N15035   3.818   1.556   2.093  0.7779 -0.2302 -0.2144
  139OSM    C1515036   3.955   1.548   2.045 -0.1189 -0.2280 -0.3092
  139OSM   H15A15037   4.016   1.625   2.091 -0.3279 -1.1643  1.6604
  139OSM   H15B15038   3.968   1.548   1.938 -0.2502  3.2408 -0.4294
  139OSM   H15C15039   4.010   1.463   2.084  0.4883  1.1743  2.1442
  139OSM    C1415040   3.758   1.435   2.039 -0.4410 -0.2803 -0.2261
  139OSM   H14A15041   3.745   1.451   1.933  0.2693  1.4404 -0.0914
  139OSM   H14B15042   3.660   1.408   2.076 -0.6888  0.6469 -0.1744
  139OSM   H14C15043   3.821   1.348   2.042 -1.3989 -1.0004  2.3469
  139OSM    C1315044   3.816   1.547   2.238 -0.3350 -0.9023 -0.3585
  139OSM   H13A15045   3.864   1.458   2.277  0.3199  0.2414  1.6282
  139OSM   H13B15046   3.717   1.539   2.280  0.4477 -0.8621  1.6036
  139OSM   H13C15047   3.870   1.629   2.284 -1.7126 -0.7228  1.0497
  139OSM    C1215048   3.741   1.677   2.030  0.0611  0.0186  0.0493
  139OSM   H12A15049   3.639   1.656   2.056 -0.5243  3.7189  1.3354
  139OSM   H12B15050   3.751   1.667   1.922  0.7669  0.5161  0.0608
  139OSM    C1115051   3.776   1.816   2.087  0.1170 -0.1582  0.2650
  139OSM   H11A15052   3.730   1.819   2.188 -0.7050  0.2946 -0.1129
  139OSM   H11B15053   3.729   1.896   2.024 -1.7684 -0.7834  0.8006
  139OSM      P15054   3.975   1.978   2.142 -0.0945 -0.6009  0.2927
  139OSM    O1315055   4.119   1.964   2.168  0.3161  0.8686 -0.4428
  139OSM    O1415056   3.934   2.084   2.044  0.4074 -0.0555  0.1839
  139OSM    O1115057   3.896   2.015   2.277  0.3963  0.4816  0.1644
  139OSM    O1215058   3.918   1.842   2.095  0.2429  0.0059 -0.1908
  139OSM    C1S15059   3.947   2.082   2.389  0.2130 -0.1962 -0.8236
  139OSM    H1S15060   3.958   2.192   2.380  1.3268 -0.3129 -0.9601
  139OSM    H1T15061   4.047   2.044   2.417 -0.0667  0.7534  1.7868
  139OSM     NF15062   3.903   2.137   2.629  0.3099  0.6607  0.6324
  139OSM    HNF15063   3.972   2.097   2.688  1.4534  3.0685  1.0296
  139OSM    C2S15064   3.852   2.052   2.515 -0.2543 -0.6563 -0.3240
  139OSM    H2S15065   3.752   2.093   2.491 -0.0892  0.1493  0.3012
  139OSM    C3S15066   3.847   1.905   2.545 -0.5676  0.2100  0.2338
  139OSM    H3S15067   3.948   1.864   2.563 -1.3636 -1.8892  0.2204
  139OSM     O315068   3.792   1.824   2.441  0.0328 -0.2973 -0.0981
  139OSM    HO315069   3.782   1.892   2.373  0.2140 -2.1558 -2.0804
  139OSM    C4S15070   3.775   1.877   2.675 -0.0393 -0.0534 -0.0213
  139OSM    H4S15071   3.673   1.839   2.665 -0.0079  0.2769 -1.8702
  139OSM    C5S15072   3.844   1.867   2.790  0.6052  0.8684 -0.5800
  139OSM    H5S15073   3.947   1.901   2.805  0.5776  1.1581 -1.0279
  139OSM    C6S15074   3.784   1.816   2.920 -0.3669 -0.3013  0.5668
  139OSM    H6S15075   3.801   1.707   2.917  1.4142 -0.2159  3.4981
  139OSM    H6T15076   3.678   1.845   2.937 -0.4897 -0.0466 -0.5201
  139OSM    C7S15077   3.873   1.876   3.029  0.5133 -0.0800 -0.0556
  139OSM    H7S15078   3.842   1.983   3.040  0.3549 -0.1642  0.3674
  139OSM    H7T15079   3.982   1.873   3.010  0.2569 -3.1664 -1.4823
  139OSM    C8S15080   3.853   1.813   3.170 -0.1969  0.2537  0.1401
  139OSM    H8S15081   3.862   1.704   3.150 -1.3511  0.5054 -2.0637
  139OSM    H8T15082   3.748   1.829   3.204 -0.6201 -0.3060 -0.8541
  139OSM    C9S15083   3.950   1.857   3.266 -0.3660 -0.5152 -0.6435
  139OSM    H9S15084   3.969   1.966   3.259  1.7043 -0.8748 -1.5358
  139OSM    H9T15085   4.052   1.816   3.250 -0.3220 -0.1024 -1.4405
  139OSM   C10S15086   3.909   1.831   3.411  0.1441 -0.1167 -0.2214
  139OSM   H10S15087   3.878   1.726   3.429 -0.0306 -0.0221  0.0451
  139OSM   H10T15088   3.824   1.900   3.431  0.0303 -0.0356 -0.9580
  139OSM   C11S15089   4.028   1.854   3.504 -0.8922  0.4085 -0.2766
  139OSM   H11S15090   4.061   1.959   3.491  0.4575 -0.1996 -2.2293
  139OSM   H11T15091   4.116   1.791   3.479 -0.2570  1.2418 -0.1896
  139OSM   C12S15092   3.996   1.846   3.654  0.4399 -0.3694 -0.1570
  139OSM   H12S15093   3.935   1.754   3.659  0.1452 -0.1530  0.2830
  139OSM   H12T15094   3.927   1.928   3.683 -1.0279 -1.5785 -0.1102
  139OSM   C13S15095   4.117   1.838   3.742 -0.1418  0.2655  0.2999
  139OSM   H13S15096   4.188   1.920   3.716 -1.4388  0.9522 -1.2690
  139OSM   H13T15097   4.165   1.739   3.732 -0.6493 -0.0773  1.1427
  139OSM   C14S15098   4.071   1.859   3.888  0.4546  1.0134 -0.1464
  139OSM   H14S15099   4.000   1.778   3.916  1.8652  0.6575  2.8374
  139OSM   H14T15100   4.015   1.954   3.892 -1.0571  0.2020 -1.2452
  139OSM   C15S15101   4.183   1.854   3.988  0.2705  0.3512  0.0797
  139OSM   H15S15102   4.276   1.903   3.953 -0.5159  0.5612 -1.8232
  139OSM   H15T15103   4.209   1.751   4.020 -0.3200 -0.7215 -2.6203
  139OSM   C16S15104   4.126   1.920   4.113  0.1993  0.0458  0.3992
  139OSM   H16S15105   4.048   1.858   4.163 -1.7140  1.1711 -1.0505
  139OSM   H16T15106   4.080   2.018   4.088 -0.5470 -0.3593  0.1394
  139OSM   C17S15107   4.237   1.942   4.223  0.2063 -0.2372  0.1738
  139OSM   H17S15108   4.312   2.014   4.184  2.9510 -1.8271  2.1970
  139OSM   H17T15109   4.274   1.838   4.230  1.0606  0.0956  0.7344
  139OSM   C18S15110   4.172   1.985   4.352  0.4482  0.5418 -0.3902
  139OSM   H18S15111   4.250   2.022   4.422  0.1091 -0.2673  0.4393
  139OSM   H18T15112   4.125   1.892   4.393  1.3132 -0.4702 -1.6021
  139OSM   H18U15113   4.100   2.069   4.352 -1.5276 -1.0729 -1.1539
  139OSM    C1F15114   3.873   2.267   2.640  0.3192  1.4121 -0.6466
  139OSM     OF15115   3.823   2.325   2.544 -0.0237 -0.2372  0.1753
  139OSM    C2F15116   3.914   2.325   2.773  0.2317 -0.3856 -0.3426
  139OSM    H2F15117   4.023   2.347   2.773 -0.2294  2.2563 -1.2595
  139OSM    H2G15118   3.909   2.239   2.844  1.6392 -0.1561  0.0498
  139OSM    C3F15119   3.834   2.449   2.809 -0.3449  0.2243 -0.1344
  139OSM    H3F15120   3.733   2.446   2.764 -1.0534  1.8130  1.2562
  139OSM    H3G15121   3.874   2.539   2.758 -4.2996  1.7669 -0.8481
  139OSM    C4F15122   3.815   2.464   2.962 -0.1742  0.0581  0.0240
  139OSM    H4F15123   3.785   2.568   2.986 -1.2008 -0.4103  0.8613
  139OSM    H4G15124   3.913   2.447   3.011  0.0405 -1.6093 -0.9177
  139OSM    C5F15125   3.710   2.364   3.022  0.1919 -0.5573 -0.0262
  139OSM    H5F15126   3.720   2.258   2.990 -0.9077 -1.4909  2.5049
  139OSM    H5G15127   3.609   2.398   2.994  0.5320 -0.4705 -1.1944
  139OSM    C6F15128   3.712   2.353   3.171 -0.3492 -0.3686 -0.5254
  139OSM    H6F15129   3.619   2.322   3.222 -0.1558  0.4101  0.3319
  139OSM    H6G15130   3.738   2.449   3.220 -1.0196 -0.4119 -0.0806
  139OSM    C7F15131   3.821   2.256   3.225 -0.2655  0.2751 -0.4415
  139OSM    H7F15132   3.920   2.281   3.181 -0.4930  3.4018  0.5664
  139OSM    H7G15133   3.790   2.156   3.188 -3.5879  0.9125  0.3545
  139OSM    C8F15134   3.844   2.247   3.375 -0.2629 -0.0792  0.2622
  139OSM    H8F15135   3.897   2.151   3.390 -0.5848 -0.9932 -3.3776
  139OSM    H8G15136   3.743   2.235   3.421 -0.0245  0.2467  0.8800
  139OSM    C9F15137   3.908   2.371   3.432  0.3898  0.1198 -1.3381
  139OSM    H9F15138   3.869   2.467   3.394  1.3216  1.7763  1.5800
  139OSM   C10F15139   3.995   2.381   3.536 -0.4708  0.1255 -0.1947
  139OSM   H10F15140   4.036   2.477   3.573  0.0469  0.5516 -1.7997
  139OSM   C11F15141   4.039   2.260   3.613  0.5380 -0.0264  0.7661
  139OSM   H11F15142   4.146   2.270   3.644  1.0889  1.1941 -1.3791
  139OSM   H11G15143   4.039   2.166   3.553 -2.8015 -0.6614  1.5681
  139OSM   C12F15144   3.963   2.242   3.745  0.6316 -0.2362  0.2583
  139OSM   H12F15145   3.950   2.132   3.760  1.0897 -0.7270 -2.3150
  139OSM   H12G15146   3.857   2.275   3.742  0.1478 -1.7221  0.1077
  139OSM   C13F15147   4.023   2.320   3.858  0.0554 -0.1275  0.5978
  139OSM   H13F15148   4.016   2.428   3.833 -0.9186 -0.4937 -0.8374
  139OSM   H13G15149   4.131   2.297   3.870 -0.1991 -0.2565  3.3570
  139OSM   C14F15150   3.945   2.292   3.990 -0.0537 -0.5017 -0.9199
  139OSM   H14F15151   3.921   2.185   4.003  0.6694 -0.5998 -0.3103
  139OSM   H14G15152   3.852   2.353   3.982  1.3462  2.3681  2.0421
  139OSM   C15F15153   4.012   2.336   4.120  0.3309  0.8501 -0.3470
  139OSM   H15F15154   4.088   2.260   4.150 -0.3066 -0.2504 -1.4223
  139OSM   H15G15155   3.936   2.345   4.201  0.7003 -0.2245  0.1493
  139OSM   C16F15156   4.090   2.465   4.116  0.2829  0.8385  0.1325
  139OSM   H16F15157   4.039   2.553   4.074  0.9730  0.8350 -0.7472
  139OSM   H16G15158   4.184   2.456   4.056 -0.5173  0.6535 -1.1238
  139OSM   C17F15159   4.129   2.501   4.259 -0.1703  0.0573 -0.3672
  139OSM   H17F15160   4.182   2.416   4.306  0.9614  1.3640  0.8147
  139OSM   H17G15161   4.036   2.529   4.314 -1.8264  3.3097 -4.3252
  139OSM   C18F15162   4.223   2.623   4.266 -0.3562 -0.1882 -0.1531
  139OSM   H18F15163   4.177   2.715   4.223  1.0584 -0.4306 -2.3225
  139OSM   H18G15164   4.310   2.594   4.205 -0.4457 -1.4604  0.2941
  139OSM   H18H15165   4.239   2.654   4.371 -0.4299  0.2688 -0.2760
  140OSM      N15166   2.816   6.646   2.785 -0.3091 -0.2339  0.1177
  140OSM    C1515167   2.899   6.550   2.864 -0.0590 -0.2670 -0.0445
  140OSM   H15A15168   2.875   6.557   2.969 -2.2359  0.3701 -0.5468
  140OSM   H15B15169   3.002   6.580   2.850  0.0473 -1.6177 -2.5550
  140OSM   H15C15170   2.886   6.448   2.834 -1.3887 -0.5056  1.2413
  140OSM    C1415171   2.849   6.785   2.844 -0.0706  0.0864  0.1676
  140OSM   H14A15172   2.766   6.852   2.828  0.5721  0.7477 -0.4739
  140OSM   H14B15173   2.944   6.825   2.811  0.3969 -0.4871  0.7909
  140OSM   H14C15174   2.864   6.766   2.949 -0.8424  1.4244  0.5553
  140OSM    C1315175   2.861   6.643   2.652 -0.0412  0.4607  0.1396
  140OSM   H13A15176   2.803   6.706   2.585  0.0221  1.1356  0.7072
  140OSM   H13B15177   2.856   6.545   2.606  0.6412 -0.6604  2.3505
  140OSM   H13C15178   2.959   6.684   2.634  0.1225 -0.4922 -1.3330
  140OSM    C1215179   2.669   6.609   2.798 -0.6426  0.3752  0.7879
  140OSM   H12A15180   2.612   6.688   2.751  0.1715 -0.1042 -1.0904
  140OSM   H12B15181   2.646   6.609   2.904  0.7883  1.0337  1.1233
  140OSM    C1115182   2.619   6.475   2.733 -0.1126  0.7146 -0.6944
  140OSM   H11A15183   2.627   6.482   2.622  2.1982  0.9508 -0.5622
  140OSM   H11B15184   2.512   6.468   2.761 -0.1449 -0.8451 -1.1301
  140OSM      P15185   2.638   6.278   2.892 -0.0885  0.1928 -0.2250
  140OSM    O1315186   2.542   6.180   2.837  1.1518 -0.2215  0.1232
  140OSM    O1415187   2.755   6.225   2.960  0.1367 -0.8660 -0.5111
  140OSM    O1115188   2.555   6.371   2.986  0.8176  0.1606  0.4947
  140OSM    O1215189   2.692   6.363   2.776  0.0230  0.5677  0.4616
  140OSM    C1S15190   2.506   6.318   3.114  0.6140 -0.0830  0.2607
  140OSM    H1S15191   2.530   6.211   3.134 -0.6945 -0.3578  0.4452
  140OSM    H1T15192   2.395   6.328   3.115  0.0970 -4.1496  1.6568
  140OSM     NF15193   2.538   6.317   3.357  0.2934  0.1109  0.1199
  140OSM    HNF15194   2.466   6.358   3.412 -2.2436  0.2075 -3.0082
  140OSM    C2S15195   2.558   6.395   3.239 -0.0862  0.7661  0.6965
  140OSM    H2S15196   2.667   6.390   3.220 -0.1326  0.2095  0.5579
  140OSM    C3S15197   2.526   6.543   3.242  0.1398  0.5603 -0.7848
  140OSM    H3S15198   2.416   6.556   3.244  0.1405  0.5412 -0.5985
  140OSM     O315199   2.560   6.606   3.120  0.2403  0.4672  0.0593
  140OSM    HO315200   2.553   6.528   3.064 -2.3333  1.4306 -1.1697
  140OSM    C4S15201   2.582   6.618   3.359 -0.0485 -0.5836  0.0682
  140OSM    H4S15202   2.518   6.629   3.447  2.3267 -1.5990  2.0557
  140OSM    C5S15203   2.704   6.677   3.359  0.1910  0.0281  0.5268
  140OSM    H5S15204   2.765   6.673   3.268 -0.8503  1.7992 -0.2992
  140OSM    C6S15205   2.764   6.766   3.466  0.1108 -0.6485 -0.5876
  140OSM    H6S15206   2.731   6.870   3.444 -0.0155 -0.5849 -0.1071
  140OSM    H6T15207   2.875   6.770   3.471  0.0789  2.6183 -0.1944
  140OSM    C7S15208   2.727   6.739   3.614  0.8364  0.0549 -0.2120
  140OSM    H7S15209   2.799   6.665   3.656 -0.0230  0.1234  1.4507
  140OSM    H7T15210   2.619   6.715   3.613  0.6761  0.6206  1.2203
  140OSM    C8S15211   2.745   6.869   3.696  0.2782 -0.5133 -0.5819
  140OSM    H8S15212   2.724   6.960   3.636  0.2155 -0.7752 -0.9587
  140OSM    H8T15213   2.855   6.884   3.694  0.3168 -0.8563 -2.8773
  140OSM    C9S15214   2.682   6.877   3.840  0.8061 -0.3095  0.0828
  140OSM    H9S15215   2.572   6.866   3.828  0.5659  0.7652  1.0861
  140OSM    H9T15216   2.712   6.974   3.884  0.9727 -0.3232  0.0003
  140OSM   C10S15217   2.743   6.777   3.939  0.1639 -0.3427  0.5379
  140OSM   H10S15218   2.853   6.795   3.940 -0.0259  0.9220  0.6129
  140OSM   H10T15219   2.719   6.672   3.913 -0.5924 -0.1457  0.4059
  140OSM   C11S15220   2.690   6.814   4.086 -0.0983  0.1438  0.2482
  140OSM   H11S15221   2.581   6.802   4.067 -0.2681 -0.8996  1.7111
  140OSM   H11T15222   2.702   6.923   4.102 -1.2810  0.4476 -0.8160
  140OSM   C12S15223   2.769   6.739   4.199  0.7313  0.2468  0.4370
  140OSM   H12S15224   2.865   6.789   4.224  1.0769 -0.4647  0.5391
  140OSM   H12T15225   2.781   6.636   4.159 -1.2625  0.5752 -1.2546
  140OSM   C13S15226   2.686   6.722   4.326 -0.6801  0.3734 -0.3629
  140OSM   H13S15227   2.755   6.655   4.382  0.0168  1.6803  0.3955
  140OSM   H13T15228   2.596   6.662   4.302 -0.7957  0.1612  0.5674
  140OSM   C14S15229   2.671   6.846   4.415  0.5908  0.6704  0.0938
  140OSM   H14S15230   2.622   6.925   4.354  0.5830  0.5818 -0.0166
  140OSM   H14T15231   2.761   6.900   4.449 -0.8777  1.5732  2.8564
  140OSM   C15S15232   2.587   6.802   4.539 -0.5592  0.5816  0.1127
  140OSM   H15S15233   2.512   6.729   4.503  0.9831 -1.2197  0.3856
  140OSM   H15T15234   2.543   6.893   4.583 -3.3250 -0.2082 -0.8087
  140OSM   C16S15235   2.687   6.741   4.645  0.6994  0.0554 -0.3612
  140OSM   H16S15236   2.781   6.801   4.653 -0.2401  1.5923 -0.5263
  140OSM   H16T15237   2.718   6.641   4.607  3.1526  0.3130  0.7477
  140OSM   C17S15238   2.622   6.733   4.791 -0.1555  0.5426  0.9643
  140OSM   H17S15239   2.711   6.710   4.853  0.8756 -0.4961 -0.8253
  140OSM   H17T15240   2.553   6.646   4.781  0.7812  0.0644 -3.4066
  140OSM   C18S15241   2.557   6.854   4.856  0.0955 -0.7753  1.1373
  140OSM   H18S15242   2.625   6.942   4.853 -0.4412 -0.3866 -0.7772
  140OSM   H18T15243   2.531   6.843   4.963  2.4175 -0.6267  1.7558
  140OSM   H18U15244   2.461   6.877   4.804  0.1857  0.2324  1.4042
  140OSM    C1F15245   2.578   6.188   3.386  0.1265 -0.1480 -0.1352
  140OSM     OF15246   2.667   6.138   3.318 -0.0560 -0.2203  0.7420
  140OSM    C2F15247   2.514   6.107   3.500 -0.3417 -0.4711 -0.1931
  140OSM    H2F15248   2.417   6.072   3.458  0.5860  0.2396 -3.2259
  140OSM    H2G15249   2.501   6.179   3.583 -0.8959 -2.2947  1.3789
  140OSM    C3F15250   2.602   6.001   3.567 -0.9350  0.0241 -0.0975
  140OSM    H3F15251   2.703   6.044   3.589 -1.6034  1.2462  0.7345
  140OSM    H3G15252   2.611   5.915   3.498  1.6661 -0.4448  0.7143
  140OSM    C4F15253   2.541   5.936   3.700 -0.0917 -0.1914 -0.4953
  140OSM    H4F15254   2.592   5.838   3.707 -2.1535 -1.2063  1.6650
  140OSM    H4G15255   2.435   5.907   3.686 -0.3177 -0.6808  1.7934
  140OSM    C5F15256   2.553   6.024   3.824  1.1050 -0.2298 -0.5307
  140OSM    H5F15257   2.510   6.123   3.795 -2.2722 -1.3437  0.2531
  140OSM    H5G15258   2.661   6.043   3.842  0.9216 -1.1157  1.7087
  140OSM    C6F15259   2.495   5.972   3.955 -0.3486  0.5309  0.6519
  140OSM    H6F15260   2.390   6.008   3.961 -0.1208  1.3429  0.0129
  140OSM    H6G15261   2.547   6.022   4.040  0.3836  0.7972  0.0588
  140OSM    C7F15262   2.504   5.821   3.967  0.1153 -0.3093  0.4257
  140OSM    H7F15263   2.608   5.797   3.934 -0.1702 -1.0052 -0.0068
  140OSM    H7G15264   2.425   5.771   3.907 -0.5326  2.0815 -0.8167
  140OSM    C8F15265   2.490   5.766   4.115  0.7518  0.5561  0.0048
  140OSM    H8F15266   2.574   5.804   4.178 -1.7383  1.5106  3.0235
  140OSM    H8G15267   2.501   5.656   4.109  1.0866  0.5896 -0.0467
  140OSM    C9F15268   2.362   5.808   4.184 -0.3942  0.4472  1.1847
  140OSM    H9F15269   2.282   5.740   4.153 -0.1705  1.9486 -3.3062
  140OSM   C10F15270   2.355   5.893   4.285  0.3569 -0.0865 -0.9655
  140OSM   H10F15271   2.255   5.913   4.326  1.4980  0.9330  1.4746
  140OSM   C11F15272   2.460   5.978   4.348 -0.4954 -0.0016  0.2412
  140OSM   H11F15273   2.443   6.084   4.321 -0.8153 -0.2591 -0.5964
  140OSM   H11G15274   2.561   5.949   4.312 -1.2619 -0.6907 -1.4785
  140OSM   C12F15275   2.458   5.965   4.498 -0.1633  0.0727 -0.3990
  140OSM   H12F15276   2.531   6.037   4.541 -0.0482 -0.2494 -0.0557
  140OSM   H12G15277   2.496   5.862   4.514 -0.8027  0.0048  0.8073
  140OSM   C13F15278   2.318   5.979   4.557  0.3121 -0.0175  0.3359
  140OSM   H13F15279   2.258   5.893   4.521 -1.3835  1.3518 -0.2228
  140OSM   H13G15280   2.270   6.076   4.532  1.7697  0.1110 -2.3091
  140OSM   C14F15281   2.337   5.961   4.713 -0.4257  1.0120 -0.1368
  140OSM   H14F15282   2.399   6.041   4.759  1.8058 -0.8625  0.2757
  140OSM   H14G15283   2.391   5.864   4.722  0.3005  1.3480 -0.7482
  140OSM   C15F15284   2.209   5.951   4.790  0.1428 -0.1780  0.3295
  140OSM   H15F15285   2.148   5.861   4.768  2.8643 -1.9628 -0.3752
  140OSM   H15G15286   2.141   6.032   4.755  0.6934  1.0750  1.9970
  140OSM   C16F15287   2.208   5.988   4.936 -0.6246  0.1764 -0.3848
  140OSM   H16F15288   2.279   6.073   4.950 -0.7726  0.0964  0.9855
  140OSM   H16G15289   2.235   5.902   5.002 -0.3199  1.3237  1.0535
  140OSM   C17F15290   2.080   6.043   4.986 -0.0602  0.4330  0.8638
  140OSM   H17F15291   1.997   5.970   4.992 -2.2177  2.6325 -0.3917
  140OSM   H17G15292   2.051   6.118   4.909  1.9450 -0.7763 -1.1559
  140OSM   C18F15293   2.071   6.111   5.122 -0.4823  0.3339 -0.6125
  140OSM   H18F15294   1.968   6.142   5.149 -0.6728 -1.5161  0.9482
  140OSM   H18G15295   2.137   6.200   5.123 -0.9335  0.6848  0.8994
  140OSM   H18H15296   2.097   6.046   5.208  0.0758 -0.4187 -1.3398
  141OSM      N15297   4.606   4.072   2.176  0.4764 -0.3048  0.2322
  141OSM    C1515298   4.711   4.167   2.209  0.0583  0.3645 -0.2471
  141OSM   H15A15299   4.718   4.246   2.136 -2.0406  1.9330  1.1316
  141OSM   H15B15300   4.801   4.107   2.209  0.5558  1.0483  1.3596
  141OSM   H15C15301   4.682   4.198   2.308 -1.0050  1.1175 -0.7754
  141OSM    C1415302   4.624   4.038   2.034  0.8239 -0.2589  0.5025
  141OSM   H14A15303   4.603   4.119   1.966 -0.9082 -0.7746  0.4018
  141OSM   H14B15304   4.568   3.950   2.006 -0.1957  0.0129  1.6391
  141OSM   H14C15305   4.727   4.013   2.013  0.4758 -2.0570  0.8045
  141OSM    C1315306   4.601   3.943   2.254  0.0973 -0.8063  0.1259
  141OSM   H13A15307   4.691   3.888   2.232  0.8127  0.2419  0.3595
  141OSM   H13B15308   4.505   3.896   2.236  0.7594 -1.5644 -1.6005
  141OSM   H13C15309   4.585   3.955   2.360 -0.1809  1.2703 -0.1110
  141OSM    C1215310   4.469   4.140   2.198 -0.5565  0.4844  0.3398
  141OSM   H12A15311   4.459   4.219   2.125 -0.1170  1.2219  1.0731
  141OSM   H12B15312   4.468   4.186   2.295  1.5055 -0.6743  0.9668
  141OSM    C1115313   4.334   4.063   2.168 -1.0032 -0.1431 -0.4405
  141OSM   H11A15314   4.348   4.014   2.070  2.0223 -0.7688  0.2105
  141OSM   H11B15315   4.260   4.145   2.177  0.4338  1.0066  1.8228
  141OSM      P15316   4.287   3.970   2.416 -0.1227  0.1658 -0.1197
  141OSM    O1315317   4.153   3.912   2.453  0.1616  0.4604  0.5964
  141OSM    O1415318   4.403   3.900   2.474 -0.5827 -0.3203 -0.8271
  141OSM    O1115319   4.300   4.128   2.439  0.2770  0.4665 -0.1009
  141OSM    O1215320   4.308   3.956   2.259  0.1725 -0.1406 -0.9383
  141OSM    C1S15321   4.195   4.193   2.511 -0.0017 -0.3274 -0.5029
  141OSM    H1S15322   4.096   4.151   2.484  0.1741 -2.6692  2.0549
  141OSM    H1T15323   4.194   4.301   2.486 -0.9413 -0.1844  0.1028
  141OSM     NF15324   4.098   4.257   2.722 -0.2061 -0.1175  0.5191
  141OSM    HNF15325   4.108   4.354   2.743  2.0445  0.1678 -1.5194
  141OSM    C2S15326   4.215   4.184   2.662 -0.1408 -0.3066  0.0966
  141OSM    H2S15327   4.211   4.079   2.697 -1.1601  0.0030  0.9645
  141OSM    C3S15328   4.357   4.237   2.706 -0.2199 -0.6565  0.7576
  141OSM    H3S15329   4.376   4.336   2.659  1.7768 -1.0619  0.5963
  141OSM     O315330   4.471   4.160   2.654 -0.0979 -0.2318  0.4027
  141OSM    HO315331   4.434   4.125   2.572 -1.8106 -0.4231  1.2206
  141OSM    C4S15332   4.363   4.256   2.851 -0.0614 -0.1591 -0.2984
  141OSM    H4S15333   4.344   4.159   2.898  1.4867  0.2651  1.3237
  141OSM    C5S15334   4.384   4.364   2.926  0.3225 -0.4817  0.3622
  141OSM    H5S15335   4.394   4.461   2.873 -0.7279 -1.0994 -1.0486
  141OSM    C6S15336   4.409   4.374   3.073  0.3057 -0.5880 -0.4765
  141OSM    H6S15337   4.486   4.454   3.086 -1.0351  0.5057  1.0944
  141OSM    H6T15338   4.445   4.276   3.109  2.2089  0.3471  0.3285
  141OSM    C7S15339   4.279   4.409   3.146 -0.0555  0.4080  0.0205
  141OSM    H7S15340   4.202   4.328   3.144  0.3558  0.0250 -2.3692
  141OSM    H7T15341   4.239   4.498   3.094  0.8068 -0.4015 -2.1359
  141OSM    C8S15342   4.289   4.442   3.302 -0.0021  0.4573 -0.1687
  141OSM    H8S15343   4.195   4.487   3.341 -0.9816 -0.7469 -1.0368
  141OSM    H8T15344   4.381   4.504   3.313  2.2271 -2.8506  1.4184
  141OSM    C9S15345   4.291   4.314   3.397 -0.3622  0.1433  0.3626
  141OSM    H9S15346   4.372   4.249   3.357 -0.5772  0.5476 -0.7944
  141OSM    H9T15347   4.193   4.263   3.401 -1.0032  1.3647  4.3778
  141OSM   C10S15348   4.330   4.339   3.547  0.4509  0.7501  0.4036
  141OSM   H10S15349   4.408   4.418   3.544  2.8623 -1.3907  2.1960
  141OSM   H10T15350   4.379   4.256   3.602 -1.9884 -0.5847  0.7280
  141OSM   C11S15351   4.215   4.400   3.631 -0.1832 -0.0024  0.6229
  141OSM   H11S15352   4.131   4.327   3.637  0.0106 -0.5345 -1.9128
  141OSM   H11T15353   4.197   4.495   3.575  2.8074 -0.5730 -1.5396
  141OSM   C12S15354   4.269   4.440   3.772 -0.0138 -0.1223  0.4332
  141OSM   H12S15355   4.211   4.530   3.801  1.0583  0.7097  0.0643
  141OSM   H12T15356   4.377   4.468   3.769  0.5046 -2.0564 -0.4756
  141OSM   C13S15357   4.237   4.339   3.874  0.2660  0.0382 -0.1422
  141OSM   H13S15358   4.290   4.245   3.844  0.7730 -0.5343  2.3122
  141OSM   H13T15359   4.131   4.313   3.895 -0.9346  3.4698 -1.4482
  141OSM   C14S15360   4.296   4.378   4.017  0.3133  0.0286  0.1651
  141OSM   H14S15361   4.256   4.481   4.034 -0.5293 -0.3066  0.2608
  141OSM   H14T15362   4.407   4.376   4.011  0.4151  0.7372  1.5457
  141OSM   C15S15363   4.238   4.298   4.140 -0.2060  0.4580 -0.4623
  141OSM   H15S15364   4.275   4.193   4.133 -1.2552  0.0082  0.3983
  141OSM   H15T15365   4.128   4.287   4.139 -0.0847 -1.0808 -2.5478
  141OSM   C16S15366   4.289   4.346   4.282  0.0553 -0.0684  0.2989
  141OSM   H16S15367   4.249   4.449   4.284  0.0177 -0.0944  1.5663
  141OSM   H16T15368   4.400   4.342   4.290  0.0087 -0.5355  0.7761
  141OSM   C17S15369   4.237   4.267   4.402  0.0767  0.9569 -0.4533
  141OSM   H17S15370   4.126   4.280   4.409  0.1513  1.1221  0.6883
  141OSM   H17T15371   4.278   4.304   4.499 -4.0491 -2.0232  2.8210
  141OSM   C18S15372   4.271   4.112   4.401 -0.6972 -0.4857 -0.1554
  141OSM   H18S15373   4.381   4.099   4.403 -0.6201  0.1438 -0.1609
  141OSM   H18T15374   4.215   4.065   4.317 -1.8206 -1.4973  1.1212
  141OSM   H18U15375   4.233   4.059   4.491  1.8428 -2.4740 -0.1341
  141OSM    C1F15376   3.982   4.192   2.746  0.3345  0.1189 -0.3537
  141OSM     OF15377   3.972   4.072   2.729 -0.4824  0.2699  0.2944
  141OSM    C2F15378   3.868   4.269   2.803  0.3017 -0.5334 -0.4410
  141OSM    H2F15379   3.783   4.203   2.834 -0.9069  1.7529  1.4016
  141OSM    H2G15380   3.821   4.338   2.730  1.0019 -0.7185 -1.0890
  141OSM    C3F15381   3.900   4.339   2.937  0.5986 -0.8481 -0.2033
  141OSM    H3F15382   3.819   4.411   2.960 -0.7619 -2.5993  0.6938
  141OSM    H3G15383   3.995   4.395   2.923  0.5943 -0.6435  0.5473
  141OSM    C4F15384   3.924   4.255   3.061  0.3435 -0.4145  0.4958
  141OSM    H4F15385   4.025   4.210   3.069  0.2114 -0.4509  2.5088
  141OSM    H4G15386   3.857   4.166   3.054 -0.1967 -0.0269  0.6283
  141OSM    C5F15387   3.895   4.332   3.194 -0.6785  0.8350 -0.3037
  141OSM    H5F15388   3.796   4.378   3.178 -0.5983  0.4818 -2.0255
  141OSM    H5G15389   3.969   4.415   3.206 -0.0934  0.1325  1.1855
  141OSM    C6F15390   3.902   4.226   3.316 -0.1488 -0.2684  0.5861
  141OSM    H6F15391   4.003   4.180   3.319 -0.0723 -0.1226  0.2394
  141OSM    H6G15392   3.834   4.143   3.287 -1.1687 -0.8822  4.1961
  141OSM    C7F15393   3.856   4.290   3.449 -0.4472 -0.2462  0.7605
  141OSM    H7F15394   3.747   4.311   3.455 -0.9180 -2.2553  0.1393
  141OSM    H7G15395   3.903   4.388   3.470 -2.4925  1.3861 -1.6661
  141OSM    C8F15396   3.881   4.197   3.564 -0.0975 -0.0800  0.1443
  141OSM    H8F15397   3.990   4.179   3.569 -0.2748 -0.9341  2.0141
  141OSM    H8G15398   3.839   4.101   3.527  3.4884 -1.0947 -1.7836
  141OSM    C9F15399   3.820   4.246   3.697 -0.3211  0.5530 -1.3553
  141OSM    H9F15400   3.783   4.349   3.694 -0.2048  0.6141 -0.7808
  141OSM   C10F15401   3.814   4.166   3.803  0.3518  0.1649 -0.0098
  141OSM   H10F15402   3.778   4.207   3.899  0.5251 -0.5099  0.3499
  141OSM   C11F15403   3.872   4.032   3.818  0.4021  0.8331 -0.6907
  141OSM   H11F15404   3.955   4.018   3.746 -0.6573  0.9167 -1.9743
  141OSM   H11G15405   3.792   3.955   3.811  1.2861 -0.1094 -0.5154
  141OSM   C12F15406   3.928   4.004   3.963 -0.2852 -0.5209 -0.1786
  141OSM   H12F15407   4.008   4.071   4.000 -1.2285  2.1587 -2.5961
  141OSM   H12G15408   3.974   3.905   3.939  2.0414  0.8847 -1.8722
  141OSM   C13F15409   3.820   3.984   4.071 -0.6359  0.3560  0.0837
  141OSM   H13F15410   3.743   3.909   4.044 -1.3123 -0.4446  3.7823
  141OSM   H13G15411   3.777   4.086   4.081  0.3916  0.9939 -1.5876
  141OSM   C14F15412   3.880   3.927   4.206  0.5937  0.0372 -0.1847
  141OSM   H14F15413   3.965   3.992   4.238  0.0431  0.6209  0.1252
  141OSM   H14G15414   3.922   3.826   4.186 -0.9935 -1.0230  1.4844
  141OSM   C15F15415   3.782   3.888   4.317 -0.3112  0.2267 -0.2606
  141OSM   H15F15416   3.697   3.845   4.260  0.6775 -2.4545  0.1378
  141OSM   H15G15417   3.746   3.975   4.376 -0.5222  0.4840 -0.7593
  141OSM   C16F15418   3.834   3.796   4.425 -0.4607 -0.0241 -0.2517
  141OSM   H16F15419   3.866   3.703   4.373 -1.4352 -0.9199  0.6979
  141OSM   H16G15420   3.747   3.772   4.490 -1.9762  1.1339 -1.7470
  141OSM   C17F15421   3.949   3.860   4.508 -0.4745  0.1639 -0.3869
  141OSM   H17F15422   3.919   3.955   4.557 -0.3340  1.5131 -2.7493
  141OSM   H17G15423   4.038   3.894   4.450  1.6815 -0.1473  2.5270
  141OSM   C18F15424   3.998   3.771   4.629  0.3841 -0.7202  0.1144
  141OSM   H18F15425   4.048   3.680   4.588  1.7348 -0.2998  0.7985
  141OSM   H18G15426   3.908   3.741   4.686  0.5081 -0.8659  0.2347
  141OSM   H18H15427   4.072   3.833   4.683 -1.7380  1.4723  0.6957
  142OSM      N15428   6.009   4.483   2.450  0.3394  0.0962  0.6021
  142OSM    C1515429   5.893   4.398   2.415 -0.1736 -0.0246 -0.0293
  142OSM   H15A15430   5.824   4.391   2.498 -1.2514 -0.2650 -0.9306
  142OSM   H15B15431   5.924   4.297   2.394  1.0879  0.3082  0.1705
  142OSM   H15C15432   5.846   4.452   2.334 -1.2042 -0.8521 -0.0110
  142OSM    C1415433   6.098   4.466   2.334  0.1056  0.4136 -0.5268
  142OSM   H14A15434   6.055   4.510   2.245 -0.3914  1.2342  0.1008
  142OSM   H14B15435   6.110   4.360   2.317  1.4175  0.2489  1.2074
  142OSM   H14C15436   6.196   4.511   2.342  0.2027 -0.0289  0.9447
  142OSM    C1315437   5.979   4.622   2.476  0.2554  0.0871  0.1824
  142OSM   H13A15438   6.077   4.661   2.497  0.8125 -0.4472 -1.3483
  142OSM   H13B15439   5.924   4.641   2.568  0.9310  1.7163  0.2887
  142OSM   H13C15440   5.944   4.671   2.386 -0.4605 -3.4910 -1.6600
  142OSM    C1215441   6.099   4.423   2.562 -0.3432 -0.1050  0.5610
  142OSM   H12A15442   6.200   4.459   2.550 -0.8515  1.8768  1.7402
  142OSM   H12B15443   6.110   4.316   2.557  0.7893  0.0132  0.2266
  142OSM    C1115444   6.049   4.439   2.704 -0.3774 -0.6319  0.9964
  142OSM   H11A15445   6.055   4.540   2.751  0.9041 -0.0266 -0.3539
  142OSM   H11B15446   6.119   4.385   2.771 -0.6163 -1.7673  0.3595
  142OSM      P15447   5.892   4.257   2.804  0.7372 -0.4990 -0.1511
  142OSM    O1315448   5.749   4.221   2.811  0.3976  0.0943 -0.8268
  142OSM    O1415449   5.987   4.153   2.760  0.4977 -0.2787 -0.1286
  142OSM    O1115450   5.941   4.306   2.939 -0.3623  0.1022 -0.0933
  142OSM    O1215451   5.912   4.385   2.712 -0.0108 -0.2983  0.3299
  142OSM    C1S15452   5.876   4.409   3.012  0.4104 -0.5002  0.8787
  142OSM    H1S15453   5.770   4.421   2.982  0.0209 -0.8164  2.0717
  142OSM    H1T15454   5.932   4.504   2.999 -0.7378 -0.0713 -1.6927
  142OSM     NF15455   5.818   4.486   3.230 -0.0394 -0.3619 -0.0562
  142OSM    HNF15456   5.881   4.545   3.279 -0.1881  0.7351 -1.1400
  142OSM    C2S15457   5.867   4.367   3.160 -0.0891  0.2283  0.3102
  142OSM    H2S15458   5.793   4.288   3.186 -1.7649  2.2177  2.0011
  142OSM    C3S15459   6.014   4.317   3.211  0.0634 -0.3907 -0.4524
  142OSM    H3S15460   6.085   4.371   3.146  0.0963 -1.2052 -1.1070
  142OSM     O315461   6.034   4.175   3.186  0.0032 -0.2712  0.0225
  142OSM    HO315462   6.000   4.174   3.096  0.5516 -1.8725 -0.2101
  142OSM    C4S15463   6.028   4.336   3.362 -0.1768  0.3016 -0.3032
  142OSM    H4S15464   6.116   4.396   3.390 -0.5636  0.6623  0.1263
  142OSM    C5S15465   5.940   4.301   3.456  0.6813 -0.7467  0.1595
  142OSM    H5S15466   5.848   4.254   3.418 -0.8162  1.8650  0.2603
  142OSM    C6S15467   5.956   4.339   3.603  0.4310 -0.2029  0.5948
  142OSM    H6S15468   6.052   4.395   3.615  0.1531  0.9516 -1.8820
  142OSM    H6T15469   5.959   4.248   3.667 -1.1364 -0.1551  0.7539
  142OSM    C7S15470   5.844   4.431   3.667 -0.4202  0.0036  0.9470
  142OSM    H7S15471   5.745   4.381   3.655  0.1518 -0.7517 -1.2012
  142OSM    H7T15472   5.833   4.527   3.613 -1.8551 -0.2297  0.7639
  142OSM    C8S15473   5.856   4.466   3.817  0.2167  0.2617  0.8665
  142OSM    H8S15474   5.765   4.529   3.824 -1.0450 -0.7530 -3.1941
  142OSM    H8T15475   5.948   4.529   3.823  1.3608 -1.2252 -0.1256
  142OSM    C9S15476   5.854   4.342   3.909  0.1740 -0.4036 -0.4886
  142OSM    H9S15477   5.936   4.273   3.882  0.6492 -0.6630  1.4780
  142OSM    H9T15478   5.754   4.295   3.896 -0.3283 -0.0455  1.7193
  142OSM   C10S15479   5.881   4.378   4.050 -0.6890 -0.6337 -0.4882
  142OSM   H10S15480   5.984   4.416   4.061 -1.1609  0.0947  2.1240
  142OSM   H10T15481   5.873   4.295   4.123  0.3060  0.4079  0.8514
  142OSM   C11S15482   5.779   4.485   4.103  0.0080  0.1834 -0.0532
  142OSM   H11S15483   5.686   4.436   4.068 -0.0388 -0.7498  1.2941
  142OSM   H11T15484   5.802   4.584   4.057 -0.5284  0.1720 -0.3557
  142OSM   C12S15485   5.769   4.492   4.257 -0.6468 -0.2979 -0.1195
  142OSM   H12S15486   5.871   4.508   4.300  0.2223 -0.8781 -1.8374
  142OSM   H12T15487   5.733   4.390   4.283  1.7294 -1.5697 -1.3898
  142OSM   C13S15488   5.657   4.578   4.309 -0.9462 -0.0956 -0.4003
  142OSM   H13S15489   5.562   4.537   4.269 -2.2006 -0.8396  2.9802
  142OSM   H13T15490   5.663   4.682   4.270 -0.0234  0.2918  0.7218
  142OSM   C14S15491   5.646   4.574   4.463  0.5448  1.1113  0.9361
  142OSM   H14S15492   5.581   4.658   4.492 -1.0494  0.3957 -0.3886
  142OSM   H14T15493   5.739   4.614   4.508  1.0012  1.2361 -0.0689
  142OSM   C15S15494   5.595   4.435   4.515 -0.3053  0.0436 -0.4141
  142OSM   H15S15495   5.661   4.358   4.470 -1.4632  0.4006 -2.8944
  142OSM   H15T15496   5.493   4.426   4.472 -0.6015  1.7248 -0.1247
  142OSM   C16S15497   5.595   4.416   4.664  0.6304 -0.7502 -0.2579
  142OSM   H16S15498   5.695   4.450   4.701  1.1089 -1.4595 -0.8618
  142OSM   H16T15499   5.576   4.313   4.701 -2.4607  0.0361  0.6128
  142OSM   C17S15500   5.492   4.512   4.725  0.4755 -0.2060 -0.7127
  142OSM   H17S15501   5.400   4.501   4.663  0.2152  0.8741 -0.5303
  142OSM   H17T15502   5.503   4.618   4.694 -0.9767 -0.1375 -1.0978
  142OSM   C18S15503   5.462   4.501   4.874 -0.4694 -0.0057 -0.5688
  142OSM   H18S15504   5.397   4.414   4.898  0.2771  0.1718  2.5710
  142OSM   H18T15505   5.402   4.589   4.906  0.0154 -0.8919  3.2630
  142OSM   H18U15506   5.554   4.489   4.936 -1.1803 -2.4360  0.1269
  142OSM    C1F15507   5.693   4.525   3.224  0.1301  0.0652 -0.1651
  142OSM     OF15508   5.601   4.451   3.190  0.5274 -0.7225  0.0621
  142OSM    C2F15509   5.664   4.673   3.242 -0.1330  0.0235 -0.2894
  142OSM    H2F15510   5.645   4.718   3.141 -2.1927  0.8993  0.4268
  142OSM    H2G15511   5.759   4.712   3.283 -0.4732 -0.2494  0.7695
  142OSM    C3F15512   5.547   4.701   3.338  0.3406  0.4729 -0.9606
  142OSM    H3F15513   5.459   4.640   3.308  0.4048 -0.0451 -0.1034
  142OSM    H3G15514   5.508   4.804   3.347  0.9253  0.5195  2.3558
  142OSM    C4F15515   5.577   4.659   3.492  0.2392  0.4801  0.5757
  142OSM    H4F15516   5.636   4.565   3.493  0.2878  0.4979 -0.0963
  142OSM    H4G15517   5.476   4.644   3.536  0.5699  1.6503  1.7683
  142OSM    C5F15518   5.653   4.763   3.574  0.3391 -0.0810 -0.3823
  142OSM    H5F15519   5.732   4.810   3.513  1.0093 -0.5485  0.1126
  142OSM    H5G15520   5.690   4.707   3.663  0.6892 -2.8334 -2.1504
  142OSM    C6F15521   5.552   4.877   3.619 -0.1754 -0.1974 -0.6812
  142OSM    H6F15522   5.481   4.877   3.534 -0.1407  0.4424 -0.7165
  142OSM    H6G15523   5.595   4.979   3.628  0.1374 -0.5278  2.9591
  142OSM    C7F15524   5.465   4.853   3.742  0.3634  0.0953 -0.1658
  142OSM    H7F15525   5.424   4.750   3.747 -0.3629  0.3233 -1.1687
  142OSM    H7G15526   5.387   4.932   3.744  2.1924  1.9803 -0.0548
  142OSM    C8F15527   5.556   4.878   3.863 -0.8841 -1.3969 -0.5797
  142OSM    H8F15528   5.566   4.987   3.876  0.4061 -1.6090  0.4716
  142OSM    H8G15529   5.660   4.841   3.851  0.1785 -0.3849  3.7651
  142OSM    C9F15530   5.510   4.798   3.982 -0.0185 -0.5795  0.4611
  142OSM    H9F15531   5.466   4.703   3.949 -2.0749 -0.0235  1.4170
  142OSM   C10F15532   5.501   4.843   4.110  0.6956 -0.0995 -0.3396
  142OSM   H10F15533   5.489   4.774   4.195 -0.5384  0.6574  0.1252
  142OSM   C11F15534   5.551   4.983   4.161  0.7764 -0.0531 -0.2166
  142OSM   H11F15535   5.581   5.053   4.080  3.2769 -0.9076 -0.1182
  142OSM   H11G15536   5.642   4.969   4.223 -0.5971  1.0199  2.2238
  142OSM   C12F15537   5.446   5.065   4.231 -0.4136 -0.2554 -0.1308
  142OSM   H12F15538   5.355   5.003   4.244 -0.4740  0.0174  0.8865
  142OSM   H12G15539   5.409   5.147   4.166  2.4233  0.2665 -1.2419
  142OSM   C13F15540   5.478   5.113   4.373 -0.0932 -0.1678  0.3050
  142OSM   H13F15541   5.397   5.165   4.429  1.5962 -0.0527  2.8413
  142OSM   H13G15542   5.573   5.171   4.373 -0.6855  0.8476 -1.0503
  142OSM   C14F15543   5.509   4.992   4.468 -0.2828  0.5643  0.4053
  142OSM   H14F15544   5.592   4.924   4.438 -0.2969  1.1337 -0.9992
  142OSM   H14G15545   5.413   4.936   4.463  0.2872 -0.3306 -1.8658
  142OSM   C15F15546   5.525   5.028   4.613  0.9578 -0.6461  0.3022
  142OSM   H15F15547   5.442   5.096   4.643  1.8461  0.9477 -0.7380
  142OSM   H15G15548   5.621   5.082   4.626 -0.9992  3.4029 -0.5616
  142OSM   C16F15549   5.533   4.901   4.694  0.0918 -0.0765 -1.1267
  142OSM   H16F15550   5.593   4.821   4.646 -0.4048 -1.3123  0.2595
  142OSM   H16G15551   5.433   4.854   4.705 -0.2337  1.1249  2.1377
  142OSM   C17F15552   5.589   4.934   4.835  0.3283  0.6168 -0.1656
  142OSM   H17F15553   5.514   4.977   4.904  2.8034  0.7749  2.6320
  142OSM   H17G15554   5.671   5.009   4.827  0.6153  0.1942 -1.4463
  142OSM   C18F15555   5.649   4.821   4.921 -0.1381  0.8411  0.3143
  142OSM   H18F15556   5.728   4.847   4.994 -0.1009  0.6742  0.3323
  142OSM   H18G15557   5.688   4.743   4.853 -1.5056  0.2770  0.1419
  142OSM   H18H15558   5.577   4.761   4.981 -0.1293 -0.1587 -0.6418
  143OSM      N15559   4.929   5.183   2.531 -0.0886  0.0577 -0.1057
  143OSM    C1515560   5.007   5.109   2.431 -0.4964  0.2113  0.5127
  143OSM   H15A15561   5.100   5.156   2.403  0.1737 -1.5092 -0.2892
  143OSM   H15B15562   4.959   5.096   2.336  1.8669 -0.7547 -0.6266
  143OSM   H15C15563   5.030   5.008   2.462  0.2366  0.9331  2.5074
  143OSM    C1415564   4.906   5.322   2.482  0.1568 -0.2375  0.1898
  143OSM   H14A15565   4.851   5.341   2.392  0.3218 -1.2582 -0.1411
  143OSM   H14B15566   4.993   5.386   2.474 -1.2923  1.9327  1.0330
  143OSM   H14C15567   4.849   5.368   2.562  0.4766 -0.7096  0.7013
  143OSM    C1315568   4.794   5.117   2.565 -0.2842  0.0710  1.5565
  143OSM   H13A15569   4.825   5.021   2.603 -3.0218 -1.5747 -0.0752
  143OSM   H13B15570   4.753   5.082   2.472 -1.5089 -0.8832  2.4266
  143OSM   H13C15571   4.731   5.183   2.623 -0.8120  2.6940 -1.7175
  143OSM    C1215572   5.004   5.196   2.664  0.1206 -0.0407 -0.4294
  143OSM   H12A15573   5.094   5.254   2.653  0.2671 -0.3995 -1.1842
  143OSM   H12B15574   5.043   5.099   2.692  0.7522 -0.3020 -2.1152
  143OSM    C1115575   4.925   5.254   2.786  0.1110 -0.3647 -0.8349
  143OSM   H11A15576   4.991   5.230   2.873  1.4023  1.3879 -1.2499
  143OSM   H11B15577   4.835   5.191   2.796 -0.7931  1.1761  2.0747
  143OSM      P15578   4.780   5.463   2.844 -0.4256  0.0442  0.2966
  143OSM    O1315579   4.773   5.599   2.788  0.2442  0.6324 -0.0616
  143OSM    O1415580   4.663   5.381   2.819 -0.0869  0.2345  0.7445
  143OSM    O1115581   4.801   5.471   2.997  0.0292  0.8183  0.1250
  143OSM    O1215582   4.912   5.397   2.770  0.2821 -0.0189 -0.1489
  143OSM    C1S15583   4.714   5.543   3.089  0.1687  0.6088  0.1488
  143OSM    H1S15584   4.626   5.580   3.033  0.4616  1.5377  0.2743
  143OSM    H1T15585   4.771   5.627   3.135  1.6820 -1.3102  1.9408
  143OSM     NF15586   4.557   5.522   3.276  0.5366  0.2162  0.0149
  143OSM    HNF15587   4.593   5.548   3.365  1.2924 -0.6662 -0.0073
  143OSM    C2S15588   4.657   5.450   3.200 -0.2693 -0.2899  0.7195
  143OSM    H2S15589   4.610   5.361   3.153 -0.2106 -0.4865  1.0319
  143OSM    C3S15590   4.777   5.397   3.282  0.0883  0.0686  0.0965
  143OSM    H3S15591   4.843   5.482   3.309 -0.4227  1.3895 -2.4662
  143OSM     O315592   4.852   5.301   3.202  0.0701  0.3276 -1.0995
  143OSM    HO315593   4.828   5.319   3.111 -1.0183  0.7100 -0.7472
  143OSM    C4S15594   4.723   5.325   3.400 -0.5427  0.5303 -0.5478
  143OSM    H4S15595   4.754   5.378   3.492  1.9489 -0.9277 -0.4358
  143OSM    C5S15596   4.657   5.214   3.410  0.0468  0.7505 -0.2300
  143OSM    H5S15597   4.631   5.166   3.314  0.9911  0.0839 -0.1681
  143OSM    C6S15598   4.606   5.144   3.537  0.0727  0.5607  0.4321
  143OSM    H6S15599   4.646   5.040   3.535 -1.2463 -0.0082 -2.9617
  143OSM    H6T15600   4.498   5.125   3.523 -0.2921  2.4880  0.3883
  143OSM    C7S15601   4.616   5.202   3.681 -1.3979 -0.5299  0.0927
  143OSM    H7S15602   4.559   5.297   3.671 -1.9731 -0.9832 -1.2360
  143OSM    H7T15603   4.721   5.228   3.706 -0.8817 -0.0469 -2.3337
  143OSM    C8S15604   4.545   5.118   3.786 -0.0391 -0.5009 -0.0156
  143OSM    H8S15605   4.613   5.032   3.800  1.6033  0.9112  1.1253
  143OSM    H8T15606   4.443   5.088   3.752 -1.2090 -0.8176  3.3993
  143OSM    C9S15607   4.530   5.199   3.914 -0.0294 -0.2541  0.1268
  143OSM    H9S15608   4.452   5.277   3.906 -0.2505 -0.5003 -0.1346
  143OSM    H9T15609   4.620   5.260   3.938 -1.6343  0.8717  4.0173
  143OSM   C10S15610   4.513   5.109   4.040  0.8125  0.1464 -0.7014
  143OSM   H10S15611   4.609   5.056   4.060  0.1305 -0.7028  0.3639
  143OSM   H10T15612   4.438   5.031   4.016  0.2057 -0.5323  2.9056
  143OSM   C11S15613   4.472   5.172   4.172  0.0827 -0.8585  0.0213
  143OSM   H11S15614   4.374   5.224   4.158  0.4462 -0.5781 -1.6846
  143OSM   H11T15615   4.535   5.258   4.205 -0.8264  0.8249 -2.3195
  143OSM   C12S15616   4.446   5.072   4.287  0.1901 -0.1613  0.1136
  143OSM   H12S15617   4.539   5.034   4.335  0.2645  1.1188  1.0155
  143OSM   H12T15618   4.380   4.991   4.250 -1.5724  1.9915 -1.6548
  143OSM   C13S15619   4.357   5.133   4.394 -0.1140  0.3954 -0.2761
  143OSM   H13S15620   4.254   5.143   4.356 -0.0794  1.5384 -0.1046
  143OSM   H13T15621   4.384   5.238   4.418 -2.8377  1.7771 -2.6813
  143OSM   C14S15622   4.343   5.041   4.523  0.0445  0.2897 -0.0197
  143OSM   H14S15623   4.444   5.019   4.563  0.0223 -1.2196 -0.7111
  143OSM   H14T15624   4.306   4.945   4.482 -2.5877  1.7361 -1.3490
  143OSM   C15S15625   4.242   5.083   4.628  0.6025  0.1143 -0.2823
  143OSM   H15S15626   4.145   5.101   4.576 -0.2815  1.1166  1.6239
  143OSM   H15T15627   4.275   5.178   4.675 -0.9984 -0.5694  2.4284
  143OSM   C16S15628   4.225   4.979   4.736  0.4312  0.1336 -1.0187
  143OSM   H16S15629   4.325   4.947   4.771  1.3334  2.8818 -0.9260
  143OSM   H16T15630   4.174   4.886   4.703  1.6524 -0.6584 -0.7448
  143OSM   C17S15631   4.155   5.035   4.859  0.5122 -0.0931 -0.0182
  143OSM   H17S15632   4.061   5.088   4.833  1.7977  2.3683 -0.0004
  143OSM   H17T15633   4.214   5.125   4.887 -0.7541  1.2632 -1.5363
  143OSM   C18S15634   4.139   4.929   4.975 -0.1604 -0.3337  0.4007
  143OSM   H18S15635   4.074   4.845   4.942 -2.8690  1.7263  0.0489
  143OSM   H18T15636   4.080   4.970   5.060 -2.0303 -1.4375 -0.2873
  143OSM   H18U15637   4.239   4.893   5.007  0.0853  0.3497  0.4274
  143OSM    C1F15638   4.438   5.557   3.233  0.7531  0.0076 -0.5339
  143OSM     OF15639   4.384   5.524   3.129 -0.5299  0.1204  0.2183
  143OSM    C2F15640   4.365   5.643   3.328  0.3186  0.3725  0.2058
  143OSM    H2F15641   4.419   5.740   3.342  2.6092 -0.8712  0.5378
  143OSM    H2G15642   4.374   5.586   3.423  0.5781 -1.0466 -0.6523
  143OSM    C3F15643   4.212   5.653   3.293 -0.4111  0.1794 -0.6876
  143OSM    H3F15644   4.179   5.556   3.251  1.1175  0.0764 -1.7594
  143OSM    H3G15645   4.204   5.710   3.197 -1.3388 -1.3536 -1.5704
  143OSM    C4F15646   4.141   5.726   3.402 -0.0772  0.3946  0.4146
  143OSM    H4F15647   4.184   5.827   3.419  0.3499  0.0667  1.3741
  143OSM    H4G15648   4.153   5.662   3.492 -0.7849 -1.5138 -0.8066
  143OSM    C5F15649   3.993   5.728   3.368 -0.4942 -0.4028  0.1688
  143OSM    H5F15650   3.965   5.627   3.332  1.3906 -1.0258  0.3310
  143OSM    H5G15651   3.980   5.805   3.289 -1.2197 -0.1534  0.5259
  143OSM    C6F15652   3.899   5.755   3.492  0.4417 -0.0895 -0.2383
  143OSM    H6F15653   3.914   5.671   3.563  0.4476  0.5871  0.5761
  143OSM    H6G15654   3.791   5.756   3.467 -0.2447 -1.5145  2.3720
  143OSM    C7F15655   3.934   5.879   3.574 -0.5695 -0.3112  0.0966
  143OSM    H7F15656   3.937   5.968   3.507  3.1547  0.0715  0.5975
  143OSM    H7G15657   4.038   5.852   3.599  0.7379  0.1315 -4.1306
  143OSM    C8F15658   3.843   5.892   3.694 -0.8726 -0.3733  0.4078
  143OSM    H8F15659   3.856   5.801   3.757 -1.3935 -0.6474  0.1324
  143OSM    H8G15660   3.740   5.888   3.653  0.3809 -1.9242 -2.9143
  143OSM    C9F15661   3.861   6.008   3.795  0.1557 -0.5410  0.3174
  143OSM    H9F15662   3.832   6.106   3.755  0.2544 -1.0389 -1.0231
  143OSM   C10F15663   3.915   5.997   3.923 -1.0406 -0.0104  0.1332
  143OSM   H10F15664   3.927   6.087   3.986  1.2817 -0.1189 -0.0653
  143OSM   C11F15665   3.965   5.870   3.995 -0.1482 -0.3993 -0.1881
  143OSM   H11F15666   4.076   5.863   3.987 -0.2023  0.0579 -1.5537
  143OSM   H11G15667   3.923   5.776   3.952  1.6905 -1.1528 -0.4185
  143OSM   C12F15668   3.914   5.862   4.145 -0.4422  0.1379 -0.8380
  143OSM   H12F15669   3.932   5.756   4.172 -0.2329  0.2426 -0.5595
  143OSM   H12G15670   3.810   5.898   4.155 -1.1937 -2.1090 -0.0346
  143OSM   C13F15671   3.997   5.947   4.244 -0.1489  0.1715  0.4573
  143OSM   H13F15672   3.986   6.050   4.203  0.5287  0.5427  1.1821
  143OSM   H13G15673   4.102   5.913   4.230  0.6055  2.3594  0.4554
  143OSM   C14F15674   3.937   5.930   4.385 -0.2046 -0.3440 -0.2421
  143OSM   H14F15675   3.973   5.835   4.429  0.5608  0.1041  0.1042
  143OSM   H14G15676   3.826   5.929   4.372 -0.2447 -1.5445  0.0136
  143OSM   C15F15677   3.983   6.043   4.481  0.2071  0.9426 -0.4085
  143OSM   H15F15678   3.974   6.143   4.435  0.9163  1.0042 -0.4303
  143OSM   H15G15679   4.090   6.018   4.500  0.1655  0.3925 -0.8692
  143OSM   C16F15680   3.908   6.034   4.616  0.1389 -0.5470 -0.0356
  143OSM   H16F15681   3.934   5.937   4.663 -2.7581 -2.0406 -1.2518
  143OSM   H16G15682   3.801   6.016   4.592  0.2720 -2.0583  0.3757
  143OSM   C17F15683   3.951   6.148   4.712 -0.2836 -0.6522  0.4384
  143OSM   H17F15684   3.962   6.237   4.647  1.2463 -1.0489  0.1019
  143OSM   H17G15685   4.052   6.134   4.757 -1.1680  2.3231  3.7512
  143OSM   C18F15686   3.856   6.159   4.827 -1.2811 -0.0571  0.0136
  143OSM   H18F15687   3.922   6.207   4.902  1.0099  0.1180 -1.9799
  143OSM   H18G15688   3.830   6.059   4.868  1.5808  0.1366  2.6324
  143OSM   H18H15689   3.768   6.220   4.799 -0.5773  0.5365 -0.9958
  144OSM      N15690   4.309   5.686   2.773  0.3528 -0.1393 -0.8719
  144OSM    C1515691   4.159   5.674   2.734  0.3102 -0.0814  0.2175
  144OSM   H15A15692   4.103   5.641   2.820  0.2286  1.8416  0.9440
  144OSM   H15B15693   4.145   5.614   2.645 -0.2941 -0.5420  0.6152
  144OSM   H15C15694   4.116   5.772   2.715  1.4698  0.2350 -0.8882
  144OSM    C1415695   4.375   5.546   2.780 -0.2301 -0.0779  0.0102
  144OSM   H14A15696   4.348   5.493   2.871  1.1986  0.7008  0.9171
  144OSM   H14B15697   4.482   5.555   2.793 -0.1312  1.8204 -1.5952
  144OSM   H14C15698   4.352   5.500   2.685 -3.4160  1.2077  0.0291
  144OSM    C1315699   4.386   5.770   2.674  0.0553  0.5548 -0.0376
  144OSM   H13A15700   4.488   5.784   2.709 -0.2423 -2.3730  2.4167
  144OSM   H13B15701   4.320   5.855   2.674 -0.6609  0.0228 -1.5152
  144OSM   H13C15702   4.385   5.733   2.573 -1.2333  3.0720 -1.0274
  144OSM    C1215703   4.314   5.746   2.912 -0.5076 -0.0987  0.2750
  144OSM   H12A15704   4.417   5.750   2.944 -0.5708  1.1498  0.3554
  144OSM   H12B15705   4.267   5.677   2.980  0.1318 -2.3380 -1.4190
  144OSM    C1115706   4.261   5.895   2.917  0.0628  0.6156 -0.0979
  144OSM   H11A15707   4.326   5.958   2.853 -1.0635  2.0990  0.1492
  144OSM   H11B15708   4.263   5.931   3.023  0.6686 -0.8795  0.4147
  144OSM      P15709   4.074   6.035   2.788 -0.3367 -0.3182 -0.0639
  144OSM    O1315710   4.164   6.048   2.673 -0.6271 -1.2567 -0.0914
  144OSM    O1415711   3.934   6.016   2.750  0.8477 -0.8438  0.3328
  144OSM    O1115712   4.084   6.168   2.885  0.5536  0.3633 -0.0229
  144OSM    O1215713   4.123   5.910   2.874 -0.5405  0.0253  0.1197
  144OSM    C1S15714   4.000   6.187   2.994  0.7535 -0.0982  0.4339
  144OSM    H1S15715   3.901   6.137   2.983 -0.3768  2.3972 -1.9385
  144OSM    H1T15716   3.952   6.288   3.004  1.6087  0.5338 -1.4458
  144OSM     NF15717   3.954   6.142   3.232 -0.0776 -0.0090 -0.1501
  144OSM    HNF15718   3.939   6.220   3.293  1.8624  0.0930  0.2404
  144OSM    C2S15719   4.061   6.150   3.141 -0.2725  0.3699 -0.2445
  144OSM    H2S15720   4.108   6.049   3.138  0.6056  0.7701 -0.6708
  144OSM    C3S15721   4.174   6.249   3.164  0.2600 -1.0627  0.0974
  144OSM    H3S15722   4.145   6.356   3.157  2.3787 -0.4995 -0.9453
  144OSM     O315723   4.268   6.257   3.061 -0.0326 -0.4650 -0.0337
  144OSM    HO315724   4.239   6.196   2.992  0.8107  0.8124 -1.5902
  144OSM    C4S15725   4.238   6.230   3.300  0.6078 -0.2595 -0.2392
  144OSM    H4S15726   4.193   6.286   3.383 -1.9587 -0.2333 -1.5467
  144OSM    C5S15727   4.333   6.144   3.326  0.1296  0.0254 -0.0497
  144OSM    H5S15728   4.373   6.073   3.251 -0.3769 -0.5987  0.2626
  144OSM    C6S15729   4.403   6.156   3.464 -0.0532 -0.8322  0.1958
  144OSM    H6S15730   4.435   6.262   3.469 -1.0987 -0.5309  0.6260
  144OSM    H6T15731   4.497   6.097   3.473  0.7870  0.5253  0.5391
  144OSM    C7S15732   4.302   6.124   3.577  0.6233 -0.2112  0.6254
  144OSM    H7S15733   4.266   6.019   3.569 -0.1092  0.1402 -1.2316
  144OSM    H7T15734   4.211   6.186   3.563  0.0590 -0.6016  2.3604
  144OSM    C8S15735   4.367   6.152   3.708 -0.2259 -0.3953  0.8059
  144OSM    H8S15736   4.424   6.248   3.703  2.4700 -1.8158  1.9621
  144OSM    H8T15737   4.454   6.083   3.713  2.0147  2.2732  0.7161
  144OSM    C9S15738   4.280   6.145   3.827 -0.0985  0.1647 -0.5794
  144OSM    H9S15739   4.236   6.043   3.823 -1.4540  0.5954  1.7485
  144OSM    H9T15740   4.198   6.219   3.838 -0.4352 -0.0437 -1.5263
  144OSM   C10S15741   4.355   6.162   3.959  0.6036  0.3163  0.2833
  144OSM   H10S15742   4.364   6.270   3.983 -2.5011  0.6902  0.1583
  144OSM   H10T15743   4.445   6.097   3.956 -0.5509 -1.3968  0.8061
  144OSM   C11S15744   4.261   6.131   4.082  0.0297  0.1705 -0.1451
  144OSM   H11S15745   4.233   6.024   4.085 -3.0348  0.8383 -1.4757
  144OSM   H11T15746   4.171   6.196   4.087 -0.3673 -0.2738 -1.2838
  144OSM   C12S15747   4.331   6.129   4.221 -0.7535  0.3281 -0.1356
  144OSM   H12S15748   4.431   6.080   4.226 -0.5643  0.7025 -0.2434
  144OSM   H12T15749   4.270   6.070   4.293  1.5441 -3.4051 -0.9580
  144OSM   C13S15750   4.337   6.272   4.273 -0.1789  1.2116 -0.3834
  144OSM   H13S15751   4.249   6.326   4.232 -2.0477 -1.2997  0.0862
  144OSM   H13T15752   4.435   6.314   4.240  0.0167  0.3680 -0.8933
  144OSM   C14S15753   4.329   6.288   4.430  0.6763  0.1830  0.4871
  144OSM   H14S15754   4.417   6.227   4.462  0.9599 -0.8405 -2.0513
  144OSM   H14T15755   4.233   6.254   4.475  0.9489  0.7417  1.5407
  144OSM   C15S15756   4.351   6.424   4.489 -0.1803 -0.1323  0.1470
  144OSM   H15S15757   4.399   6.488   4.412  1.4162  1.3278  2.2567
  144OSM   H15T15758   4.432   6.419   4.565  0.5232  0.0536 -0.5798
  144OSM   C16S15759   4.238   6.507   4.550  0.3104 -0.5482  0.5450
  144OSM   H16S15760   4.166   6.535   4.470  1.9462  1.1493 -0.4019
  144OSM   H16T15761   4.280   6.607   4.577 -1.7205  0.7634 -0.8304
  144OSM   C17S15762   4.190   6.440   4.677  0.0868  0.4991  0.1371
  144OSM   H17S15763   4.283   6.418   4.735  0.5404  0.4507 -0.5965
  144OSM   H17T15764   4.142   6.345   4.647 -0.2505  1.1519 -1.4723
  144OSM   C18S15765   4.095   6.508   4.768 -0.2861 -0.2613 -0.4690
  144OSM   H18S15766   4.139   6.604   4.804 -2.1247  1.0060 -1.3976
  144OSM   H18T15767   4.081   6.439   4.853  1.1264 -1.3441 -1.0888
  144OSM   H18U15768   3.996   6.530   4.722 -0.8540  2.1055  1.6543
  144OSM    C1F15769   3.864   6.044   3.221  0.8691  0.3684  0.4887
  144OSM     OF15770   3.888   5.952   3.142 -0.5411  0.0042 -0.8302
  144OSM    C2F15771   3.730   6.054   3.291  0.3798  0.2930 -0.3945
  144OSM    H2F15772   3.717   5.952   3.333 -0.4556 -0.9410 -3.3360
  144OSM    H2G15773   3.649   6.055   3.214  1.7809 -0.9979 -1.9576
  144OSM    C3F15774   3.713   6.171   3.398 -1.0895  0.7052  0.9415
  144OSM    H3F15775   3.684   6.268   3.352  0.5245  1.7661  2.0704
  144OSM    H3G15776   3.813   6.193   3.440 -0.0727 -0.8739 -0.5342
  144OSM    C4F15777   3.625   6.137   3.514 -0.2745 -0.3830  0.1007
  144OSM    H4F15778   3.661   6.052   3.575  0.9345 -0.0082 -0.0705
  144OSM    H4G15779   3.525   6.114   3.470 -1.5039  3.0025  0.7680
  144OSM    C5F15780   3.620   6.241   3.630  0.3324 -0.5638 -0.3722
  144OSM    H5F15781   3.569   6.335   3.599  1.9198  0.5563  0.3104
  144OSM    H5G15782   3.725   6.267   3.656  0.8138 -1.5767 -1.2596
  144OSM    C6F15783   3.548   6.170   3.754  0.0967 -0.3341 -0.7034
  144OSM    H6F15784   3.601   6.077   3.785 -0.5392 -1.0967 -1.8744
  144OSM    H6G15785   3.451   6.135   3.714 -0.4104  0.9859 -0.6588
  144OSM    C7F15786   3.517   6.265   3.879 -0.1570  0.2639  0.8520
  144OSM    H7F15787   3.447   6.336   3.830 -0.6401  0.4181  1.7522
  144OSM    H7G15788   3.604   6.327   3.912 -0.8418  1.4180  0.5591
  144OSM    C8F15789   3.445   6.190   3.990  0.0263  0.3139  0.4345
  144OSM    H8F15790   3.354   6.139   3.952 -0.3429  0.0224  1.6829
  144OSM    H8G15791   3.409   6.262   4.066  0.5441  0.3155  0.6829
  144OSM    C9F15792   3.524   6.080   4.055 -0.1950 -0.7869 -0.2121
  144OSM    H9F15793   3.563   6.005   3.984  2.2342 -1.4204  1.6491
  144OSM   C10F15794   3.565   6.065   4.187 -0.4880  0.2153  0.2647
  144OSM   H10F15795   3.635   5.983   4.210  1.6100  1.8490  0.0256
  144OSM   C11F15796   3.550   6.160   4.301 -0.5512 -0.2095  0.1052
  144OSM   H11F15797   3.489   6.250   4.280 -0.4548 -0.0735  0.4077
  144OSM   H11G15798   3.651   6.190   4.336  0.1056 -0.9989 -1.0275
  144OSM   C12F15799   3.491   6.095   4.426  0.0525  0.0903 -0.5461
  144OSM   H12F15800   3.548   6.003   4.450 -1.6490 -1.6926 -2.8535
  144OSM   H12G15801   3.389   6.061   4.398 -1.2164  0.8473  2.6992
  144OSM   C13F15802   3.487   6.178   4.553 -0.5779 -0.5645  1.0742
  144OSM   H13F15803   3.408   6.256   4.549 -0.1397 -0.1564 -1.2435
  144OSM   H13G15804   3.585   6.229   4.550 -1.1394  0.5847  1.8937
  144OSM   C14F15805   3.473   6.099   4.682  0.0985 -0.9047 -0.4712
  144OSM   H14F15806   3.560   6.030   4.694 -0.1564 -1.4607 -1.6379
  144OSM   H14G15807   3.377   6.044   4.683 -2.0521  2.5942  1.6597
  144OSM   C15F15808   3.464   6.201   4.801  0.3266 -0.3348  0.4364
  144OSM   H15F15809   3.369   6.258   4.798  1.8683  2.4773  1.4702
  144OSM   H15G15810   3.542   6.279   4.787 -0.5484  0.6209  0.7622
  144OSM   C16F15811   3.475   6.139   4.943 -0.9168  0.5694  0.0507
  144OSM   H16F15812   3.576   6.094   4.930 -0.1257  1.2787  3.0343
  144OSM   H16G15813   3.406   6.053   4.958  1.7186 -1.5104  1.3788
  144OSM   C17F15814   3.465   6.240   5.059  0.0320  0.2427 -0.2379
  144OSM   H17F15815   3.376   6.305   5.053  0.2277  0.6180  0.6650
  144OSM   H17G15816   3.561   6.293   5.074  0.5476 -1.3173  2.8869
  144OSM   C18F15817   3.446   6.151   5.193 -0.5088 -0.1250  0.3213
  144OSM   H18F15818   3.431   6.215   5.282 -0.6781  0.8521 -0.3879
  144OSM   H18G15819   3.541   6.098   5.211  1.5101  2.9866 -0.3336
  144OSM   H18H15820   3.364   6.076   5.188  0.4025 -1.2554  1.8549
  145SAPE     N15821   5.154   2.060   7.183 -0.6295 -0.0506 -0.6169
  145SAPE   HN115822   5.222   2.055   7.104  1.3880 -1.4069  1.0715
  145SAPE   HN215823   5.160   2.152   7.232 -0.4408 -0.9540  1.1265
  145SAPE   HN315824   5.185   1.989   7.253  0.4337 -0.1610 -1.1765
  145SAPE   C1215825   5.008   2.050   7.143 -0.0074  0.3908 -0.2737
  145SAPE  H12A15826   4.978   2.146   7.094 -0.1124  0.3730 -0.2447
  145SAPE  H12B15827   4.951   2.032   7.236 -2.4195 -1.9492 -2.0425
  145SAPE   C1115828   4.993   1.927   7.063  0.6573 -0.6356  0.4672
  145SAPE  H11A15829   5.040   1.953   6.966 -0.4736 -0.1482  0.0315
  145SAPE  H11B15830   4.888   1.919   7.029  0.7159  0.5725 -0.0437
  145SAPE     P15831   4.999   1.722   7.243  0.0479 -0.2704  0.2471
  145SAPE   O1315832   5.095   1.620   7.281  0.0693  0.4503 -0.7106
  145SAPE   O1415833   4.947   1.816   7.348 -0.1282  0.2808 -0.5904
  145SAPE   O1215834   5.057   1.812   7.123  0.6394  0.1497 -0.3340
  145SAPE   O1115835   4.878   1.654   7.164  0.0933 -0.3977 -0.0696
  145SAPE    C115836   4.891   1.573   7.051 -0.2330 -0.6948  0.1101
  145SAPE    HA15837   4.995   1.582   7.012 -0.9577  0.7221 -1.6667
  145SAPE    HB15838   4.883   1.465   7.076  0.0814 -0.6768  0.2964
  145SAPE    C215839   4.787   1.610   6.940 -0.1383 -0.3829 -0.6650
  145SAPE    HS15840   4.781   1.525   6.869  0.7187 -2.5227  1.6491
  145SAPE   O2115841   4.824   1.735   6.882 -0.3839  0.2660  0.4072
  145SAPE   C2115842   4.914   1.721   6.773 -0.0259  1.1035  0.3120
  145SAPE   O2215843   4.970   1.616   6.746 -0.2188 -0.8317 -1.6363
  145SAPE   C2215844   4.928   1.848   6.702  0.4330  0.1390  0.1569
  145SAPE   H2R15845   4.834   1.878   6.650  0.1623 -0.9863 -0.0368
  145SAPE   H2S15846   4.970   1.935   6.757 -0.0393 -0.9427  2.3404
  145SAPE    C315847   4.638   1.626   6.990  0.1762  0.6395 -0.0126
  145SAPE    HX15848   4.628   1.697   7.075 -1.6373  0.9010 -0.4033
  145SAPE    HY15849   4.617   1.525   7.032  2.2860  0.8911  1.8545
  145SAPE   O3115850   4.552   1.645   6.878  0.3633 -0.0028  0.1958
  145SAPE   C3115851   4.531   1.779   6.850  0.1100 -0.5442  0.0077
  145SAPE   O3215852   4.586   1.869   6.908  0.1876 -0.6863 -0.4455
  145SAPE   C3215853   4.433   1.795   6.735  0.5097  0.3360 -0.4242
  145SAPE   H2X15854   4.336   1.804   6.789 -0.8753 -0.6361 -2.5966
  145SAPE   H2Y15855   4.416   1.701   6.678 -3.8064  1.7817 -1.8832
  145SAPE   C2315856   5.033   1.821   6.586  0.5068  0.3149 -0.2715
  145SAPE   H3R15857   4.983   1.753   6.514 -1.7578  0.2231  1.2801
  145SAPE   H3S15858   5.128   1.774   6.620 -0.2094 -0.6579  0.4505
  145SAPE   C2415859   5.070   1.943   6.497  0.0479 -0.1298 -0.7947
  145SAPE   H4R15860   5.150   1.910   6.428  1.5302 -3.0324  2.0472
  145SAPE   H4S15861   5.127   2.005   6.570 -0.7455 -0.0663 -0.2134
  145SAPE   C2515862   4.945   2.010   6.437  0.2808  0.3850 -0.0426
  145SAPE   H5R15863   4.882   2.061   6.511 -0.6731 -1.5148  0.5358
  145SAPE   C2615864   4.904   2.006   6.307  0.0867  0.4736 -0.1202
  145SAPE   H6R15865   4.823   2.076   6.281  2.0685  2.2544 -2.0094
  145SAPE   C2715866   4.963   1.928   6.202 -1.0889 -0.6589  0.2275
  145SAPE   H7R15867   5.031   1.858   6.254  1.3219  1.5972  0.3286
  145SAPE   H7S15868   5.024   2.002   6.146  0.5721  0.8736  3.7233
  145SAPE   C2815869   4.860   1.866   6.112 -0.2670  0.6197  0.1974
  145SAPE   H8R15870   4.788   1.811   6.174  0.3156 -0.9149 -0.4282
  145SAPE   C2915871   4.849   1.870   5.977 -0.4727  0.2084  1.0759
  145SAPE   H9R15872   4.761   1.831   5.924 -0.1409  2.1902 -1.1373
  145SAPE  C21015873   4.949   1.935   5.882 -0.3928 -0.5500  0.0338
  145SAPE  H10R15874   5.005   1.863   5.819  1.5939  0.2665  0.7935
  145SAPE  H10S15875   5.021   1.998   5.939 -0.4162  0.6756 -1.2404
  145SAPE  C21115876   4.875   2.027   5.781 -0.3251 -0.4395 -0.0665
  145SAPE  H11R15877   4.846   2.127   5.816  0.6186  0.0278 -0.5950
  145SAPE  C21215878   4.847   2.008   5.649 -0.8586  0.0596 -0.3432
  145SAPE  H12R15879   4.803   2.091   5.592  0.1462 -0.4503 -1.9283
  145SAPE  C21315880   4.860   1.881   5.568 -0.0009 -0.5846 -0.0651
  145SAPE  H13R15881   4.852   1.797   5.641  1.8643  0.2830  1.1951
  145SAPE  H13S15882   4.960   1.876   5.522  0.0908 -1.6365  0.2089
  145SAPE  C21415883   4.754   1.871   5.468 -0.5820 -0.0590  0.3136
  145SAPE  H14R15884   4.654   1.846   5.505 -0.6991  0.6112  0.4720
  145SAPE  C21515885   4.766   1.905   5.337  0.4693 -0.1415  0.0196
  145SAPE  H15R15886   4.681   1.893   5.269  1.3631  2.9997 -1.8419
  145SAPE  C21615887   4.894   1.939   5.270  0.9911 -0.0951 -0.4038
  145SAPE  H16R15888   4.891   1.883   5.174 -0.4902 -0.7795  0.0252
  145SAPE  H16S15889   4.989   1.910   5.320  0.8018 -1.3008 -0.6981
  145SAPE  C21715890   4.911   2.091   5.242 -0.1416  0.1496  0.0596
  145SAPE  H17R15891   4.935   2.138   5.339 -1.1150 -1.3841  1.0806
  145SAPE  H17S15892   4.821   2.145   5.205 -0.0412 -0.6500 -1.4313
  145SAPE  C21815893   5.014   2.113   5.130  0.4060  0.8357  0.0582
  145SAPE  H18R15894   4.976   2.072   5.034  1.6340 -2.1772  0.7567
  145SAPE  H18S15895   5.105   2.059   5.162  0.2547  1.9866  2.7096
  145SAPE  C21915896   5.053   2.262   5.117  0.7614 -0.1908 -0.2016
  145SAPE  H19R15897   5.103   2.289   5.212 -0.7233  0.6933  0.3609
  145SAPE  H19S15898   4.963   2.326   5.116  0.7270 -0.2227  0.3520
  145SAPE  C22015899   5.133   2.306   4.990 -0.6816  0.0034 -0.0192
  145SAPE  H20R15900   5.225   2.245   4.983 -1.2610 -0.9841  0.7484
  145SAPE  H20S15901   5.171   2.410   4.988  3.1360 -1.2215 -0.1806
  145SAPE  H20T15902   5.073   2.276   4.901 -1.3647 -4.4675  1.6633
  145SAPE   C3315903   4.454   1.910   6.637 -0.3541 -0.2976  0.1880
  145SAPE   H3X15904   4.502   2.002   6.677  1.1538 -1.1855  0.4870
  145SAPE   H3Y15905   4.356   1.938   6.593 -0.9146 -0.6953  1.1692
  145SAPE   C3415906   4.528   1.849   6.512  0.1289  0.4168 -1.0702
  145SAPE   H4X15907   4.497   1.749   6.475  1.4857  0.4220 -2.3298
  145SAPE   H4Y15908   4.631   1.833   6.552  0.8637 -3.8251 -3.9507
  145SAPE   C3515909   4.526   1.945   6.399 -0.2426  0.6188  0.1097
  145SAPE   H5X15910   4.624   1.997   6.394  1.5586 -2.3410  1.7780
  145SAPE   H5Y15911   4.454   2.029   6.409  0.2262  1.1401 -0.7101
  145SAPE   C3615912   4.495   1.884   6.264 -0.7506 -0.5282  0.2355
  145SAPE   H6X15913   4.389   1.851   6.267 -1.1249  0.5186 -0.8152
  145SAPE   H6Y15914   4.570   1.803   6.253 -1.8430 -1.8254  1.8380
  145SAPE   C3715915   4.523   1.988   6.157 -0.3880 -0.4032  0.1321
  145SAPE   H7X15916   4.631   2.016   6.159  0.1637 -2.3957 -0.0345
  145SAPE   H7Y15917   4.465   2.076   6.191  1.0926  0.1271  1.4095
  145SAPE   C3815918   4.476   1.936   6.020  0.5836 -0.0939  0.9624
  145SAPE   H8X15919   4.365   1.927   6.016  0.5800  0.2846 -1.2698
  145SAPE   H8Y15920   4.524   1.841   5.989  1.2775  0.3988  0.4875
  145SAPE   C3915921   4.503   2.043   5.913  0.1013  0.5859  0.1031
  145SAPE   H9X15922   4.613   2.055   5.908  0.1947  1.1008  2.1535
  145SAPE   H9Y15923   4.461   2.140   5.949 -0.6196  0.6262 -0.8207
  145SAPE  C31015924   4.447   2.017   5.769 -0.2870 -0.7870 -0.5628
  145SAPE  H10X15925   4.336   2.017   5.773 -0.2791  1.2474  0.4001
  145SAPE  H10Y15926   4.489   1.919   5.735  2.0725 -0.0269 -0.0321
  145SAPE  C31115927   4.484   2.136   5.687 -0.3969  0.8097 -0.1954
  145SAPE  H11X15928   4.591   2.120   5.660 -0.5869  0.1307 -0.5757
  145SAPE  H11Y15929   4.458   2.237   5.727 -0.2784  0.3341  1.1469
  145SAPE  C31215930   4.416   2.137   5.548  0.1493  0.0177  0.4891
  145SAPE  H12X15931   4.306   2.151   5.553 -0.2831 -2.7695  0.2817
  145SAPE  H12Y15932   4.429   2.035   5.506  1.4414  1.0536 -1.8577
  145SAPE  C31315933   4.488   2.224   5.448  0.3451 -0.5112 -0.8190
  145SAPE  H13X15934   4.594   2.193   5.447  0.2687 -0.7641 -0.9994
  145SAPE  H13Y15935   4.471   2.320   5.501 -0.4569 -2.4949  2.8415
  145SAPE  C31415936   4.430   2.223   5.303 -0.3777  0.2607 -0.0671
  145SAPE  H14X15937   4.336   2.281   5.298  1.0610  2.7630  0.4387
  145SAPE  H14Y15938   4.405   2.116   5.284 -0.3591  0.1300  0.6012
  145SAPE  C31515939   4.534   2.292   5.213  0.5786  0.2662  0.4988
  145SAPE  H15X15940   4.632   2.243   5.226  0.7304  0.5509  0.4378
  145SAPE  H15Y15941   4.553   2.394   5.254 -0.8284  0.9198 -0.3914
  145SAPE  C31615942   4.492   2.317   5.070  0.5075 -0.5780  0.2399
  145SAPE  H16X15943   4.573   2.368   5.014 -0.6721  0.3550 -0.6507
  145SAPE  H16Y15944   4.404   2.384   5.077 -2.7080 -4.5373  1.8923
  145SAPE  C31715945   4.438   2.184   5.003 -0.0987  0.3692 -0.4057
  145SAPE  H17X15946   4.397   2.206   4.903  1.6318 -3.1270 -2.0727
  145SAPE  H17Y15947   4.355   2.155   5.071 -0.7907  1.9563 -0.5340
  145SAPE  C31815948   4.540   2.074   4.986 -0.6200  0.2734 -0.0373
  145SAPE  H18X15949   4.595   2.053   5.080  0.0807  1.7337 -0.0851
  145SAPE  H18Y15950   4.600   2.105   4.897 -1.6262 -0.3006 -0.9398
  145SAPE  H18Z15951   4.497   1.974   4.965 -0.3114  0.5833 -2.5125
  146SAPE     N15952   1.919   6.294   7.602 -0.2111 -0.0703 -0.1001
  146SAPE   HN115953   1.985   6.217   7.624 -0.7621  0.0567  2.3707
  146SAPE   HN215954   1.840   6.258   7.544  0.1457 -0.5060 -0.3195
  146SAPE   HN315955   1.983   6.359   7.552 -1.0604  1.6433  0.9168
  146SAPE   C1215956   1.854   6.361   7.724 -0.3283  0.3833 -0.8858
  146SAPE  H12A15957   1.934   6.366   7.801 -0.5270  0.7493 -0.7006
  146SAPE  H12B15958   1.770   6.298   7.761  0.3882 -0.7637 -1.1846
  146SAPE   C1115959   1.805   6.497   7.695 -0.5646  0.1144 -0.7665
  146SAPE  H11A15960   1.752   6.551   7.776  1.2759  0.9319 -0.0595
  146SAPE  H11B15961   1.723   6.483   7.622 -0.0991  1.5143 -1.5959
  146SAPE     P15962   1.894   6.722   7.583 -0.2238 -0.4023  0.3163
  146SAPE   O1315963   1.895   6.814   7.702  0.7731  0.5070 -0.0459
  146SAPE   O1415964   2.013   6.746   7.499  0.3197  0.1067  0.7398
  146SAPE   O1215965   1.905   6.581   7.629  0.3629  0.1915  0.0704
  146SAPE   O1115966   1.764   6.738   7.491 -0.7013 -0.1387 -0.2788
  146SAPE    C115967   1.725   6.634   7.397 -0.2881 -0.6414 -0.4279
  146SAPE    HA15968   1.750   6.531   7.431  1.3703  0.1647  0.8859
  146SAPE    HB15969   1.614   6.634   7.394 -0.2692 -1.2511 -2.0727
  146SAPE    C215970   1.777   6.654   7.253 -0.2794  0.4562  0.4331
  146SAPE    HS15971   1.887   6.641   7.264  0.0565  2.7682  0.2694
  146SAPE   O2115972   1.740   6.784   7.201 -0.2806  1.1212  0.6699
  146SAPE   C2115973   1.815   6.823   7.098  1.1523 -0.4550 -0.2302
  146SAPE   O2215974   1.925   6.782   7.074  0.2268 -0.0811  0.9436
  146SAPE   C2215975   1.739   6.941   7.027 -0.1374 -0.7742  1.4361
  146SAPE   H2R15976   1.630   6.924   7.024 -0.4752  1.2665 -0.1997
  146SAPE   H2S15977   1.766   7.028   7.090 -0.4725  0.1424  0.3522
  146SAPE    C315978   1.719   6.542   7.156 -0.1402 -0.1605 -0.0473
  146SAPE    HX15979   1.615   6.578   7.138  0.7758  2.2226 -0.9252
  146SAPE    HY15980   1.725   6.443   7.206  1.8204 -0.8245 -1.4822
  146SAPE   O3115981   1.786   6.524   7.031  0.7788 -0.4226  0.1479
  146SAPE   C3115982   1.893   6.463   7.024  0.3146 -0.5072  0.1936
  146SAPE   O3215983   1.950   6.393   7.103  0.1515 -0.1215 -0.1427
  146SAPE   C3215984   1.951   6.506   6.888 -0.8155  0.4655  0.2614
  146SAPE   H2X15985   1.983   6.613   6.887 -2.1846  0.9184  1.1833
  146SAPE   H2Y15986   1.865   6.523   6.818 -0.1193  2.7969 -0.1276
  146SAPE   C2315987   1.781   6.956   6.875 -0.0699 -0.0558 -0.2855
  146SAPE   H3R15988   1.889   6.980   6.872  0.7901 -2.5230  3.3027
  146SAPE   H3S15989   1.736   7.051   6.839  2.0169  1.0196 -0.1966
  146SAPE   C2415990   1.740   6.843   6.775 -1.0718  0.0021  0.6570
  146SAPE   H4R15991   1.794   6.750   6.803  0.7208  1.0232  0.7289
  146SAPE   H4S15992   1.763   6.872   6.670 -0.5007 -1.2249  0.4318
  146SAPE   C2515993   1.596   6.809   6.785 -0.0983  1.2073 -0.0610
  146SAPE   H5R15994   1.554   6.777   6.882 -1.4022 -1.1263 -1.3044
  146SAPE   C2615995   1.505   6.810   6.684 -0.7037 -0.3222  0.5035
  146SAPE   H6R15996   1.399   6.790   6.709 -0.8556 -1.9171 -1.1643
  146SAPE   C2715997   1.528   6.857   6.543 -0.7826 -0.4857  0.3563
  146SAPE   H7R15998   1.583   6.776   6.489 -0.6293 -2.1568  2.8698
  146SAPE   H7S15999   1.598   6.942   6.556  0.0892 -1.0996 -0.1184
  146SAPE   C2816000   1.406   6.886   6.456  0.2093 -0.2852 -0.3574
  146SAPE   H8R16001   1.313   6.924   6.500 -0.8345  1.2523 -3.5697
  146SAPE   C2916002   1.399   6.877   6.326 -0.7206 -0.3374 -0.0228
  146SAPE   H9R16003   1.306   6.903   6.274 -0.5123 -3.1561 -2.0592
  146SAPE  C21016004   1.498   6.829   6.224  0.5473  0.0973  0.7216
  146SAPE  H10R16005   1.447   6.783   6.137  1.7907  3.3692 -2.0037
  146SAPE  H10S16006   1.563   6.754   6.273 -0.5942 -1.1633  0.3523
  146SAPE  C21116007   1.584   6.939   6.171 -0.0343  0.3914 -0.5007
  146SAPE  H11R16008   1.648   6.980   6.251 -1.9274  1.5433  0.4967
  146SAPE  C21216009   1.589   6.995   6.055  0.1596  0.7661  0.4985
  146SAPE  H12R16010   1.656   7.080   6.040  0.4476  0.6322  1.0017
  146SAPE  C21316011   1.503   6.947   5.936 -0.6618 -0.1958 -0.6803
  146SAPE  H13R16012   1.467   7.026   5.866  0.7323 -0.0719 -1.2955
  146SAPE  H13S16013   1.412   6.899   5.978 -1.5509  2.7402  1.0928
  146SAPE  C21416014   1.588   6.854   5.854  0.6120  0.5371 -0.0798
  146SAPE  H14R16015   1.669   6.807   5.912 -0.1764  0.4865  1.0161
  146SAPE  C21516016   1.579   6.841   5.718  0.2648 -0.6423  0.2162
  146SAPE  H15R16017   1.648   6.774   5.666 -0.8091 -1.0709 -0.7212
  146SAPE  C21616018   1.474   6.905   5.627  0.1808 -0.3769  0.3070
  146SAPE  H16R16019   1.398   6.965   5.682  0.6144 -1.7327  2.5113
  146SAPE  H16S16020   1.428   6.820   5.574 -0.6515  0.0068  0.4020
  146SAPE  C21716021   1.540   7.000   5.523 -0.6275 -0.2962  0.4223
  146SAPE  H17R16022   1.463   7.037   5.452  0.9959 -0.0249 -1.2992
  146SAPE  H17S16023   1.611   6.934   5.469 -0.0211  1.4686 -1.0465
  146SAPE  C21816024   1.614   7.120   5.580 -0.1745  0.2876  0.1422
  146SAPE  H18R16025   1.672   7.166   5.498  0.7205 -0.7657  0.1604
  146SAPE  H18S16026   1.686   7.080   5.655 -0.5029 -0.2972  0.1519
  146SAPE  C21916027   1.523   7.224   5.639 -0.2510 -0.4141  0.3631
  146SAPE  H19R16028   1.478   7.182   5.732 -1.9815 -0.3465 -0.4038
  146SAPE  H19S16029   1.433   7.242   5.577  0.7555  2.1997 -0.4707
  146SAPE  C22016030   1.582   7.361   5.673  0.0181  0.1967  0.2302
  146SAPE  H20R16031   1.676   7.351   5.731  0.0524 -0.1748  0.1135
  146SAPE  H20S16032   1.513   7.426   5.731  1.2587  0.0961  1.8781
  146SAPE  H20T16033   1.599   7.418   5.578 -0.3067  0.6089  0.4141
  146SAPE   C3316034   2.051   6.408   6.835 -0.7252 -0.4216  0.8146
  146SAPE   H3X16035   1.996   6.311   6.825 -2.6077  0.3201  2.9824
  146SAPE   H3Y16036   2.134   6.412   6.908  0.8264  2.2964 -0.9380
  146SAPE   C3416037   2.115   6.460   6.708 -0.0263  0.2608 -0.8693
  146SAPE   H4X16038   2.185   6.381   6.672 -0.3121 -1.1568  1.4384
  146SAPE   H4Y16039   2.174   6.549   6.738  1.3373 -1.3847  1.7666
  146SAPE   C3516040   2.013   6.476   6.591 -0.4410  0.1656 -1.0612
  146SAPE   H5X16041   1.928   6.537   6.629  2.3901  2.4576  2.2123
  146SAPE   H5Y16042   1.979   6.372   6.572  0.9155 -0.9481  1.9051
  146SAPE   C3616043   2.061   6.536   6.462 -0.6904  0.5552  0.3282
  146SAPE   H6X16044   2.159   6.494   6.431 -0.2988  1.0549  0.8563
  146SAPE   H6Y16045   2.094   6.641   6.472  1.0179  0.0952 -0.2527
  146SAPE   C3716046   1.954   6.521   6.353 -0.2120 -0.4596 -0.1640
  146SAPE   H7X16047   1.859   6.571   6.383 -1.1378 -1.2830 -1.5909
  146SAPE   H7Y16048   1.926   6.414   6.359  0.4414 -0.5950  0.8180
  146SAPE   C3816049   2.008   6.562   6.220 -0.0171  0.3115  0.0873
  146SAPE   H8X16050   2.103   6.505   6.222  0.7743  1.5808  2.0356
  146SAPE   H8Y16051   2.044   6.668   6.214  0.7210  0.0359 -0.5121
  146SAPE   C3916052   1.914   6.526   6.104 -0.0155  0.3114 -0.4501
  146SAPE   H9X16053   1.827   6.594   6.106 -1.0197 -0.9388  0.2931
  146SAPE   H9Y16054   1.878   6.421   6.110 -1.8609  0.5593 -4.2740
  146SAPE  C31016055   1.958   6.549   5.961 -1.1403  0.1142 -0.0177
  146SAPE  H10X16056   2.061   6.507   5.958 -0.3089  1.9701  0.9042
  146SAPE  H10Y16057   1.975   6.658   5.949  2.1039 -0.4422 -1.7854
  146SAPE  C31116058   1.861   6.484   5.861 -0.1189  0.7682  0.5092
  146SAPE  H11X16059   1.775   6.554   5.861 -0.2568  0.6083 -0.3363
  146SAPE  H11Y16060   1.828   6.384   5.897 -2.5274  1.0054 -0.8811
  146SAPE  C31216061   1.924   6.474   5.718  1.0349  1.1193 -0.6283
  146SAPE  H12X16062   2.012   6.409   5.737  1.7986  1.1561 -3.6564
  146SAPE  H12Y16063   1.965   6.575   5.697 -0.9368  2.0223 -0.3348
  146SAPE  C31316064   1.830   6.408   5.616  0.2913 -0.1447  0.1559
  146SAPE  H13X16065   1.742   6.473   5.602  2.3121  3.2027  1.6393
  146SAPE  H13Y16066   1.794   6.317   5.668  1.2435 -0.2546  0.6595
  146SAPE  C31416067   1.902   6.370   5.493  0.4554 -0.5356  0.4126
  146SAPE  H14X16068   1.831   6.323   5.421  1.0405 -1.7984  0.6236
  146SAPE  H14Y16069   1.983   6.296   5.513  2.4439  1.4256 -0.0486
  146SAPE  C31516070   1.969   6.475   5.408  0.7610  0.2354 -0.6577
  146SAPE  H15X16071   2.041   6.538   5.464 -0.5370  0.0870  1.2461
  146SAPE  H15Y16072   1.888   6.546   5.378  0.7460  0.9759  1.0303
  146SAPE  C31616073   2.036   6.406   5.292  0.0375 -1.2402 -0.1170
  146SAPE  H16X16074   1.969   6.322   5.263 -0.9089 -0.7008  0.4565
  146SAPE  H16Y16075   2.131   6.359   5.327  0.1341 -0.2994  0.9270
  146SAPE  C31716076   2.061   6.503   5.181 -0.4001 -0.7084  0.0892
  146SAPE  H17X16077   2.104   6.593   5.230  0.0755 -2.1058  2.3870
  146SAPE  H17Y16078   1.969   6.535   5.128  0.4355  1.0778 -0.3622
  146SAPE  C31816079   2.177   6.457   5.089  0.0719  0.0072  0.3802
  146SAPE  H18X16080   2.270   6.408   5.125  0.8536 -1.0941 -2.8529
  146SAPE  H18Y16081   2.213   6.544   5.030  0.0290 -0.0617  0.2514
  146SAPE  H18Z16082   2.135   6.386   5.015 -1.1574  1.2609 -0.1828
  147SAPE     N16083   0.555   6.476   7.411 -0.1457 -0.0817 -0.1827
  147SAPE   HN116084   0.645   6.503   7.368  0.0655 -2.4290 -1.3495
  147SAPE   HN216085   0.549   6.534   7.497  2.0138 -0.4704  0.2700
  147SAPE   HN316086   0.586   6.384   7.450  0.4599  1.0675  2.2611
  147SAPE   C1216087   0.442   6.469   7.317 -0.1692 -0.5100  0.2164
  147SAPE  H12A16088   0.422   6.574   7.285 -1.9196 -1.2232 -1.1711
  147SAPE  H12B16089   0.350   6.427   7.363 -0.1850 -1.4540 -0.6512
  147SAPE   C1116090   0.477   6.391   7.181  0.2026 -0.8216  0.2222
  147SAPE  H11A16091   0.558   6.447   7.130 -2.1234  1.7037 -0.9413
  147SAPE  H11B16092   0.385   6.402   7.119 -0.6518  0.5314  1.6553
  147SAPE     P16093   0.620   6.172   7.143  0.3669  0.0606  0.2498
  147SAPE   O1316094   0.746   6.254   7.125 -0.3266 -0.1637  0.1030
  147SAPE   O1416095   0.640   6.042   7.212 -0.1741 -0.0795  0.2793
  147SAPE   O1216096   0.506   6.256   7.212  0.4361 -0.5814 -0.2680
  147SAPE   O1116097   0.574   6.138   6.997  0.4610 -0.3116 -0.0411
  147SAPE    C116098   0.435   6.117   6.959 -0.0530  0.1313 -0.1816
  147SAPE    HA16099   0.380   6.199   7.009  0.0337 -0.1459  0.3818
  147SAPE    HB16100   0.427   6.152   6.854  2.4162  1.0806 -0.1134
  147SAPE    C216101   0.372   5.974   6.982  0.7253  0.7123 -0.4946
  147SAPE    HS16102   0.334   5.975   7.086 -1.5653 -1.4577 -1.2203
  147SAPE   O2116103   0.466   5.870   6.957 -0.5036  0.4833 -0.4017
  147SAPE   C2116104   0.433   5.749   7.003 -0.4050  0.4571  0.3093
  147SAPE   O2216105   0.331   5.721   7.064 -0.0905 -0.2449 -0.3786
  147SAPE   C2216106   0.554   5.658   6.975 -0.5844  0.0564 -0.5573
  147SAPE   H2R16107   0.630   5.725   6.929 -1.4854 -0.6708 -3.2680
  147SAPE   H2S16108   0.597   5.630   7.074  0.0687  0.0959 -0.8252
  147SAPE    C316109   0.245   5.954   6.896 -0.4983  0.4920  0.3221
  147SAPE    HX16110   0.174   6.037   6.919 -0.6633  0.5084 -0.2403
  147SAPE    HY16111   0.206   5.853   6.917  0.7535 -0.0270  0.2201
  147SAPE   O3116112   0.272   5.960   6.757 -0.1492 -1.0006 -0.2303
  147SAPE   C3116113   0.256   5.863   6.675  0.6950  0.4380 -0.0723
  147SAPE   O3216114   0.222   5.752   6.707  0.0517 -0.3754 -0.9936
  147SAPE   C3216115   0.264   5.907   6.527 -0.3664 -0.1005  0.5036
  147SAPE   H2X16116   0.353   5.970   6.506 -1.8951  2.2702  0.7362
  147SAPE   H2Y16117   0.176   5.970   6.504  0.0432 -0.9192 -4.1562
  147SAPE   C2316118   0.529   5.530   6.881  0.1113  0.0022  0.4047
  147SAPE   H3R16119   0.473   5.554   6.788 -0.5580  1.1548  1.0761
  147SAPE   H3S16120   0.469   5.453   6.933 -0.2996 -1.4565 -2.0971
  147SAPE   C2416121   0.662   5.461   6.836  0.4754 -0.6113  0.1838
  147SAPE   H4R16122   0.620   5.377   6.775  1.2953 -0.0855 -1.1499
  147SAPE   H4S16123   0.697   5.421   6.933  0.5057  0.7154  0.7314
  147SAPE   C2516124   0.766   5.552   6.774  0.1061  0.6161 -0.1673
  147SAPE   H5R16125   0.802   5.636   6.836 -1.2515  1.8282 -0.9480
  147SAPE   C2616126   0.780   5.568   6.640  0.2167  0.5156 -0.1992
  147SAPE   H6R16127   0.850   5.643   6.603  1.2036 -0.1305  0.3177
  147SAPE   C2716128   0.728   5.479   6.538 -0.0910 -0.1845  0.2105
  147SAPE   H7R16129   0.639   5.530   6.496 -2.0524 -2.1162  1.7739
  147SAPE   H7S16130   0.699   5.378   6.574  1.8379 -0.0460  2.4568
  147SAPE   C2816131   0.839   5.464   6.436 -0.4364  0.0551 -0.5236
  147SAPE   H8R16132   0.942   5.449   6.472 -0.5894  0.9457  0.3433
  147SAPE   C2916133   0.816   5.443   6.312 -0.0209 -0.3985  0.8444
  147SAPE   H9R16134   0.897   5.404   6.248  1.5160  1.6567  1.4618
  147SAPE  C21016135   0.684   5.437   6.244  0.2640  0.3675  0.3985
  147SAPE  H10R16136   0.662   5.537   6.200  1.8990  0.3023 -0.6253
  147SAPE  H10S16137   0.598   5.419   6.312  0.2433 -0.6067  0.1224
  147SAPE  C21116138   0.667   5.331   6.136  0.2095 -0.1424  0.0696
  147SAPE  H11R16139   0.627   5.239   6.181 -1.5695  0.1493 -0.8130
  147SAPE  C21216140   0.705   5.345   6.008  0.4887 -0.4807 -0.5370
  147SAPE  H12R16141   0.698   5.259   5.940  2.0267 -0.0718 -1.2473
  147SAPE  C21316142   0.768   5.451   5.926 -0.1693  0.0743  0.4466
  147SAPE  H13R16143   0.865   5.412   5.888  0.1137  0.2786  0.9443
  147SAPE  H13S16144   0.788   5.541   5.988  1.9035  1.5737 -2.1840
  147SAPE  C21416145   0.697   5.486   5.799  0.3956 -0.2963  0.3548
  147SAPE  H14R16146   0.593   5.450   5.794  0.2272  0.3622 -1.4149
  147SAPE  C21516147   0.748   5.556   5.695  0.8604  0.2458 -0.0136
  147SAPE  H15R16148   0.693   5.580   5.603 -0.1759 -1.2579  0.1813
  147SAPE  C21616149   0.891   5.597   5.689  0.1252 -0.4363  0.3259
  147SAPE  H16R16150   0.945   5.504   5.662 -1.0257 -1.2550  0.7657
  147SAPE  H16S16151   0.923   5.630   5.790 -0.4120  1.8761 -0.1886
  147SAPE  C21716152   0.923   5.709   5.586 -0.1555 -0.8022  0.4670
  147SAPE  H17R16153   0.852   5.790   5.615  0.2718 -0.6669  1.1531
  147SAPE  H17S16154   0.891   5.685   5.482 -2.1538 -0.0122  0.8424
  147SAPE  C21816155   1.063   5.771   5.599  0.1328 -0.2917  0.0105
  147SAPE  H18R16156   1.136   5.692   5.571  1.3477  1.1034 -0.9963
  147SAPE  H18S16157   1.080   5.793   5.707  0.7582  0.5917 -0.2481
  147SAPE  C21916158   1.092   5.904   5.527 -0.0885  0.0373 -0.0789
  147SAPE  H19R16159   1.077   5.894   5.418  2.0780 -0.7675 -0.3595
  147SAPE  H19S16160   1.199   5.926   5.551  0.9384 -2.7679 -1.6600
  147SAPE  C22016161   1.007   6.010   5.586 -0.0283  0.3128 -0.1735
  147SAPE  H20R16162   1.045   6.112   5.566  0.5159 -0.0116 -0.8307
  147SAPE  H20S16163   1.025   5.994   5.694  0.2623 -1.4742 -0.4514
  147SAPE  H20T16164   0.899   6.004   5.558  0.4411 -1.4710 -1.8268
  147SAPE   C3316165   0.243   5.795   6.419 -0.3625  0.7545 -0.1774
  147SAPE   H3X16166   0.162   5.722   6.438 -0.7468  1.3383  0.4940
  147SAPE   H3Y16167   0.343   5.746   6.412 -0.6417  0.2892 -1.0815
  147SAPE   C3416168   0.203   5.848   6.287 -0.6865 -0.1680 -0.3996
  147SAPE   H4X16169   0.269   5.926   6.244 -0.2530 -1.0823 -1.4254
  147SAPE   H4Y16170   0.103   5.896   6.304 -0.9882 -0.5877 -0.9760
  147SAPE   C3516171   0.188   5.736   6.177 -0.5856  0.0660  0.5792
  147SAPE   H5X16172   0.098   5.675   6.202 -0.8926  0.6013  0.8112
  147SAPE   H5Y16173   0.269   5.661   6.184 -1.4697 -0.8901  0.7692
  147SAPE   C3616174   0.190   5.792   6.029 -0.4558  0.5673 -0.0526
  147SAPE   H6X16175   0.289   5.840   6.011 -0.7146  1.2109  0.2164
  147SAPE   H6Y16176   0.103   5.861   6.033 -0.3351  0.8082 -1.0993
  147SAPE   C3716177   0.171   5.679   5.931  0.3255 -0.0695 -0.1907
  147SAPE   H7X16178   0.077   5.633   5.967 -1.6209  2.4332 -1.8075
  147SAPE   H7Y16179   0.256   5.607   5.931 -0.9098 -1.5979 -1.6736
  147SAPE   C3816180   0.168   5.712   5.782 -0.7244 -0.4479  0.3980
  147SAPE   H8X16181   0.147   5.614   5.735 -0.4569  0.1859 -1.0982
  147SAPE   H8Y16182   0.270   5.744   5.753  0.2817 -2.7238  1.1953
  147SAPE   C3916183   0.056   5.809   5.741 -0.1980  0.1202  0.0427
  147SAPE   H9X16184   0.067   5.903   5.799  0.2709  1.3541 -1.9468
  147SAPE   H9Y16185  -0.040   5.756   5.756 -0.4756  0.8372  0.8874
  147SAPE  C31016186   0.078   5.848   5.591  0.6671  0.3226  0.0774
  147SAPE  H10X16187   0.180   5.888   5.580  0.1528  1.6883  0.1464
  147SAPE  H10Y16188   0.001   5.924   5.565  1.3489  0.3276 -2.1330
  147SAPE  C31116189   0.094   5.728   5.497  0.4827 -0.6508  0.0532
  147SAPE  H11X16190  -0.003   5.673   5.495  0.6058 -1.0635  2.1698
  147SAPE  H11Y16191   0.178   5.661   5.527  0.8264  0.3050  1.3253
  147SAPE  C31216192   0.115   5.775   5.354 -0.7483 -0.8801  0.5439
  147SAPE  H12X16193   0.193   5.849   5.327 -2.0142  0.6460  0.9039
  147SAPE  H12Y16194   0.019   5.828   5.335 -0.7971 -0.9470  0.6019
  147SAPE  C31316195   0.130   5.663   5.257  0.1593  0.2337 -0.0102
  147SAPE  H13X16196   0.058   5.582   5.280  0.2695 -0.4231 -1.7889
  147SAPE  H13Y16197   0.231   5.617   5.264  0.5199  1.0913  0.5713
  147SAPE  C31416198   0.090   5.710   5.114 -0.0801 -0.3840 -0.2272
  147SAPE  H14X16199  -0.018   5.735   5.114 -0.5270 -2.1661 -0.6320
  147SAPE  H14Y16200   0.110   5.633   5.037  0.4032  0.9017 -1.4236
  147SAPE  C31516201   0.160   5.838   5.069  0.3708 -0.0360 -0.1284
  147SAPE  H15X16202   0.260   5.857   5.114  0.6402 -3.1104  0.7871
  147SAPE  H15Y16203   0.090   5.909   5.117  0.8462 -0.4343  1.2069
  147SAPE  C31616204   0.170   5.860   4.916 -0.1934 -0.1670  0.0826
  147SAPE  H16X16205   0.219   5.958   4.895  0.8625 -1.0272 -1.7013
  147SAPE  H16Y16206   0.065   5.846   4.883 -0.4296  0.0912  0.7056
  147SAPE  C31716207   0.254   5.756   4.845 -0.6293  0.0862 -0.2204
  147SAPE  H17X16208   0.224   5.650   4.859  3.5454 -1.1408  0.9333
  147SAPE  H17Y16209   0.357   5.775   4.881 -0.8863  0.6296  0.2492
  147SAPE  C31816210   0.248   5.780   4.692 -0.8227  0.0556  0.5575
  147SAPE  H18X16211   0.307   5.869   4.662 -0.0723 -1.2457 -2.0977
  147SAPE  H18Y16212   0.143   5.799   4.658 -0.2528  2.3002 -0.1435
  147SAPE  H18Z16213   0.280   5.688   4.639 -0.8832 -0.4216  1.3250
  148SAPE     N16214   5.913   2.862   7.227 -0.3689 -0.1848 -0.2542
  148SAPE   HN116215   5.836   2.931   7.229  0.6370  1.0207  2.7266
  148SAPE   HN216216   5.994   2.904   7.177 -0.0088  0.9833  1.2061
  148SAPE   HN316217   5.889   2.778   7.171  1.4519 -1.4243  0.7151
  148SAPE   C1216218   5.963   2.825   7.359  0.2237  0.8907 -0.1423
  148SAPE  H12A16219   5.880   2.770   7.408  2.4281 -0.8454  1.8726
  148SAPE  H12B16220   5.998   2.914   7.415  3.2441 -0.8030  0.8426
  148SAPE   C1116221   6.085   2.733   7.348 -0.5466 -0.1720  0.1378
  148SAPE  H11A16222   6.054   2.628   7.370  2.0264 -0.8275  0.9550
  148SAPE  H11B16223   6.148   2.772   7.431 -2.0727  0.4923  1.0211
  148SAPE     P16224   6.298   2.693   7.209 -0.0509  0.0599  0.3682
  148SAPE   O1316225   6.395   2.793   7.268  0.0306  0.2921  0.1530
  148SAPE   O1416226   6.296   2.557   7.265 -0.3142 -0.1884 -0.4123
  148SAPE   O1216227   6.149   2.736   7.221  0.2658 -0.4214  0.2035
  148SAPE   O1116228   6.313   2.684   7.051  0.2661  0.3779  0.1173
  148SAPE    C116229   6.401   2.779   6.984 -0.1199 -0.7632 -0.0285
  148SAPE    HA16230   6.493   2.792   7.044  1.1222 -0.2292 -1.9696
  148SAPE    HB16231   6.439   2.736   6.889  3.5282 -0.3911  1.0875
  148SAPE    C216232   6.337   2.916   6.933 -0.4189  0.8726  0.4477
  148SAPE    HS16233   6.308   2.983   7.018 -0.2236  0.6589  0.6847
  148SAPE   O2116234   6.235   2.889   6.839 -0.3993  0.1955  0.2569
  148SAPE   C2116235   6.111   2.894   6.871 -0.2925  0.1811 -0.0098
  148SAPE   O2216236   6.068   2.916   6.985  0.7589 -0.1193 -0.0796
  148SAPE   C2216237   6.029   2.873   6.743  0.6106 -0.3228 -0.5906
  148SAPE   H2R16238   6.025   2.977   6.705 -0.6021 -0.2703 -0.3718
  148SAPE   H2S16239   6.081   2.807   6.671 -0.1871  1.7483 -3.2157
  148SAPE    C316240   6.442   3.004   6.851  0.1377  1.2323 -0.5479
  148SAPE    HX16241   6.528   3.022   6.920 -0.6989  0.1453  0.8361
  148SAPE    HY16242   6.397   3.100   6.818  0.1644  1.1051 -0.9521
  148SAPE   O3116243   6.498   2.924   6.749  0.4371 -0.6824 -0.3872
  148SAPE   C3116244   6.456   2.954   6.632  0.1533 -0.2211 -0.4301
  148SAPE   O3216245   6.372   3.038   6.600 -0.0486 -0.1347 -0.6414
  148SAPE   C3216246   6.514   2.852   6.533 -0.2486 -0.3376 -0.5764
  148SAPE   H2X16247   6.468   2.754   6.557  0.9693 -0.6120  0.8015
  148SAPE   H2Y16248   6.625   2.859   6.537 -0.2066 -0.5712 -1.2738
  148SAPE   C2316249   5.889   2.824   6.778 -0.2091 -0.2610  0.8458
  148SAPE   H3R16250   5.831   2.897   6.838  1.1754  1.6961 -0.0591
  148SAPE   H3S16251   5.888   2.727   6.830 -0.4711 -0.0297  1.2774
  148SAPE   C2416252   5.826   2.786   6.641 -0.2962  0.1365 -0.4665
  148SAPE   H4R16253   5.730   2.732   6.653  0.7023 -1.3413  1.4579
  148SAPE   H4S16254   5.897   2.714   6.595 -1.1243 -1.4181  0.6177
  148SAPE   C2516255   5.799   2.907   6.557  0.7637  0.0046  0.4427
  148SAPE   H5R16256   5.734   2.978   6.610  1.5642  0.9490  0.1930
  148SAPE   C2616257   5.848   2.946   6.438 -0.6482  1.0844 -0.2117
  148SAPE   H6R16258   5.814   3.042   6.397 -2.2506  1.1869  1.2166
  148SAPE   C2716259   5.950   2.862   6.360  0.0409 -0.2014 -0.1781
  148SAPE   H7R16260   5.890   2.788   6.303  1.5541 -1.5785 -0.0321
  148SAPE   H7S16261   6.018   2.805   6.426 -0.6637 -1.6714 -0.6743
  148SAPE   C2816262   6.028   2.953   6.273 -0.4139 -0.0452  0.8855
  148SAPE   H8R16263   6.134   2.975   6.292  0.1800 -0.3876 -1.6163
  148SAPE   C2916264   5.994   2.996   6.147 -0.2205 -0.0723  0.3645
  148SAPE   H9R16265   6.068   3.068   6.107  0.0532  0.5415  1.8864
  148SAPE  C21016266   5.865   2.974   6.074 -0.0389 -0.4478  0.9306
  148SAPE  H10R16267   5.815   3.072   6.060 -0.3032 -0.3958  2.1717
  148SAPE  H10S16268   5.800   2.916   6.142  0.0513 -0.8775  0.6557
  148SAPE  C21116269   5.898   2.893   5.946 -1.3935 -0.9471 -0.2732
  148SAPE  H11R16270   5.933   2.791   5.967 -0.0327 -0.7579 -1.4612
  148SAPE  C21216271   5.869   2.924   5.820 -0.0943  0.1094  0.1653
  148SAPE  H12R16272   5.919   2.868   5.740  2.7961  2.3375  0.2301
  148SAPE  C21316273   5.806   3.052   5.764 -0.5611  0.1691 -0.3591
  148SAPE  H13R16274   5.744   3.096   5.845 -0.9771  0.4124 -0.8062
  148SAPE  H13S16275   5.722   3.019   5.699 -0.2129 -0.6834 -0.3951
  148SAPE  C21416276   5.887   3.166   5.705 -0.0520 -0.0840  0.4480
  148SAPE  H14R16277   5.940   3.244   5.762  2.1801 -0.9129 -0.3784
  148SAPE  C21516278   5.910   3.190   5.575  0.0297 -0.6568 -0.1546
  148SAPE  H15R16279   5.964   3.282   5.548  0.2166 -0.8173 -0.3305
  148SAPE  C21616280   5.870   3.114   5.456 -0.1328 -0.3586  0.1648
  148SAPE  H16R16281   5.814   3.026   5.495 -0.6504  0.6364  1.7492
  148SAPE  H16S16282   5.965   3.081   5.409  0.5448  2.2717 -0.4732
  148SAPE  C21716283   5.778   3.196   5.358 -0.0128 -0.2780 -0.3751
  148SAPE  H17R16284   5.830   3.286   5.319 -0.1692  0.2086  0.4987
  148SAPE  H17S16285   5.691   3.226   5.421 -0.6483 -2.6741 -0.0036
  148SAPE  C21816286   5.713   3.127   5.238  0.2967  0.2116 -0.1604
  148SAPE  H18R16287   5.685   3.023   5.266  0.0646 -0.0033 -1.1698
  148SAPE  H18S16288   5.785   3.112   5.155 -1.0404 -2.6315 -0.9437
  148SAPE  C21916289   5.583   3.202   5.185  0.1578 -0.4781 -0.2840
  148SAPE  H19R16290   5.504   3.202   5.263 -1.3038  1.1592 -1.7031
  148SAPE  H19S16291   5.543   3.140   5.102 -0.1219 -1.1328  0.3232
  148SAPE  C22016292   5.609   3.341   5.120  0.1046  0.5708 -0.2211
  148SAPE  H20R16293   5.638   3.415   5.197 -1.5263  0.7979  0.2074
  148SAPE  H20S16294   5.515   3.383   5.078 -0.8714 -0.1400  1.1447
  148SAPE  H20T16295   5.696   3.340   5.052 -0.5352 -1.0996 -1.0881
  148SAPE   C3316296   6.483   2.883   6.388  0.1601 -0.3200 -0.2442
  148SAPE   H3X16297   6.498   2.990   6.363  0.7827 -0.6746 -1.4195
  148SAPE   H3Y16298   6.377   2.857   6.368  0.4805 -1.6833 -0.3017
  148SAPE   C3416299   6.587   2.820   6.303 -0.4353  0.2492  0.1740
  148SAPE   H4X16300   6.575   2.710   6.307  0.8638 -0.0781 -2.5128
  148SAPE   H4Y16301   6.687   2.851   6.342 -0.7007  3.1557 -1.1944
  148SAPE   C3516302   6.587   2.862   6.157 -0.2056  0.2632  0.2973
  148SAPE   H5X16303   6.494   2.836   6.101  1.5419 -2.0952 -1.7733
  148SAPE   H5Y16304   6.664   2.802   6.103 -0.7641  0.6540 -0.9725
  148SAPE   C3616305   6.626   3.006   6.134  0.0114 -0.3129  1.1812
  148SAPE   H6X16306   6.733   3.017   6.159  0.0059 -1.5089  1.8203
  148SAPE   H6Y16307   6.562   3.076   6.193 -0.3192  0.0046  0.4502
  148SAPE   C3716308   6.606   3.050   5.986 -0.2154 -0.1817 -0.0689
  148SAPE   H7X16309   6.631   3.158   5.985  1.2217 -0.4954 -0.4358
  148SAPE   H7Y16310   6.499   3.036   5.959  0.0262 -1.1055 -0.6056
  148SAPE   C3816311   6.695   2.974   5.890 -0.0313  0.2393 -0.7976
  148SAPE   H8X16312   6.681   2.864   5.901  0.4920  0.3279  1.0208
  148SAPE   H8Y16313   6.802   2.991   5.916 -0.5218  1.1772  0.7539
  148SAPE   C3916314   6.668   3.018   5.743  0.2087  0.2503 -0.4443
  148SAPE   H9X16315   6.652   3.127   5.746 -0.0803  0.2414  3.2297
  148SAPE   H9Y16316   6.570   2.970   5.720 -0.1154  0.7498 -0.1136
  148SAPE  C31016317   6.778   2.981   5.648 -0.2808 -0.3494  0.0008
  148SAPE  H10X16318   6.777   2.870   5.642 -1.5223 -0.3280 -0.6370
  148SAPE  H10Y16319   6.876   2.991   5.699 -0.9106 -3.0656  1.9806
  148SAPE  C31116320   6.774   3.055   5.511  0.9146  0.4713 -0.3451
  148SAPE  H11X16321   6.771   3.165   5.528 -0.6173  0.2058  1.5219
  148SAPE  H11Y16322   6.668   3.035   5.482  0.3385 -0.0507  1.9204
  148SAPE  C31216323   6.877   3.005   5.413 -1.1361  0.2337  0.2290
  148SAPE  H12X16324   6.875   2.895   5.403 -3.0518  0.3198 -0.9382
  148SAPE  H12Y16325   6.980   3.036   5.439 -0.6797 -1.2130  0.2068
  148SAPE  C31316326   6.851   3.061   5.271  0.2987 -0.3458 -0.6572
  148SAPE  H13X16327   6.840   3.171   5.272  1.0518 -0.2693 -0.7627
  148SAPE  H13Y16328   6.750   3.039   5.229  0.5931  0.7695 -2.0306
  148SAPE  C31416329   6.955   3.026   5.161  0.3307 -0.4265  0.0964
  148SAPE  H14X16330   6.919   3.064   5.063  0.7905  1.0627  0.4912
  148SAPE  H14Y16331   6.971   2.916   5.151 -0.9059 -0.6380  0.2880
  148SAPE  C31516332   7.092   3.104   5.167 -0.6025 -0.0942 -0.4848
  148SAPE  H15X16333   7.141   3.072   5.262 -1.1787 -0.9491 -0.4605
  148SAPE  H15Y16334   7.077   3.214   5.169  2.4356  0.3985  1.1115
  148SAPE  C31616335   7.166   3.061   5.038  0.7605  0.6639  0.3299
  148SAPE  H16X16336   7.097   3.073   4.951 -0.6047  0.3689  1.3380
  148SAPE  H16Y16337   7.179   2.951   5.045 -2.5244  0.2460  1.4849
  148SAPE  C31716338   7.299   3.132   5.016 -0.0112  0.1007 -0.7327
  148SAPE  H17X16339   7.360   3.088   5.097 -1.7704 -0.2386  0.4534
  148SAPE  H17Y16340   7.285   3.242   5.027 -0.0838  0.0584 -0.4115
  148SAPE  C31816341   7.367   3.094   4.886  0.0572 -0.1705  0.4799
  148SAPE  H18X16342   7.461   3.154   4.884  0.4964 -0.8694 -0.7262
  148SAPE  H18Y16343   7.307   3.127   4.799 -2.1478 -0.5622  1.7800
  148SAPE  H18Z16344   7.385   2.985   4.871 -0.1755 -0.0585 -0.7397
  149SAPE     N16345   4.208   1.600   7.161  0.2900 -0.2450 -0.1533
  149SAPE   HN116346   4.243   1.697   7.146  1.1715 -0.9904 -3.9101
  149SAPE   HN216347   4.114   1.596   7.206 -1.0180 -1.0160 -2.7300
  149SAPE   HN316348   4.281   1.561   7.225 -2.0660 -0.5698  2.5429
  149SAPE   C1216349   4.223   1.543   7.025 -0.3599  0.2116  0.3158
  149SAPE  H12A16350   4.332   1.528   7.007 -0.2028 -1.0128  2.0348
  149SAPE  H12B16351   4.180   1.611   6.949 -1.6390 -0.1969  0.6370
  149SAPE   C1116352   4.151   1.405   7.015  0.3783  0.5675  0.6733
  149SAPE  H11A16353   4.152   1.362   6.912 -2.3477  0.5869  0.5584
  149SAPE  H11B16354   4.046   1.438   7.033 -0.1139 -0.2793 -0.4792
  149SAPE     P16355   4.121   1.176   7.146  0.4467 -0.0195 -0.0644
  149SAPE   O1316356   4.206   1.072   7.199  0.0657 -0.1863 -0.5221
  149SAPE   O1416357   4.004   1.215   7.222  0.2772 -0.3221  0.1661
  149SAPE   O1216358   4.204   1.311   7.111  0.5354 -0.1286  0.6679
  149SAPE   O1116359   4.070   1.130   7.005 -0.0385  0.2811 -0.2391
  149SAPE    C116360   3.927   1.095   6.988 -0.5133 -0.4930 -0.1529
  149SAPE    HA16361   3.911   0.987   7.010 -0.2287 -0.8057 -1.3736
  149SAPE    HB16362   3.852   1.154   7.045  1.1451 -0.6427  2.3001
  149SAPE    C216363   3.891   1.096   6.836  1.2818  0.0634  0.3874
  149SAPE    HS16364   3.782   1.078   6.851  1.6456 -0.7275  2.5286
  149SAPE   O2116365   3.952   0.990   6.762 -0.7826 -0.0208 -0.2065
  149SAPE   C2116366   3.886   0.873   6.755  0.5682 -0.7548 -0.6406
  149SAPE   O2216367   3.771   0.856   6.792 -0.2194 -0.3232 -1.1310
  149SAPE   C2216368   3.981   0.775   6.675  0.4826 -0.0624  0.1911
  149SAPE   H2R16369   3.916   0.688   6.650  0.5623  0.0407 -0.3925
  149SAPE   H2S16370   4.003   0.824   6.578 -1.3590 -1.5472 -1.0417
  149SAPE    C316371   3.902   1.227   6.771 -0.4873  0.2089  1.0867
  149SAPE    HX16372   4.013   1.223   6.759 -0.7651 -1.6898 -1.7178
  149SAPE    HY16373   3.873   1.306   6.844 -0.5231 -0.9279  2.3431
  149SAPE   O3116374   3.839   1.237   6.638  0.2995  0.1219 -0.3530
  149SAPE   C3116375   3.915   1.229   6.525 -0.1437 -0.1198 -0.5692
  149SAPE   O3216376   4.036   1.251   6.522  0.2259 -0.0368 -0.0311
  149SAPE   C3216377   3.817   1.199   6.419 -0.5091 -0.0289 -0.2565
  149SAPE   H2X16378   3.868   1.239   6.328  0.0883 -2.8300 -1.2584
  149SAPE   H2Y16379   3.723   1.256   6.435 -1.8035 -1.7485 -1.3503
  149SAPE   C2316380   4.123   0.741   6.732 -0.3451 -0.6026 -1.4169
  149SAPE   H3R16381   4.121   0.723   6.841 -0.3149 -3.1534 -1.7631
  149SAPE   H3S16382   4.188   0.826   6.701 -1.5970  1.2655  0.8223
  149SAPE   C2416383   4.175   0.604   6.688  0.0957  0.4759 -0.0203
  149SAPE   H4R16384   4.269   0.596   6.746  0.4635  0.1360 -0.6531
  149SAPE   H4S16385   4.199   0.620   6.580  1.2778 -3.1056 -0.4372
  149SAPE   C2516386   4.081   0.485   6.701 -0.7159 -0.5055 -0.4645
  149SAPE   H5R16387   4.034   0.475   6.800  1.8059 -0.0602  0.8786
  149SAPE   C2616388   4.040   0.399   6.604 -0.1318  0.1616  0.4760
  149SAPE   H6R16389   3.971   0.318   6.633 -1.1022  1.0398  0.6836
  149SAPE   C2716390   4.079   0.411   6.454  0.7248 -0.8364  0.1199
  149SAPE   H7R16391   4.054   0.317   6.399  0.7552 -0.9902  0.3680
  149SAPE   H7S16392   4.189   0.410   6.443  0.6558  0.9022 -1.2307
  149SAPE   C2816393   4.014   0.527   6.386 -0.2905  0.2797  0.4881
  149SAPE   H8R16394   3.914   0.551   6.427 -1.0368 -0.6683 -0.7037
  149SAPE   C2916395   4.081   0.602   6.293 -0.2168  0.2728  0.9175
  149SAPE   H9R16396   4.029   0.691   6.254 -0.6759 -0.7056 -0.8447
  149SAPE  C21016397   4.216   0.571   6.231 -0.0859 -0.5106  0.0877
  149SAPE  H10R16398   4.199   0.487   6.161 -0.5429 -0.6812  0.3976
  149SAPE  H10S16399   4.286   0.542   6.312 -1.2857  0.4763  1.5361
  149SAPE  C21116400   4.275   0.685   6.153  0.0342 -0.0059 -0.0202
  149SAPE  H11R16401   4.334   0.750   6.218 -3.5769  1.8652  1.7090
  149SAPE  C21216402   4.260   0.730   6.028 -1.0724 -0.2097  0.0148
  149SAPE  H12R16403   4.312   0.820   5.991  0.7575 -0.6339  1.4186
  149SAPE  C21316404   4.170   0.669   5.927 -0.1818  0.1817 -0.1540
  149SAPE  H13R16405   4.103   0.589   5.966  1.5629 -0.6949  1.1748
  149SAPE  H13S16406   4.239   0.618   5.857 -0.4739  0.2149 -0.4695
  149SAPE  C21416407   4.080   0.767   5.859  0.4517  0.1405  0.3511
  149SAPE  H14R16408   3.974   0.765   5.889  0.7690 -0.5907  1.4704
  149SAPE  C21516409   4.117   0.843   5.759 -0.3962 -0.4076 -0.3411
  149SAPE  H15R16410   4.040   0.911   5.717 -0.9501 -0.3397  0.7383
  149SAPE  C21616411   4.246   0.839   5.677 -0.0760 -0.5761 -0.4798
  149SAPE  H16R16412   4.286   0.736   5.689  3.0318  0.7425  1.9810
  149SAPE  H16S16413   4.316   0.902   5.735  1.6305 -0.4809 -2.5366
  149SAPE  C21716414   4.229   0.880   5.525 -0.2353  0.0160 -0.1961
  149SAPE  H17R16415   4.237   0.990   5.516 -0.5345  0.2220  1.6021
  149SAPE  H17S16416   4.131   0.848   5.484  0.3835 -1.5265 -0.5684
  149SAPE  C21816417   4.319   0.803   5.426 -0.2232 -0.0768  0.0722
  149SAPE  H18R16418   4.298   0.695   5.438 -2.9044  0.5206  1.4957
  149SAPE  H18S16419   4.428   0.822   5.442 -0.1985 -0.3553  0.2443
  149SAPE  C21916420   4.287   0.834   5.279  0.2463  0.1731 -0.7407
  149SAPE  H19R16421   4.284   0.944   5.273  0.2688  0.1344 -1.5214
  149SAPE  H19S16422   4.181   0.801   5.273  0.1194  0.4964 -0.3050
  149SAPE  C22016423   4.383   0.763   5.186 -0.3035 -0.6257  0.8123
  149SAPE  H20R16424   4.486   0.799   5.207 -0.9480  1.2340  0.9490
  149SAPE  H20S16425   4.354   0.790   5.082 -1.0051 -0.1694  1.1150
  149SAPE  H20T16426   4.375   0.654   5.207 -1.8829 -0.5779  0.5521
  149SAPE   C3316427   3.790   1.046   6.386 -0.2185  0.1090 -0.1121
  149SAPE   H3X16428   3.708   1.057   6.312 -0.2212  0.2506 -0.0893
  149SAPE   H3Y16429   3.761   1.005   6.485  0.5917  0.6855  0.3854
  149SAPE   C3416430   3.908   0.959   6.340  0.3743 -0.0929 -0.1042
  149SAPE   H4X16431   3.869   0.859   6.311  0.0347  0.0988 -0.3018
  149SAPE   H4Y16432   3.976   0.948   6.427 -1.4323  0.3700  1.4389
  149SAPE   C3516433   3.987   1.022   6.222  0.1512 -0.1126  0.1325
  149SAPE   H5X16434   4.070   0.955   6.191  0.1746  0.9261 -2.2721
  149SAPE   H5Y16435   4.038   1.119   6.242 -1.8340  0.7961  0.9957
  149SAPE   C3616436   3.909   1.050   6.091 -0.6001  0.4285 -0.7254
  149SAPE   H6X16437   3.820   1.116   6.104 -0.0953  1.2104 -1.1558
  149SAPE   H6Y16438   3.870   0.950   6.063 -0.8705 -0.1072  1.3818
  149SAPE   C3716439   4.000   1.112   5.983 -0.3824  0.1624 -0.1647
  149SAPE   H7X16440   4.091   1.051   5.963 -0.4271 -0.1094  0.4295
  149SAPE   H7Y16441   4.044   1.210   6.010  0.4673  0.1010 -1.2788
  149SAPE   C3816442   3.926   1.119   5.847  0.4010 -0.9140  0.8852
  149SAPE   H8X16443   3.828   1.172   5.852 -1.0979 -3.0824 -2.1572
  149SAPE   H8Y16444   3.918   1.010   5.824  0.2712 -0.6594 -0.3287
  149SAPE   C3916445   4.021   1.184   5.738 -0.7862 -0.1941  0.0045
  149SAPE   H9X16446   4.093   1.106   5.705 -0.8894  0.2306 -1.2834
  149SAPE   H9Y16447   4.064   1.280   5.773  0.4402 -0.7484  0.0482
  149SAPE  C31016448   3.936   1.209   5.611 -0.4968 -0.2887 -0.3598
  149SAPE  H10X16449   3.893   1.309   5.632 -1.0662 -0.2045 -1.7966
  149SAPE  H10Y16450   3.849   1.141   5.594 -0.2358 -1.2419  1.8268
  149SAPE  C31116451   4.023   1.205   5.482  0.4568 -0.0075  0.4121
  149SAPE  H11X16452   4.039   1.101   5.445  0.7022  0.4997 -0.9763
  149SAPE  H11Y16453   4.127   1.241   5.496  1.0333 -0.9505 -1.1373
  149SAPE  C31216454   3.967   1.291   5.368  0.0206 -0.1388  0.6023
  149SAPE  H12X16455   3.974   1.396   5.403 -1.1068  0.4455 -0.8144
  149SAPE  H12Y16456   3.859   1.268   5.361  0.2465 -1.0098 -0.2218
  149SAPE  C31316457   4.031   1.271   5.234 -0.3674 -0.2865  0.0413
  149SAPE  H13X16458   3.983   1.188   5.177 -2.1293 -0.8011  2.1052
  149SAPE  H13Y16459   4.133   1.239   5.265 -0.9313 -1.2079  1.0236
  149SAPE  C31416460   4.029   1.399   5.157 -0.3259  0.1323  0.5917
  149SAPE  H14X16461   4.085   1.476   5.214  0.6228 -1.0231  1.2732
  149SAPE  H14Y16462   3.925   1.436   5.144 -0.6458 -1.0770 -0.5149
  149SAPE  C31516463   4.103   1.388   5.024 -0.4244  0.5588  0.3136
  149SAPE  H15X16464   4.205   1.347   5.039 -0.1251  1.3005  0.3564
  149SAPE  H15Y16465   4.107   1.490   4.980  2.3997  1.2076  1.8717
  149SAPE  C31616466   4.032   1.308   4.921  0.1965  0.7893 -0.4793
  149SAPE  H16X16467   4.016   1.206   4.963 -0.8558  1.1250 -0.0285
  149SAPE  H16Y16468   4.079   1.313   4.821 -0.8453  1.4492 -0.9573
  149SAPE  C31716469   3.885   1.355   4.891  0.4042  0.8235  0.2457
  149SAPE  H17X16470   3.910   1.447   4.833  2.5663 -0.0478 -0.3236
  149SAPE  H17Y16471   3.822   1.385   4.978  0.6467 -0.4719  0.8945
  149SAPE  C31816472   3.795   1.259   4.813  0.6265  0.7818 -0.1267
  149SAPE  H18X16473   3.835   1.256   4.710  2.1594  1.9482  0.3951
  149SAPE  H18Y16474   3.690   1.293   4.825  0.7079  0.6884  1.0148
  149SAPE  H18Z16475   3.802   1.162   4.868 -1.0321 -0.0591 -1.3081
  150SAPE     N16476   1.148   3.249   7.304  0.3500 -0.5527  0.1438
  150SAPE   HN116477   1.117   3.271   7.401 -2.4329  0.0303 -0.7853
  150SAPE   HN216478   1.094   3.170   7.264 -0.2567  0.4486 -1.0899
  150SAPE   HN316479   1.250   3.228   7.307  0.1776 -1.3554  1.5423
  150SAPE   C1216480   1.117   3.373   7.224  1.4220 -0.3615  0.4917
  150SAPE  H12A16481   1.169   3.369   7.126  0.8929  2.1743  0.0395
  150SAPE  H12B16482   1.154   3.467   7.270 -0.2359  1.8698 -2.4825
  150SAPE   C1116483   0.962   3.390   7.210 -0.7545  0.0366 -0.1168
  150SAPE  H11A16484   0.939   3.296   7.154  1.9078  0.4225 -2.0057
  150SAPE  H11B16485   0.939   3.472   7.140  1.0300  1.5284  0.9670
  150SAPE     P16486   0.751   3.435   7.364 -0.5323  0.5695 -0.3985
  150SAPE   O1316487   0.709   3.409   7.504  0.5209 -0.0069  0.2901
  150SAPE   O1416488   0.729   3.572   7.318  0.3114  0.8692 -0.3012
  150SAPE   O1216489   0.902   3.404   7.340 -0.5173 -0.3579  0.0080
  150SAPE   O1116490   0.684   3.330   7.271 -0.5695  0.1598  0.0876
  150SAPE    C116491   0.554   3.343   7.215 -0.0785  0.3785 -0.5391
  150SAPE    HA16492   0.478   3.335   7.295  1.0121  2.2084  0.7608
  150SAPE    HB16493   0.529   3.445   7.179 -1.1660  1.5400  3.0736
  150SAPE    C216494   0.522   3.244   7.101  0.4031  0.7429  0.3896
  150SAPE    HS16495   0.424   3.262   7.054  0.7455  0.0551 -0.6092
  150SAPE   O2116496   0.515   3.114   7.149  0.1267 -0.5478 -0.7741
  150SAPE   C2116497   0.447   3.026   7.088  0.2788  0.4554  0.1426
  150SAPE   O2216498   0.372   3.050   6.994 -0.1079  0.4281 -0.1172
  150SAPE   C2216499   0.459   2.898   7.165 -0.2005  0.6013 -0.4255
  150SAPE   H2R16500   0.535   2.909   7.245  0.5202 -2.1003 -0.6088
  150SAPE   H2S16501   0.364   2.889   7.221 -0.3494 -0.5052 -0.8213
  150SAPE    C316502   0.639   3.241   6.990 -0.5329  0.2999 -0.1408
  150SAPE    HX16503   0.726   3.189   7.036 -0.8770  0.1607  0.3533
  150SAPE    HY16504   0.666   3.347   6.971 -0.8088  0.3953 -0.0121
  150SAPE   O3116505   0.610   3.166   6.867 -0.2355 -0.0883 -0.4690
  150SAPE   C3116506   0.546   3.223   6.772  0.8034 -0.0916 -0.5331
  150SAPE   O3216507   0.475   3.324   6.783 -0.6658  0.3844  0.1918
  150SAPE   C3216508   0.554   3.142   6.648  0.3919  0.4084 -0.1691
  150SAPE   H2X16509   0.463   3.078   6.642  2.2576 -2.6007  1.0010
  150SAPE   H2Y16510   0.628   3.059   6.660 -0.8388 -1.0898 -2.2518
  150SAPE   C2316511   0.492   2.776   7.077  0.2247  0.1560 -0.6105
  150SAPE   H3R16512   0.436   2.777   6.981 -0.5418  1.8320 -0.1804
  150SAPE   H3S16513   0.455   2.683   7.126  1.0685  0.3795  0.5020
  150SAPE   C2416514   0.646   2.745   7.060 -0.1543 -0.2031 -1.0110
  150SAPE   H4R16515   0.691   2.727   7.161  1.0779 -2.8782 -1.9339
  150SAPE   H4S16516   0.691   2.837   7.018 -2.7190  2.2650  1.2303
  150SAPE   C2516517   0.668   2.627   6.967  0.4524 -0.3548 -0.0937
  150SAPE   H5R16518   0.688   2.533   7.021 -0.3722 -0.3522  0.2294
  150SAPE   C2616519   0.683   2.635   6.829 -0.0508  0.1773  0.3137
  150SAPE   H6R16520   0.710   2.544   6.773  0.1922  0.5139 -0.1186
  150SAPE   C2716521   0.683   2.763   6.744  0.0215  0.1285 -0.3148
  150SAPE   H7R16522   0.660   2.859   6.796 -1.8021  0.0252 -0.8365
  150SAPE   H7S16523   0.605   2.753   6.665  0.0911  0.6347 -0.4524
  150SAPE   C2816524   0.818   2.782   6.677  0.3534 -0.2620 -0.3977
  150SAPE   H8R16525   0.886   2.846   6.735 -1.2990  0.7256  0.5087
  150SAPE   C2916526   0.870   2.742   6.553  0.2420  0.5028  0.3730
  150SAPE   H9R16527   0.972   2.776   6.529  0.3085  0.8348  1.0854
  150SAPE  C21016528   0.794   2.659   6.446  0.3932 -0.2530 -0.6929
  150SAPE  H10R16529   0.708   2.612   6.499 -0.8782  2.6478  0.0523
  150SAPE  H10S16530   0.862   2.583   6.403  1.3290 -0.4317  1.0111
  150SAPE  C21116531   0.739   2.751   6.344  0.1380 -0.4641  0.0828
  150SAPE  H11R16532   0.659   2.815   6.383  1.0364  0.6191  0.2165
  150SAPE  C21216533   0.766   2.758   6.207  0.4289  0.1268  0.6728
  150SAPE  H12R16534   0.715   2.836   6.148  0.3420  0.2033  0.8505
  150SAPE  C21316535   0.881   2.691   6.138  0.0795  0.7120  0.4670
  150SAPE  H13R16536   0.965   2.671   6.208  0.2264  1.4287  0.5058
  150SAPE  H13S16537   0.936   2.765   6.074 -0.1951  1.8301  1.4952
  150SAPE  C21416538   0.842   2.560   6.074 -0.1906 -0.4701  0.0624
  150SAPE  H14R16539   0.793   2.487   6.140  0.2935 -1.4720 -0.6586
  150SAPE  C21516540   0.872   2.518   5.948 -0.2500  0.4394  0.4523
  150SAPE  H15R16541   0.822   2.424   5.923 -0.5103  0.4859  0.7928
  150SAPE  C21616542   0.945   2.597   5.842  0.1176 -0.1512 -0.2934
  150SAPE  H16R16543   1.051   2.567   5.857  0.4347 -0.1708 -2.2652
  150SAPE  H16S16544   0.939   2.707   5.860  2.9875  0.2992 -1.5180
  150SAPE  C21716545   0.908   2.577   5.692  0.0723  0.1301 -0.5367
  150SAPE  H17R16546   0.827   2.653   5.680 -0.6640 -0.6004 -0.3312
  150SAPE  H17S16547   0.859   2.481   5.667  2.1397 -0.9908 -0.4505
  150SAPE  C21816548   1.025   2.605   5.595  0.1603  0.3394  1.0133
  150SAPE  H18R16549   1.107   2.530   5.595  0.6769  0.8398 -0.9981
  150SAPE  H18S16550   1.076   2.701   5.614  2.0981 -0.5400  0.4970
  150SAPE  C21916551   0.985   2.588   5.449  0.0754  0.5734 -0.1979
  150SAPE  H19R16552   1.055   2.649   5.388  0.6781  1.3195  1.1753
  150SAPE  H19S16553   0.888   2.641   5.443 -1.4814 -1.8997  1.1111
  150SAPE  C22016554   0.958   2.439   5.403 -0.3840 -0.1193  0.8911
  150SAPE  H20R16555   1.057   2.392   5.388 -0.4805  0.5221 -2.2557
  150SAPE  H20S16556   0.913   2.439   5.302  2.1445  0.3972 -0.2980
  150SAPE  H20T16557   0.893   2.370   5.461 -0.6031 -1.9165 -1.3484
  150SAPE   C3316558   0.585   3.225   6.521  0.4035 -0.5581 -0.0160
  150SAPE   H3X16559   0.688   3.267   6.520  0.2878 -0.1705  1.5323
  150SAPE   H3Y16560   0.505   3.302   6.510  0.1053 -0.8736 -0.0595
  150SAPE   C3416561   0.573   3.142   6.392 -0.3066  0.0571 -0.1080
  150SAPE   H4X16562   0.474   3.092   6.390 -1.0084  1.2761  1.5848
  150SAPE   H4Y16563   0.651   3.063   6.394 -1.0486 -0.6825  0.5521
  150SAPE   C3516564   0.607   3.224   6.266  0.5703 -0.1052 -0.7426
  150SAPE   H5X16565   0.696   3.286   6.289  0.5542  0.1885 -1.4474
  150SAPE   H5Y16566   0.525   3.299   6.253  1.7028  1.4081  0.4142
  150SAPE   C3616567   0.625   3.133   6.143  1.0152 -0.7537  0.3336
  150SAPE   H6X16568   0.533   3.072   6.138  0.6155 -0.0707 -1.1732
  150SAPE   H6Y16569   0.704   3.056   6.160  2.5846  0.7432  0.1573
  150SAPE   C3716570   0.641   3.212   6.018  0.1025  0.4194  0.1719
  150SAPE   H7X16571   0.747   3.239   6.002 -0.0467  0.0416 -1.6054
  150SAPE   H7Y16572   0.578   3.304   6.019 -0.4859  0.0237  0.8762
  150SAPE   C3816573   0.597   3.131   5.895  0.2631 -0.2296  0.1995
  150SAPE   H8X16574   0.488   3.113   5.886  0.5038 -0.7414 -2.5751
  150SAPE   H8Y16575   0.648   3.032   5.887  1.6029  0.2406  2.1424
  150SAPE   C3916576   0.622   3.216   5.769 -0.0438  0.6598 -0.3932
  150SAPE   H9X16577   0.728   3.248   5.762  0.4668 -1.2134 -2.6010
  150SAPE   H9Y16578   0.558   3.307   5.772  0.6599  1.2785 -2.6145
  150SAPE  C31016579   0.582   3.145   5.647  0.5170  0.4235 -0.4751
  150SAPE  H10X16580   0.486   3.089   5.656  1.5896 -1.6310 -1.2632
  150SAPE  H10Y16581   0.647   3.057   5.629  1.9788  1.5186 -0.7279
  150SAPE  C31116582   0.574   3.217   5.508  0.4049 -0.6612 -0.2997
  150SAPE  H11X16583   0.489   3.287   5.495  0.6444 -0.2855  0.1092
  150SAPE  H11Y16584   0.558   3.136   5.434 -0.5104  1.9218 -3.0976
  150SAPE  C31216585   0.711   3.282   5.477 -0.3384  0.6971 -0.2727
  150SAPE  H12X16586   0.798   3.218   5.504 -0.9964  0.6878  2.0854
  150SAPE  H12Y16587   0.718   3.374   5.539 -0.0894  0.5952 -0.1485
  150SAPE  C31316588   0.731   3.320   5.333 -0.0707 -0.0692  0.2806
  150SAPE  H13X16589   0.637   3.344   5.280  0.5493 -0.4707 -1.0352
  150SAPE  H13Y16590   0.769   3.228   5.284  1.8422  0.3917  0.7773
  150SAPE  C31416591   0.840   3.418   5.300 -0.0077 -0.1233  0.6868
  150SAPE  H14X16592   0.835   3.416   5.189  0.5214  0.1284  0.6538
  150SAPE  H14Y16593   0.934   3.379   5.345 -0.2731  0.2262  1.5579
  150SAPE  C31516594   0.814   3.565   5.348  0.2108  0.3040  1.0600
  150SAPE  H15X16595   0.899   3.582   5.417  1.1099 -0.8579  0.2654
  150SAPE  H15Y16596   0.721   3.567   5.410 -1.5106 -2.5748 -1.1772
  150SAPE  C31616597   0.813   3.662   5.237 -0.1068 -0.2239  1.2158
  150SAPE  H16X16598   0.894   3.646   5.163 -0.9420  0.1928  0.1842
  150SAPE  H16Y16599   0.843   3.755   5.291  0.6472 -0.0574  0.5311
  150SAPE  C31716600   0.682   3.688   5.167  0.5273 -0.0342 -0.3127
  150SAPE  H17X16601   0.609   3.696   5.250  1.3401 -4.6349  1.0982
  150SAPE  H17Y16602   0.660   3.593   5.115 -0.9010 -1.1538  2.1551
  150SAPE  C31816603   0.675   3.817   5.086 -0.3940 -0.9699  0.1879
  150SAPE  H18X16604   0.580   3.817   5.027 -0.0368 -1.5316 -0.3994
  150SAPE  H18Y16605   0.761   3.830   5.017  0.8570  1.5609  2.0403
  150SAPE  H18Z16606   0.674   3.899   5.161  2.3582 -1.3040  0.6715
  151SAPE     N16607   1.957   0.334   7.758  0.2862  0.4297  0.1244
  151SAPE   HN116608   1.927   0.236   7.740  1.4545  0.3972 -2.0202
  151SAPE   HN216609   2.020   0.340   7.840  1.7401  0.2558 -0.9310
  151SAPE   HN316610   1.875   0.395   7.777  0.8245  0.7739  1.4847
  151SAPE   C1216611   2.026   0.383   7.631 -0.2832  0.2436 -0.2522
  151SAPE  H12A16612   2.104   0.307   7.608 -0.9912 -1.4731  2.5072
  151SAPE  H12B16613   2.077   0.480   7.648 -1.0442  0.6884 -0.4767
  151SAPE   C1116614   1.930   0.378   7.513  0.2184  0.3310  0.5968
  151SAPE  H11A16615   1.893   0.274   7.504 -0.6748  0.5695  1.3610
  151SAPE  H11B16616   1.982   0.392   7.416  0.9861 -0.6230  0.8569
  151SAPE     P16617   1.813   0.622   7.521  0.0687 -0.0647  0.5542
  151SAPE   O1316618   1.674   0.673   7.534 -0.4937 -0.0442  0.3010
  151SAPE   O1416619   1.902   0.670   7.626 -0.3252  0.0624  0.1222
  151SAPE   O1216620   1.813   0.458   7.524  0.3321 -0.3522  0.1484
  151SAPE   O1116621   1.881   0.652   7.381  0.1532 -0.7617 -0.0999
  151SAPE    C116622   1.824   0.605   7.261  0.9515 -0.0009  0.2929
  151SAPE    HA16623   1.819   0.495   7.276  2.4985 -0.0408  0.6383
  151SAPE    HB16624   1.719   0.643   7.260  0.0401 -2.2733  1.4899
  151SAPE    C216625   1.912   0.643   7.147  0.2132  0.2668 -0.2119
  151SAPE    HS16626   1.932   0.752   7.138 -0.2964  0.2817 -1.4509
  151SAPE   O2116627   1.862   0.593   7.023  0.4829 -0.0816 -0.0495
  151SAPE   C2116628   1.748   0.656   6.980  0.0980 -0.1000 -0.2905
  151SAPE   O2216629   1.701   0.753   7.036 -0.0035 -0.1833 -0.6605
  151SAPE   C2216630   1.695   0.588   6.856 -0.2935  0.4704 -0.4050
  151SAPE   H2R16631   1.781   0.543   6.801 -0.7021 -1.1650  0.2143
  151SAPE   H2S16632   1.632   0.505   6.896  3.2200 -1.5558  1.5261
  151SAPE    C316633   2.058   0.594   7.175  0.3647  0.2025 -0.1946
  151SAPE    HX16634   2.091   0.652   7.264 -0.5402  0.8473 -0.2705
  151SAPE    HY16635   2.115   0.635   7.089  1.8122 -0.9864  0.1477
  151SAPE   O3116636   2.077   0.455   7.190  0.5790  0.0688 -0.2702
  151SAPE   C3116637   2.195   0.411   7.156 -0.4542 -0.1084 -0.3794
  151SAPE   O3216638   2.296   0.478   7.138 -0.5037 -0.3941 -0.2589
  151SAPE   C3216639   2.190   0.261   7.145 -0.5028  0.0183  0.0606
  151SAPE   H2X16640   2.088   0.221   7.127  0.0813 -1.9364  0.7881
  151SAPE   H2Y16641   2.239   0.225   7.238  2.7028  0.0637 -1.4553
  151SAPE   C2316642   1.602   0.677   6.775 -0.1193  0.7080 -0.8344
  151SAPE   H3R16643   1.667   0.753   6.726  0.5235 -0.0065 -1.1110
  151SAPE   H3S16644   1.528   0.721   6.845  0.4025 -0.1607  0.2842
  151SAPE   C2416645   1.518   0.596   6.669  0.4253 -0.3252 -0.2049
  151SAPE   H4R16646   1.465   0.510   6.714  0.5043  0.2172  0.9792
  151SAPE   H4S16647   1.585   0.543   6.598 -0.5193 -0.6557 -0.8546
  151SAPE   C2516648   1.424   0.686   6.590  0.2173 -0.0016  0.0484
  151SAPE   H5R16649   1.328   0.701   6.642  0.7670  0.9783  0.8085
  151SAPE   C2616650   1.445   0.729   6.466  0.0271  1.1185 -0.1950
  151SAPE   H6R16651   1.373   0.804   6.430  0.2487  1.8536  0.8557
  151SAPE   C2716652   1.573   0.699   6.387  0.1774 -0.6259  0.3519
  151SAPE   H7R16653   1.656   0.663   6.451  0.7576 -0.0614 -0.0585
  151SAPE   H7S16654   1.628   0.784   6.341  1.4481 -1.2723  0.6444
  151SAPE   C2816655   1.535   0.585   6.297  0.0301  0.2008  0.1970
  151SAPE   H8R16656   1.559   0.484   6.333  1.2909 -0.7998 -3.1071
  151SAPE   C2916657   1.493   0.603   6.165  0.2792 -0.0122  0.1779
  151SAPE   H9R16658   1.465   0.516   6.105  0.6799  0.3702 -0.5678
  151SAPE  C21016659   1.485   0.733   6.084  0.3863  0.6417 -0.9443
  151SAPE  H10R16660   1.556   0.723   5.999  1.9625 -0.2413  0.4152
  151SAPE  H10S16661   1.510   0.820   6.147 -1.8395  1.5858 -1.2829
  151SAPE  C21116662   1.345   0.754   6.033  0.6185  0.4210 -0.3105
  151SAPE  H11R16663   1.274   0.670   6.047  1.4574 -0.4890 -1.3204
  151SAPE  C21216664   1.307   0.870   5.976 -0.1680  0.2537 -0.2800
  151SAPE  H12R16665   1.209   0.875   5.927 -0.3001  3.2612  0.1239
  151SAPE  C21316666   1.392   0.988   5.955 -0.0966  0.1224 -0.3547
  151SAPE  H13R16667   1.468   0.975   5.875 -0.7057  0.7853 -1.0638
  151SAPE  H13S16668   1.445   1.021   6.046  1.8511  2.5603 -2.2220
  151SAPE  C21416669   1.310   1.104   5.916 -0.0403  0.8808 -0.0571
  151SAPE  H14R16670   1.235   1.133   5.992 -0.2151 -0.5027  0.3199
  151SAPE  C21516671   1.311   1.176   5.802  0.5672 -0.3775 -0.2218
  151SAPE  H15R16672   1.243   1.261   5.789 -0.1740 -1.2402 -2.2618
  151SAPE  C21616673   1.395   1.152   5.680  0.3315  0.2352 -0.0788
  151SAPE  H16R16674   1.372   1.221   5.596  0.8913 -1.2785 -1.5276
  151SAPE  H16S16675   1.386   1.049   5.640 -1.4179  0.5780 -0.6579
  151SAPE  C21716676   1.537   1.194   5.711 -0.0981  0.3958  0.4096
  151SAPE  H17R16677   1.584   1.134   5.792  1.6326  1.1678  0.0321
  151SAPE  H17S16678   1.549   1.296   5.753  2.7564 -0.8435  3.0375
  151SAPE  C21816679   1.622   1.206   5.583 -0.5568 -0.3935 -1.1478
  151SAPE  H18R16680   1.623   1.311   5.546 -1.3095  1.2385  2.8864
  151SAPE  H18S16681   1.574   1.138   5.509 -4.3788  0.9021 -0.0839
  151SAPE  C21916682   1.769   1.165   5.599 -0.1629 -0.3344  0.0441
  151SAPE  H19R16683   1.800   1.207   5.697 -1.6141 -0.3128  0.5099
  151SAPE  H19S16684   1.829   1.197   5.511 -1.9123 -0.9946 -1.4642
  151SAPE  C22016685   1.788   1.016   5.605  0.7834  0.0107 -0.3166
  151SAPE  H20R16686   1.760   0.959   5.515  0.0909 -0.6494  0.3014
  151SAPE  H20S16687   1.724   0.989   5.692 -0.7104 -1.4831 -1.8215
  151SAPE  H20T16688   1.886   0.975   5.637  0.2098 -1.1470 -0.0122
  151SAPE   C3316689   2.285   0.196   7.041  0.2449 -0.1322 -0.5142
  151SAPE   H3X16690   2.268   0.087   7.045  1.2807 -0.3126 -0.7503
  151SAPE   H3Y16691   2.389   0.220   7.072 -0.1414  1.4581 -0.3574
  151SAPE   C3416692   2.246   0.260   6.904 -0.2279 -0.4706  0.0618
  151SAPE   H4X16693   2.271   0.368   6.907 -2.6756  0.1532  2.8569
  151SAPE   H4Y16694   2.138   0.247   6.879 -0.6928 -1.1269  2.2371
  151SAPE   C3516695   2.337   0.204   6.800  0.4254 -0.2387  0.4538
  151SAPE   H5X16696   2.324   0.094   6.800 -0.0966 -0.1812 -0.0053
  151SAPE   H5Y16697   2.443   0.220   6.832  0.6866  0.6711 -0.8061
  151SAPE   C3616698   2.311   0.261   6.662 -0.5621  0.0576  0.4545
  151SAPE   H6X16699   2.347   0.366   6.665  0.4070 -0.2767  0.9658
  151SAPE   H6Y16700   2.202   0.269   6.641 -0.2202  3.0485 -0.6476
  151SAPE   C3716701   2.381   0.184   6.554  0.2656 -0.3210  0.3743
  151SAPE   H7X16702   2.343   0.080   6.557 -3.0053  0.7086 -0.8685
  151SAPE   H7Y16703   2.490   0.184   6.578  0.5133  0.3168 -0.6826
  151SAPE   C3816704   2.371   0.241   6.410 -0.1053  0.4552 -0.5696
  151SAPE   H8X16705   2.356   0.351   6.412 -1.2403  0.2972  1.1502
  151SAPE   H8Y16706   2.283   0.189   6.365 -2.9037  0.8125  3.9242
  151SAPE   C3916707   2.500   0.213   6.332 -0.4748 -0.9572  0.8508
  151SAPE   H9X16708   2.493   0.107   6.299  0.1487 -1.0736  1.0729
  151SAPE   H9Y16709   2.587   0.223   6.401 -1.3275  2.8858  1.6344
  151SAPE  C31016710   2.524   0.307   6.210  0.5814 -0.2068  0.1055
  151SAPE  H10X16711   2.631   0.305   6.179  0.5412 -1.9133 -0.0363
  151SAPE  H10Y16712   2.492   0.404   6.252 -0.8291 -0.4408 -0.3733
  151SAPE  C31116713   2.444   0.259   6.085 -0.4544  0.2615  0.2818
  151SAPE  H11X16714   2.335   0.262   6.107 -0.1339  2.0214  1.9124
  151SAPE  H11Y16715   2.465   0.151   6.072 -1.8766  0.0327 -0.3283
  151SAPE  C31216716   2.480   0.343   5.963  0.7522 -0.1876 -0.0723
  151SAPE  H12X16717   2.590   0.345   5.955  0.8081 -0.0758  0.6715
  151SAPE  H12Y16718   2.445   0.448   5.966 -0.4352 -0.5320 -0.8443
  151SAPE  C31316719   2.412   0.285   5.843  0.5103  0.4923 -0.0994
  151SAPE  H13X16720   2.306   0.287   5.876  1.5160  0.8004  3.5873
  151SAPE  H13Y16721   2.450   0.181   5.834  0.2290  0.5610 -2.9045
  151SAPE  C31416722   2.453   0.360   5.714 -0.1450 -0.1724 -0.0728
  151SAPE  H14X16723   2.564   0.365   5.717 -0.0496  1.4773 -2.6757
  151SAPE  H14Y16724   2.414   0.464   5.723  1.3545  0.2984  1.5205
  151SAPE  C31516725   2.416   0.290   5.582 -0.5885 -0.2753  0.2139
  151SAPE  H15X16726   2.305   0.287   5.578 -0.5413 -1.1819 -0.9290
  151SAPE  H15Y16727   2.443   0.183   5.574  0.7205 -0.1203  1.9539
  151SAPE  C31616728   2.479   0.370   5.463 -0.4779 -0.5717 -0.0698
  151SAPE  H16X16729   2.575   0.316   5.454  0.0130 -0.6110  3.6813
  151SAPE  H16Y16730   2.484   0.479   5.485 -1.3397 -0.1379 -1.8078
  151SAPE  C31716731   2.386   0.362   5.345 -0.0145  0.0137  0.6242
  151SAPE  H17X16732   2.287   0.408   5.367 -0.3412 -1.1897  1.8119
  151SAPE  H17Y16733   2.367   0.255   5.320 -2.0072  0.8634 -1.9137
  151SAPE  C31816734   2.447   0.429   5.222  0.0546 -0.0655 -0.0643
  151SAPE  H18X16735   2.548   0.389   5.201  0.8156  0.9408  1.5079
  151SAPE  H18Y16736   2.470   0.536   5.243 -0.8316  1.3530 -4.9675
  151SAPE  H18Z16737   2.380   0.427   5.133  2.8360  2.5580 -2.4638
  152SAPE     N16738   1.827   1.226   7.223 -0.0553  0.2547  0.2432
  152SAPE   HN116739   1.911   1.168   7.243 -0.0256  0.4478  0.6867
  152SAPE   HN216740   1.766   1.180   7.152  1.3910 -0.4488 -0.6045
  152SAPE   HN316741   1.855   1.312   7.172 -1.5942 -0.8238 -2.6288
  152SAPE   C1216742   1.750   1.262   7.344  0.1205  0.2409  0.0919
  152SAPE  H12A16743   1.685   1.177   7.373 -0.9338 -0.1482 -3.0188
  152SAPE  H12B16744   1.681   1.340   7.305 -0.5860  0.0494  0.9328
  152SAPE   C1116745   1.838   1.309   7.457 -0.3909  0.0122 -0.3999
  152SAPE  H11A16746   1.902   1.225   7.491 -2.4503 -1.9394 -1.0890
  152SAPE  H11B16747   1.780   1.337   7.547  1.2419 -1.9943  1.3725
  152SAPE     P16748   2.017   1.503   7.496  0.0441 -0.1695 -0.3873
  152SAPE   O1316749   1.951   1.532   7.627 -0.0968 -0.0988 -0.0271
  152SAPE   O1416750   2.152   1.444   7.499 -0.7144  0.3526  0.1679
  152SAPE   O1216751   1.924   1.416   7.413 -0.2246 -0.2805 -0.2050
  152SAPE   O1116752   2.029   1.638   7.409  0.1684  0.4517 -0.0673
  152SAPE    C116753   1.909   1.691   7.351  0.1150 -0.1724 -0.4620
  152SAPE    HA16754   1.821   1.680   7.419  1.3100  1.7374  1.5325
  152SAPE    HB16755   1.917   1.801   7.340 -0.5232 -0.2070 -1.4747
  152SAPE    C216756   1.879   1.640   7.210 -0.4552 -0.1290  0.2438
  152SAPE    HS16757   1.846   1.535   7.222  1.6372 -0.7031  1.5610
  152SAPE   O2116758   1.990   1.643   7.113 -0.2317 -0.3091 -0.0217
  152SAPE   C2116759   2.026   1.530   7.062  0.0287 -0.3292  0.3638
  152SAPE   O2216760   1.969   1.423   7.080 -0.1475 -0.1542  0.3980
  152SAPE   C2216761   2.152   1.551   6.979 -0.6553  0.0883  1.1430
  152SAPE   H2R16762   2.156   1.655   6.940 -1.7455  0.8963  3.0460
  152SAPE   H2S16763   2.235   1.544   7.052 -0.2164 -1.6020  0.5352
  152SAPE    C316764   1.764   1.725   7.163 -0.0260 -0.0714  0.0115
  152SAPE    HX16765   1.786   1.833   7.171 -2.0621  0.4335 -0.6034
  152SAPE    HY16766   1.686   1.692   7.235  0.0886 -0.4417 -0.0315
  152SAPE   O3116767   1.716   1.681   7.033  0.3659 -0.3149  0.6736
  152SAPE   C3116768   1.731   1.775   6.938  0.3780  0.7058  0.6914
  152SAPE   O3216769   1.780   1.888   6.944  0.8703  0.2276  0.1943
  152SAPE   C3216770   1.681   1.707   6.804 -0.6120  0.5128  0.1378
  152SAPE   H2X16771   1.576   1.742   6.796 -0.2272  1.5254 -0.7072
  152SAPE   H2Y16772   1.675   1.597   6.820 -2.9453  0.6637  0.6002
  152SAPE   C2316773   2.169   1.451   6.857 -0.1911 -0.1811  0.0795
  152SAPE   H3R16774   2.171   1.346   6.894 -2.4135  0.3099  1.8626
  152SAPE   H3S16775   2.269   1.466   6.813  1.0435 -1.5046  2.2623
  152SAPE   C2416776   2.079   1.479   6.738  0.1800  0.5698  0.4822
  152SAPE   H4R16777   2.103   1.578   6.692  1.4545 -0.4061 -1.0472
  152SAPE   H4S16778   1.976   1.499   6.775 -0.0641  1.3462 -0.5610
  152SAPE   C2516779   2.071   1.365   6.638  0.2205 -0.9130  0.3875
  152SAPE   H5R16780   2.046   1.265   6.676 -2.0877  0.3865  2.6245
  152SAPE   C2616781   2.080   1.378   6.503 -1.2124 -0.1544  0.3455
  152SAPE   H6R16782   2.066   1.285   6.446 -2.0117 -0.4912  1.0829
  152SAPE   C2716783   2.117   1.505   6.423  0.1062 -0.0456  0.1443
  152SAPE   H7R16784   2.186   1.475   6.341  2.3502  2.7902  0.8144
  152SAPE   H7S16785   2.179   1.574   6.485 -1.2756  0.5102  0.9411
  152SAPE   C2816786   1.995   1.567   6.360 -0.1493  0.6462 -0.1840
  152SAPE   H8R16787   1.919   1.613   6.424 -0.7894  0.5576 -0.8747
  152SAPE   C2916788   1.961   1.561   6.229  0.2903  1.0430  0.5289
  152SAPE   H9R16789   1.862   1.601   6.206 -0.4793  0.1651  2.1415
  152SAPE  C21016790   2.012   1.481   6.114 -0.4271  0.1776 -0.1937
  152SAPE  H10R16791   2.095   1.423   6.160 -0.6216 -1.1485 -1.4521
  152SAPE  H10S16792   2.052   1.546   6.033 -0.8878 -0.5684 -1.0325
  152SAPE  C21116793   1.913   1.374   6.065 -0.4718  0.2575 -1.0875
  152SAPE  H11R16794   1.919   1.275   6.113  2.0061  0.9087  0.1033
  152SAPE  C21216795   1.831   1.387   5.955 -0.4699  0.5200 -0.0764
  152SAPE  H12R16796   1.756   1.311   5.930 -0.5292 -0.6367  3.1369
  152SAPE  C21316797   1.815   1.509   5.867 -0.3025 -1.3551  0.1800
  152SAPE  H13R16798   1.865   1.588   5.928  0.0414 -0.3634 -1.3242
  152SAPE  H13S16799   1.711   1.544   5.854 -0.3445 -1.3950  0.4123
  152SAPE  C21416800   1.888   1.522   5.731  0.2564  0.3376 -0.6562
  152SAPE  H14R16801   1.992   1.487   5.732 -0.1534 -0.9694  0.7777
  152SAPE  C21516802   1.834   1.570   5.614  0.1356 -0.9989  0.4201
  152SAPE  H15R16803   1.896   1.588   5.525 -0.1585 -1.9511  0.0136
  152SAPE  C21616804   1.692   1.606   5.613 -0.2642  0.0596  0.1285
  152SAPE  H16R16805   1.684   1.687   5.689  1.1982  0.9046 -0.5721
  152SAPE  H16S16806   1.633   1.516   5.638  0.5242 -0.8317 -1.1359
  152SAPE  C21716807   1.651   1.687   5.487  0.8591  0.8280  0.7471
  152SAPE  H17R16808   1.741   1.741   5.451  2.2444 -1.7970 -0.0101
  152SAPE  H17S16809   1.570   1.758   5.513 -0.7466 -0.9739  0.9322
  152SAPE  C21816810   1.625   1.595   5.362 -0.5706 -0.4810 -0.4603
  152SAPE  H18R16811   1.547   1.524   5.395 -0.5551 -0.6822 -0.8571
  152SAPE  H18S16812   1.716   1.532   5.350 -0.0895 -0.5768  2.7088
  152SAPE  C21916813   1.577   1.662   5.239 -0.2037  0.0525  1.1699
  152SAPE  H19R16814   1.640   1.748   5.209 -2.9076  1.2787 -1.4550
  152SAPE  H19S16815   1.476   1.707   5.245  0.2397  1.5711 -1.5137
  152SAPE  C22016816   1.573   1.552   5.132 -0.1498 -0.7706 -0.2004
  152SAPE  H20R16817   1.668   1.495   5.130 -1.4869 -3.1318 -0.4025
  152SAPE  H20S16818   1.553   1.597   5.032 -1.7256  0.4417  0.5991
  152SAPE  H20T16819   1.495   1.480   5.165  0.4158 -1.4505 -0.3215
  152SAPE   C3316820   1.762   1.743   6.678 -0.8052 -0.1965  0.8246
  152SAPE   H3X16821   1.860   1.690   6.679  0.6605  2.3226  1.3142
  152SAPE   H3Y16822   1.792   1.850   6.679 -0.8049 -0.2008  1.4065
  152SAPE   C3416823   1.686   1.724   6.551  0.5302  0.5521 -0.0565
  152SAPE   H4X16824   1.725   1.774   6.459  0.0018  1.7625  0.3501
  152SAPE   H4Y16825   1.592   1.784   6.553  1.2092  1.6884 -0.9221
  152SAPE   C3516826   1.659   1.577   6.516  0.0371 -0.3274 -1.2133
  152SAPE   H5X16827   1.582   1.539   6.586  0.3414  1.3838  0.1225
  152SAPE   H5Y16828   1.753   1.522   6.539  0.8101  0.9765 -1.1578
  152SAPE   C3616829   1.615   1.565   6.373  0.1893 -0.3292  0.8092
  152SAPE   H6X16830   1.694   1.612   6.310 -3.3985  1.4585 -2.7987
  152SAPE   H6Y16831   1.524   1.628   6.364  0.6581  0.5627  2.0497
  152SAPE   C3716832   1.582   1.422   6.317  0.0554 -0.0588 -0.3173
  152SAPE   H7X16833   1.661   1.346   6.332 -0.3955 -0.6563 -0.9388
  152SAPE   H7Y16834   1.550   1.433   6.211 -1.1048  2.9594  0.2371
  152SAPE   C3816835   1.454   1.365   6.386 -0.7558  0.6353  0.0629
  152SAPE   H8X16836   1.363   1.427   6.371 -0.6603  0.3170 -2.2196
  152SAPE   H8Y16837   1.467   1.368   6.496  0.3286 -1.1150  0.0277
  152SAPE   C3916838   1.415   1.224   6.338 -0.0354  0.0224  0.3270
  152SAPE   H9X16839   1.489   1.144   6.360  0.3994  0.2262 -0.3740
  152SAPE   H9Y16840   1.389   1.219   6.231  0.0038 -2.6338  0.3797
  152SAPE  C31016841   1.277   1.192   6.414  0.4317 -0.2243  0.0292
  152SAPE  H10X16842   1.202   1.272   6.397 -1.8355 -2.1713  0.3611
  152SAPE  H10Y16843   1.318   1.190   6.517 -0.1137  0.6568  0.2724
  152SAPE  C31116844   1.216   1.062   6.365 -1.5201 -0.8612  0.5116
  152SAPE  H11X16845   1.292   0.982   6.382 -2.8049 -2.1740  0.3333
  152SAPE  H11Y16846   1.196   1.068   6.257 -2.6680  0.7572  0.7902
  152SAPE  C31216847   1.087   1.008   6.436  0.4030  0.0889 -0.0590
  152SAPE  H12X16848   1.102   1.012   6.545 -0.2484 -1.6045  0.1213
  152SAPE  H12Y16849   1.061   0.905   6.403 -3.5655  0.5989  0.9276
  152SAPE  C31316850   0.960   1.088   6.412  0.2772 -0.3819 -0.1483
  152SAPE  H13X16851   0.979   1.187   6.458  0.0691 -0.1364 -0.5763
  152SAPE  H13Y16852   0.866   1.051   6.458  1.3811 -0.6974  1.9331
  152SAPE  C31416853   0.929   1.114   6.264  0.1267 -0.6192  0.1976
  152SAPE  H14X16854   1.009   1.167   6.208 -1.6404  0.3379 -1.5474
  152SAPE  H14Y16855   0.836   1.175   6.255  0.3155 -0.5409 -1.5973
  152SAPE  C31516856   0.892   0.982   6.196 -0.2661 -0.2775 -0.1449
  152SAPE  H15X16857   0.830   0.912   6.256  1.4172  0.1339  2.2611
  152SAPE  H15Y16858   0.987   0.925   6.184 -1.3179 -1.7905 -1.5567
  152SAPE  C31616859   0.824   0.998   6.066  0.3559 -0.3345  0.6359
  152SAPE  H16X16860   0.899   1.036   5.993  1.7349  0.8402  2.5652
  152SAPE  H16Y16861   0.744   1.075   6.066 -0.0584 -0.7122  2.5641
  152SAPE  C31716862   0.762   0.862   6.015 -0.7303 -0.6194 -0.1861
  152SAPE  H17X16863   0.677   0.832   6.081 -0.4091 -1.6584 -0.2360
  152SAPE  H17Y16864   0.845   0.789   6.018  0.3001  0.5094 -0.4336
  152SAPE  C31816865   0.713   0.871   5.867 -0.9331  0.3363 -0.7478
  152SAPE  H18X16866   0.680   0.969   5.827 -0.8165  0.5092 -0.4245
  152SAPE  H18Y16867   0.624   0.804   5.857  1.1399 -2.6793 -0.2724
  152SAPE  H18Z16868   0.790   0.824   5.803  0.2095  0.8599  0.2011
  153SAPE     N16869   5.678   1.677   6.965  0.1739 -0.7654 -0.0252
  153SAPE   HN116870   5.583   1.719   6.971 -1.0547 -3.4519  0.6829
  153SAPE   HN216871   5.738   1.752   7.003  1.6044 -1.4052 -0.9442
  153SAPE   HN316872   5.702   1.671   6.863 -1.1843  0.3717 -0.4449
  153SAPE   C1216873   5.678   1.550   7.045 -0.4713 -0.2680 -0.8185
  153SAPE  H12A16874   5.618   1.471   6.996  1.8947 -2.4984 -0.3851
  153SAPE  H12B16875   5.637   1.570   7.146 -0.5836 -1.1117 -0.6950
  153SAPE   C1116876   5.815   1.504   7.066 -0.5558  0.3523  0.6093
  153SAPE  H11A16877   5.859   1.482   6.967 -2.7197 -0.7262 -0.1622
  153SAPE  H11B16878   5.821   1.407   7.120 -2.0328  0.9880  2.0040
  153SAPE     P16879   6.018   1.566   7.213 -0.0230 -0.0393 -0.1977
  153SAPE   O1316880   6.103   1.688   7.195  0.0623 -0.2001  0.1121
  153SAPE   O1416881   5.972   1.530   7.346  0.3546  0.6421 -0.5084
  153SAPE   O1216882   5.888   1.605   7.128 -0.0128 -0.0198  0.4428
  153SAPE   O1116883   6.084   1.445   7.145  0.0719 -0.5108  0.1789
  153SAPE    C116884   6.223   1.419   7.177  0.0931 -0.4933  0.3199
  153SAPE    HA16885   6.284   1.508   7.201  0.2249 -0.6427  0.5363
  153SAPE    HB16886   6.227   1.365   7.274 -3.4306  2.0096  2.0802
  153SAPE    C216887   6.291   1.345   7.057  0.5279 -0.6296  1.0246
  153SAPE    HS16888   6.396   1.325   7.088  1.3381 -1.6477 -1.9689
  153SAPE   O2116889   6.279   1.428   6.937 -0.1605  0.3126 -0.1045
  153SAPE   C2116890   6.373   1.529   6.932  0.5335 -0.2545 -0.3386
  153SAPE   O2216891   6.444   1.567   7.024  0.1146  0.2512 -0.6339
  153SAPE   C2216892   6.399   1.560   6.786 -0.3708  0.3587 -0.2484
  153SAPE   H2R16893   6.380   1.470   6.724  0.0250  0.6914 -0.8575
  153SAPE   H2S16894   6.323   1.633   6.750 -1.2168 -1.1001 -1.5309
  153SAPE    C316895   6.211   1.208   7.042 -0.5910 -0.5785 -0.0900
  153SAPE    HX16896   6.105   1.241   7.039  0.2557  2.3939 -0.9599
  153SAPE    HY16897   6.229   1.154   7.138  0.2071 -1.9466 -0.9822
  153SAPE   O3116898   6.241   1.128   6.924 -0.2319 -0.1508 -0.3011
  153SAPE   C3116899   6.365   1.079   6.923 -0.8108  0.7745 -0.3521
  153SAPE   O3216900   6.449   1.082   7.017 -0.5096  0.1419  0.6133
  153SAPE   C3216901   6.393   1.039   6.780 -0.1724  0.4022 -0.6106
  153SAPE   H2X16902   6.410   1.133   6.724 -1.4283  1.5336  0.8135
  153SAPE   H2Y16903   6.298   0.989   6.750  0.1482  0.3743 -1.5947
  153SAPE   C2316904   6.540   1.627   6.769  0.3056 -1.2002 -0.7849
  153SAPE   H3R16905   6.611   1.545   6.791  0.5579 -0.8642 -0.3135
  153SAPE   H3S16906   6.563   1.712   6.836 -2.3227 -0.6998 -0.3792
  153SAPE   C2416907   6.570   1.680   6.623 -0.1812 -0.3350 -0.4017
  153SAPE   H4R16908   6.576   1.584   6.568  1.1132 -1.7114  1.9818
  153SAPE   H4S16909   6.672   1.726   6.617  0.5220 -1.9408 -1.5469
  153SAPE   C2516910   6.458   1.759   6.551 -0.8929  0.8585 -1.2753
  153SAPE   H5R16911   6.379   1.795   6.619  0.7848 -0.1070  1.3258
  153SAPE   C2616912   6.445   1.776   6.421  0.0134  0.9053  0.0180
  153SAPE   H6R16913   6.360   1.833   6.382 -0.4889 -0.2222 -0.5996
  153SAPE   C2716914   6.539   1.737   6.310 -0.2762 -0.0347 -0.5664
  153SAPE   H7R16915   6.637   1.701   6.346 -0.5759 -3.0713 -2.4596
  153SAPE   H7S16916   6.564   1.819   6.239  0.6622 -1.0043 -1.3962
  153SAPE   C2816917   6.489   1.623   6.227  0.2851 -0.1435 -0.9602
  153SAPE   H8R16918   6.478   1.532   6.288  1.9368 -1.0034 -1.8837
  153SAPE   C2916919   6.480   1.614   6.093  0.1818 -0.1556 -0.4720
  153SAPE   H9R16920   6.449   1.516   6.053 -0.1897 -1.0382  1.8606
  153SAPE  C21016921   6.502   1.725   5.986 -0.4444 -0.0330 -0.4578
  153SAPE  H10R16922   6.574   1.800   6.026  2.5264 -2.7170 -0.4034
  153SAPE  H10S16923   6.400   1.763   5.963 -0.8083  0.1047  1.2684
  153SAPE  C21116924   6.576   1.680   5.858 -0.2902 -0.2665  0.2472
  153SAPE  H11R16925   6.679   1.647   5.877 -0.2684 -0.3287  0.0215
  153SAPE  C21216926   6.544   1.666   5.727  0.3615  0.0806 -0.2919
  153SAPE  H12R16927   6.619   1.625   5.658  1.2545  0.0104  0.6954
  153SAPE  C21316928   6.414   1.698   5.672 -0.2462  0.0377 -0.7572
  153SAPE  H13R16929   6.338   1.687   5.753  0.4524  0.3125 -0.0539
  153SAPE  H13S16930   6.384   1.618   5.602 -0.1246 -2.1949  1.5855
  153SAPE  C21416931   6.414   1.838   5.617  0.3461  0.0530 -0.7019
  153SAPE  H14R16932   6.401   1.909   5.701 -0.9983 -1.3117  0.2949
  153SAPE  C21516933   6.411   1.871   5.487  0.5684 -0.4152 -0.1773
  153SAPE  H15R16934   6.411   1.979   5.464  0.1260 -0.2819  0.4287
  153SAPE  C21616935   6.406   1.778   5.368  0.0449  1.1360  0.6643
  153SAPE  H16R16936   6.398   1.674   5.405  1.1046  1.8542  3.2282
  153SAPE  H16S16937   6.493   1.780   5.299 -2.4245 -0.7052 -2.8148
  153SAPE  C21716938   6.293   1.818   5.276 -0.3850  0.7137  0.1609
  153SAPE  H17R16939   6.288   1.748   5.189  1.8485  1.6890 -0.8242
  153SAPE  H17S16940   6.316   1.915   5.227 -3.2019  1.5557  0.3133
  153SAPE  C21816941   6.147   1.813   5.337  0.2389 -0.3787  0.1614
  153SAPE  H18R16942   6.131   1.905   5.398 -1.9268 -0.4235 -0.2494
  153SAPE  H18S16943   6.150   1.733   5.414 -1.0841 -0.7377 -0.1320
  153SAPE  C21916944   6.034   1.787   5.225 -0.0796 -0.4038  0.1092
  153SAPE  H19R16945   6.030   1.680   5.197  1.5057 -0.3761 -0.3451
  153SAPE  H19S16946   6.063   1.847   5.136  0.6763  3.3292  2.6250
  153SAPE  C22016947   5.906   1.850   5.290 -0.4991 -0.0292  0.1366
  153SAPE  H20R16948   5.914   1.961   5.285  1.4068 -0.1122  0.6974
  153SAPE  H20S16949   5.897   1.796   5.387 -0.6468  0.5628  0.4607
  153SAPE  H20T16950   5.811   1.830   5.236 -1.0585  0.6738  0.8330
  153SAPE   C3316951   6.519   0.949   6.751  0.5049 -0.2739 -0.1284
  153SAPE   H3X16952   6.503   0.863   6.820 -2.1343  0.7402  0.6360
  153SAPE   H3Y16953   6.606   1.010   6.786  0.6927 -0.7095  0.1730
  153SAPE   C3416954   6.548   0.908   6.605 -0.0396  0.8135  0.0514
  153SAPE   H4X16955   6.454   0.872   6.560 -0.6281  0.8810  1.1890
  153SAPE   H4Y16956   6.618   0.823   6.619 -0.8350  0.4987  2.6620
  153SAPE   C3516957   6.617   1.024   6.526 -0.5071  0.6754  0.3399
  153SAPE   H5X16958   6.708   0.975   6.484 -0.6208  0.5583  0.2292
  153SAPE   H5Y16959   6.661   1.111   6.580 -2.2352  1.7278  0.0940
  153SAPE   C3616960   6.530   1.072   6.412  0.4616  0.0760  1.5023
  153SAPE   H6X16961   6.560   1.166   6.362 -0.3773  0.1789  1.1772
  153SAPE   H6Y16962   6.431   1.100   6.454 -1.5362 -1.8256 -1.5031
  153SAPE   C3716963   6.506   0.953   6.308  0.1310 -0.5087  0.6528
  153SAPE   H7X16964   6.397   0.933   6.299  0.1276 -0.8432  1.3764
  153SAPE   H7Y16965   6.565   0.872   6.354  1.9602  0.7920  0.7182
  153SAPE   C3816966   6.570   1.000   6.178  0.7287  0.3616  1.2909
  153SAPE   H8X16967   6.678   1.027   6.183  0.5986  0.6495  2.9806
  153SAPE   H8Y16968   6.520   1.093   6.146 -0.1117  0.2035  2.1389
  153SAPE   C3916969   6.538   0.901   6.055  0.8089  0.0410 -0.3417
  153SAPE   H9X16970   6.428   0.888   6.050  0.8239  0.1565 -1.1749
  153SAPE   H9Y16971   6.590   0.807   6.084 -0.8987 -0.3844  1.5043
  153SAPE  C31016972   6.590   0.948   5.920  1.0649  0.5956 -0.0768
  153SAPE  H10X16973   6.701   0.944   5.911  1.1767 -0.2952  1.3231
  153SAPE  H10Y16974   6.552   1.045   5.883  0.8260  0.6793  0.3732
  153SAPE  C31116975   6.530   0.847   5.819  0.3218 -0.4704 -0.0992
  153SAPE  H11X16976   6.420   0.852   5.807  0.3025  0.5522  0.4299
  153SAPE  H11Y16977   6.565   0.750   5.860  1.5571  1.5978  4.4198
  153SAPE  C31216978   6.596   0.867   5.681 -0.1855 -0.5239  0.4701
  153SAPE  H12X16979   6.703   0.836   5.687  0.6170  1.0489 -2.9930
  153SAPE  H12Y16980   6.592   0.974   5.651  1.2416  0.3299  3.0206
  153SAPE  C31316981   6.526   0.792   5.572 -0.3534  0.0973  0.2405
  153SAPE  H13X16982   6.419   0.811   5.594 -1.2497 -3.6800 -0.1321
  153SAPE  H13Y16983   6.544   0.684   5.590 -0.1030 -0.2348 -1.8170
  153SAPE  C31416984   6.538   0.840   5.428 -0.1209 -0.1189 -0.3561
  153SAPE  H14X16985   6.647   0.847   5.404 -0.3484 -0.2106 -1.4526
  153SAPE  H14Y16986   6.493   0.941   5.429  1.6609  0.7707 -2.3056
  153SAPE  C31516987   6.459   0.756   5.325  0.1686 -1.3153  0.9004
  153SAPE  H15X16988   6.364   0.708   5.358 -0.6383 -1.8741 -1.9566
  153SAPE  H15Y16989   6.527   0.670   5.305 -0.6764 -2.3379  2.2213
  153SAPE  C31616990   6.448   0.835   5.191  0.5280 -0.3307 -0.1393
  153SAPE  H16X16991   6.553   0.854   5.160 -0.0346  0.5646 -1.5857
  153SAPE  H16Y16992   6.398   0.932   5.212 -2.1722 -1.3493 -1.4143
  153SAPE  C31716993   6.386   0.748   5.086 -0.2959  0.2476 -0.0520
  153SAPE  H17X16994   6.284   0.718   5.118 -0.9195  0.1772 -1.9887
  153SAPE  H17Y16995   6.448   0.656   5.084 -0.5128  0.1171 -1.2265
  153SAPE  C31816996   6.377   0.805   4.940 -0.3726 -0.3635  0.0956
  153SAPE  H18X16997   6.334   0.731   4.869  1.5647 -1.7650  0.2901
  153SAPE  H18Y16998   6.470   0.850   4.897  0.0897 -1.4105 -0.0346
  153SAPE  H18Z16999   6.301   0.885   4.926  0.1850 -0.1688 -2.4498
  154SAPE     N17000   2.849   5.417   7.249  0.2514  0.2765  0.0934
  154SAPE   HN117001   2.916   5.340   7.268 -2.4147 -2.2593 -0.1664
  154SAPE   HN217002   2.776   5.383   7.183 -2.0569  2.5441  1.3013
  154SAPE   HN317003   2.903   5.497   7.209  1.8529 -1.3073 -1.1086
  154SAPE   C1217004   2.783   5.462   7.380  0.3040  0.4714  0.7193
  154SAPE  H12A17005   2.699   5.529   7.352  0.0086  0.0827  0.6613
  154SAPE  H12B17006   2.857   5.519   7.438  1.0261 -0.7318  1.0202
  154SAPE   C1117007   2.732   5.336   7.458  0.0018  0.6085  0.0643
  154SAPE  H11A17008   2.808   5.298   7.530  0.0552  1.1878  0.3208
  154SAPE  H11B17009   2.704   5.260   7.382  3.1895 -0.0025 -0.6402
  154SAPE     P17010   2.477   5.356   7.478  0.2260  0.0897  0.6624
  154SAPE   O1317011   2.452   5.210   7.478 -0.0679 -0.4631 -0.2615
  154SAPE   O1417012   2.384   5.454   7.543 -0.7779  0.4351  0.6411
  154SAPE   O1217013   2.621   5.378   7.537  0.4574 -0.1637  0.0668
  154SAPE   O1117014   2.489   5.397   7.329 -0.0379 -0.3237  0.8420
  154SAPE    C117015   2.430   5.516   7.282 -0.3097  0.0665  0.8125
  154SAPE    HA17016   2.432   5.595   7.360 -0.1319  0.5709  0.2958
  154SAPE    HB17017   2.486   5.554   7.194 -0.9228 -2.3682 -0.7166
  154SAPE    C217018   2.289   5.482   7.234  0.1569  0.4871  0.0081
  154SAPE    HS17019   2.234   5.449   7.325 -0.6042  1.3966 -0.1115
  154SAPE   O2117020   2.299   5.386   7.127 -0.6108 -0.2235 -0.0085
  154SAPE   C2117021   2.194   5.315   7.110  0.3882 -0.4090  0.3997
  154SAPE   O2217022   2.093   5.320   7.180 -0.2554 -0.0539  0.5240
  154SAPE   C2217023   2.213   5.234   6.984  0.1151  0.3332  0.0240
  154SAPE   H2R17024   2.237   5.312   6.909 -0.0441 -0.4553 -0.8603
  154SAPE   H2S17025   2.296   5.160   6.980 -0.8937 -0.7882 -3.5906
  154SAPE    C317026   2.216   5.610   7.182  0.4848  0.1319  0.6838
  154SAPE    HX17027   2.231   5.693   7.254  1.5736 -2.4111  3.6067
  154SAPE    HY17028   2.106   5.590   7.182  0.2043  1.4616  2.2196
  154SAPE   O3117029   2.268   5.654   7.049  0.8164  0.4535 -0.9805
  154SAPE   C3117030   2.214   5.608   6.940  0.0789  0.0452  0.3719
  154SAPE   O3217031   2.115   5.536   6.936 -0.2205 -0.2982 -0.0414
  154SAPE   C3217032   2.287   5.673   6.819  0.1600 -0.9229 -0.6408
  154SAPE   H2X17033   2.397   5.669   6.828  0.1610 -0.3436 -0.3735
  154SAPE   H2Y17034   2.257   5.780   6.813  0.8082 -0.7383 -0.6342
  154SAPE   C2317035   2.087   5.164   6.931  0.1657 -0.0649 -0.8376
  154SAPE   H3R17036   2.011   5.238   6.897  2.5074  2.5232 -0.7962
  154SAPE   H3S17037   2.044   5.103   7.014  0.1580 -1.0658 -1.5533
  154SAPE   C2417038   2.110   5.064   6.814 -0.5853 -0.1415  0.2407
  154SAPE   H4R17039   2.169   4.977   6.850 -0.3222  0.3103  0.9354
  154SAPE   H4S17040   2.164   5.123   6.737 -1.2262  0.8276  0.5145
  154SAPE   C2517041   1.980   5.013   6.761  0.3452  0.1896  0.0919
  154SAPE   H5R17042   1.906   4.983   6.837 -1.0949  0.6806 -1.0610
  154SAPE   C2617043   1.934   5.017   6.631  0.2628  0.6063 -0.3875
  154SAPE   H6R17044   1.827   4.993   6.622  0.5325 -0.5123 -0.7931
  154SAPE   C2717045   2.008   5.064   6.510  0.6184 -0.6745  0.5818
  154SAPE   H7R17046   1.938   5.060   6.424 -0.8942  0.2014  1.7365
  154SAPE   H7S17047   2.084   4.987   6.483  1.1020  0.4808 -1.5853
  154SAPE   C2817048   2.058   5.212   6.516  0.3579 -0.4512  1.0162
  154SAPE   H8R17049   2.071   5.253   6.618 -0.6855  0.2474  0.8837
  154SAPE   C2917050   2.078   5.291   6.412  0.0156 -0.3480  0.3294
  154SAPE   H9R17051   2.119   5.391   6.430 -0.4323 -0.1388  0.1967
  154SAPE  C21017052   2.054   5.262   6.269  0.0134  0.3100 -0.1544
  154SAPE  H10R17053   2.038   5.361   6.221  1.6076  2.0178  2.5600
  154SAPE  H10S17054   1.956   5.210   6.259 -0.6267  0.6836  3.0428
  154SAPE  C21117055   2.160   5.181   6.196 -0.2146  0.3896 -0.1842
  154SAPE  H11R17056   2.203   5.093   6.248  1.8707  0.3941 -1.7757
  154SAPE  C21217057   2.212   5.213   6.078 -0.8832  0.4402  0.0933
  154SAPE  H12R17058   2.297   5.153   6.044 -0.9918 -1.2014  2.4852
  154SAPE  C21317059   2.153   5.304   5.978  0.9534  0.5143  0.6560
  154SAPE  H13R17060   2.232   5.323   5.902  0.6872 -1.8827 -0.3316
  154SAPE  H13S17061   2.153   5.409   6.015 -0.5793  1.3442 -1.4353
  154SAPE  C21417062   2.013   5.270   5.913 -0.1282 -0.0060 -0.4285
  154SAPE  H14R17063   1.951   5.216   5.985  0.9902  0.1158  0.6523
  154SAPE  C21517064   1.970   5.298   5.788  0.0626 -0.0201 -0.3880
  154SAPE  H15R17065   1.868   5.264   5.767  0.2022 -0.9867  0.4868
  154SAPE  C21617066   2.045   5.370   5.671 -0.4267 -0.2079 -0.1151
  154SAPE  H16R17067   2.102   5.451   5.720 -1.6131  0.6879 -0.1785
  154SAPE  H16S17068   1.980   5.422   5.597  0.4681  0.2585 -0.5877
  154SAPE  C21717069   2.128   5.266   5.603  0.2621 -0.7546 -0.2204
  154SAPE  H17R17070   2.054   5.189   5.573 -0.4186 -0.3859  0.4767
  154SAPE  H17S17071   2.196   5.216   5.676 -0.3493 -0.5425  0.5033
  154SAPE  C21817072   2.217   5.310   5.480 -0.2686  0.3799 -1.3749
  154SAPE  H18R17073   2.163   5.376   5.409  0.0858 -0.8702 -2.8463
  154SAPE  H18S17074   2.244   5.216   5.429  2.1570  0.2032  0.0905
  154SAPE  C21917075   2.348   5.355   5.543  0.5176  0.4994  0.5151
  154SAPE  H19R17076   2.402   5.271   5.591 -1.7508 -1.1087  0.4066
  154SAPE  H19S17077   2.335   5.423   5.631  0.3128 -0.6902  1.4234
  154SAPE  C22017078   2.434   5.422   5.441 -0.1020 -0.9010 -0.4718
  154SAPE  H20R17079   2.395   5.522   5.414  1.3484 -0.2099 -0.1405
  154SAPE  H20S17080   2.433   5.365   5.346 -0.4827 -0.5371 -0.6878
  154SAPE  H20T17081   2.540   5.431   5.476 -0.5635 -0.0498  0.7829
  154SAPE   C3317082   2.249   5.619   6.680 -0.1722  0.0665  0.4867
  154SAPE   H3X17083   2.143   5.650   6.667  0.5626  3.5157  1.6365
  154SAPE   H3Y17084   2.255   5.508   6.681 -0.9834  0.0173  0.6127
  154SAPE   C3417085   2.336   5.676   6.563 -0.3529 -0.5134 -0.0686
  154SAPE   H4X17086   2.443   5.667   6.594 -1.4305 -1.5105  3.8821
  154SAPE   H4Y17087   2.313   5.779   6.529  0.8177 -0.0115  0.5887
  154SAPE   C3517088   2.318   5.599   6.435 -0.6004  0.5349  0.3252
  154SAPE   H5X17089   2.212   5.593   6.406 -0.5208 -1.7001  0.3711
  154SAPE   H5Y17090   2.346   5.493   6.456 -0.7761 -0.0481 -2.1459
  154SAPE   C3617091   2.392   5.660   6.317 -0.5209 -0.5089  0.3798
  154SAPE   H6X17092   2.499   5.663   6.347 -1.0424  0.5360  2.2956
  154SAPE   H6Y17093   2.351   5.762   6.319  1.0206  0.1950  4.2759
  154SAPE   C3717094   2.361   5.590   6.182 -0.3022  0.2491  0.6453
  154SAPE   H7X17095   2.259   5.547   6.174  0.5272 -1.5727 -0.7026
  154SAPE   H7Y17096   2.442   5.516   6.193  1.0979  1.5557 -0.4733
  154SAPE   C3817097   2.388   5.689   6.070  0.3948 -0.0071  0.0653
  154SAPE   H8X17098   2.478   5.749   6.092  2.0617 -2.2152 -0.3621
  154SAPE   H8Y17099   2.300   5.757   6.068 -0.3443 -0.9531 -0.3666
  154SAPE   C3917100   2.410   5.620   5.940  0.1361  0.3550  0.4323
  154SAPE   H9X17101   2.314   5.584   5.896  1.2192  0.6490 -2.3813
  154SAPE   H9Y17102   2.486   5.540   5.949 -0.0030  0.1410 -0.2533
  154SAPE  C31017103   2.457   5.718   5.826 -0.1140 -0.7025  0.0111
  154SAPE  H10X17104   2.509   5.808   5.868 -1.8277  0.4323 -0.2218
  154SAPE  H10Y17105   2.368   5.760   5.774  1.4556  3.5321  0.2929
  154SAPE  C31117106   2.555   5.645   5.730  0.2843  0.3645 -0.2063
  154SAPE  H11X17107   2.500   5.560   5.684 -0.5641  1.2907 -0.9551
  154SAPE  H11Y17108   2.641   5.610   5.791  0.7533  2.7726  0.5875
  154SAPE  C31217109   2.619   5.743   5.629  0.1218  0.4431  0.0992
  154SAPE  H12X17110   2.694   5.685   5.571 -0.8341 -0.7339 -0.0108
  154SAPE  H12Y17111   2.681   5.826   5.668 -0.4416  0.0888  1.8386
  154SAPE  C31317112   2.516   5.801   5.527  0.4170  0.1271  0.1294
  154SAPE  H13X17113   2.442   5.860   5.584 -0.2080  0.8843 -1.4001
  154SAPE  H13Y17114   2.463   5.715   5.483 -2.5513  1.0366  1.6969
  154SAPE  C31417115   2.565   5.880   5.408  0.1091 -0.0310  0.3541
  154SAPE  H14X17116   2.623   5.819   5.335  2.1141  0.2889  1.6054
  154SAPE  H14Y17117   2.636   5.955   5.450  3.5327 -3.5200  1.4334
  154SAPE  C31517118   2.443   5.945   5.329 -0.2101  0.0167 -0.5323
  154SAPE  H15X17119   2.392   6.017   5.396  0.0162 -1.3985  1.2258
  154SAPE  H15Y17120   2.358   5.877   5.307 -1.3075  1.1566  0.0698
  154SAPE  C31617121   2.480   5.997   5.193 -0.3869 -0.0145  1.1214
  154SAPE  H16X17122   2.389   6.034   5.140  0.3707  1.0461  0.5147
  154SAPE  H16Y17123   2.522   5.918   5.127 -1.3783 -0.4849  1.0250
  154SAPE  C31717124   2.583   6.117   5.194 -0.8374  0.3673 -0.4215
  154SAPE  H17X17125   2.614   6.125   5.087 -2.1731 -1.2833 -0.9857
  154SAPE  H17Y17126   2.672   6.085   5.251 -1.5149 -0.6044  0.1157
  154SAPE  C31817127   2.526   6.249   5.243  0.8212  0.6581  0.2888
  154SAPE  H18X17128   2.604   6.320   5.278 -0.8020  2.0015  1.3642
  154SAPE  H18Y17129   2.462   6.231   5.332 -0.3209  2.1504 -0.1898
  154SAPE  H18Z17130   2.456   6.296   5.171  0.6250 -0.6858 -0.4405
  155SAPE     N17131   1.508   5.516   7.222 -0.0102 -0.8412  0.0608
  155SAPE   HN117132   1.436   5.589   7.236  0.3295 -0.5499  0.2983
  155SAPE   HN217133   1.559   5.542   7.135  0.6763 -1.5827  0.2276
  155SAPE   HN317134   1.462   5.423   7.210 -0.9169 -0.3484 -0.4095
  155SAPE   C1217135   1.604   5.519   7.336  0.0911  0.0043  0.5690
  155SAPE  H12A17136   1.659   5.423   7.331 -0.2373 -0.4770  3.8752
  155SAPE  H12B17137   1.547   5.517   7.431  0.5321  0.6044  0.8495
  155SAPE   C1117138   1.692   5.647   7.335  0.2275 -0.4763 -0.4563
  155SAPE  H11A17139   1.760   5.637   7.248  3.1731  1.5203  1.4143
  155SAPE  H11B17140   1.762   5.640   7.421  1.1568 -0.0783 -1.1555
  155SAPE     P17141   1.558   5.841   7.445 -0.1102 -0.2904  0.0609
  155SAPE   O1317142   1.532   5.753   7.562 -0.1625  0.0161  0.1580
  155SAPE   O1417143   1.647   5.952   7.479 -0.6004  0.2947 -0.2805
  155SAPE   O1217144   1.610   5.762   7.315 -0.0202  0.5253 -0.0331
  155SAPE   O1117145   1.417   5.891   7.394  0.2910  0.2743  0.1093
  155SAPE    C117146   1.388   6.023   7.356 -1.3521 -0.3197  0.3886
  155SAPE    HA17147   1.289   6.036   7.403 -1.9270  1.9000 -1.2890
  155SAPE    HB17148   1.448   6.102   7.406 -3.8020  0.9097  1.5380
  155SAPE    C217149   1.374   6.036   7.205  0.4465  0.6127 -0.3495
  155SAPE    HS17150   1.344   6.140   7.179  3.2209  1.3574 -0.8639
  155SAPE   O2117151   1.284   5.943   7.154 -0.1749 -0.1002 -0.3385
  155SAPE   C2117152   1.159   5.977   7.168  0.6186  0.4425  0.0617
  155SAPE   O2217153   1.118   6.074   7.228 -0.0366  0.3241  0.2258
  155SAPE   C2217154   1.071   5.883   7.083 -0.1316  0.7460 -0.0360
  155SAPE   H2R17155   1.075   5.785   7.134  1.0124  0.8019  0.0041
  155SAPE   H2S17156   0.967   5.919   7.071 -1.1738 -1.0878  2.6232
  155SAPE    C317157   1.511   6.011   7.133  0.4053  0.0674  0.1335
  155SAPE    HX17158   1.526   5.901   7.134  1.5620  0.2178  0.8008
  155SAPE    HY17159   1.596   6.061   7.185 -1.0974  2.0621  0.7841
  155SAPE   O3117160   1.504   6.066   6.995 -0.2444 -0.1929  0.7105
  155SAPE   C3117161   1.545   5.982   6.893 -0.2235 -0.1861 -0.4665
  155SAPE   O3217162   1.596   5.876   6.908  0.3323  0.5026  0.0686
  155SAPE   C3217163   1.518   6.040   6.755 -0.0909  0.3196 -0.5661
  155SAPE   H2X17164   1.592   6.122   6.747  0.2261  0.1610  0.5634
  155SAPE   H2Y17165   1.412   6.073   6.747 -0.6661 -0.6534  1.9967
  155SAPE   C2317166   1.127   5.849   6.938 -0.4135 -0.4596 -0.8213
  155SAPE   H3R17167   1.063   5.766   6.901 -1.1447 -0.9789  1.4280
  155SAPE   H3S17168   1.228   5.805   6.951 -0.0802  0.3022 -0.7703
  155SAPE   C2417169   1.136   5.961   6.834  0.1780 -0.3068 -0.2623
  155SAPE   H4R17170   1.193   5.922   6.748 -0.9905 -0.7725 -0.8518
  155SAPE   H4S17171   1.190   6.046   6.882 -0.3446  0.0502 -0.2913
  155SAPE   C2517172   0.999   6.003   6.793  0.0014 -0.0210 -0.5185
  155SAPE   H5R17173   0.952   6.066   6.870 -0.7737  0.8562 -1.6688
  155SAPE   C2617174   0.927   5.980   6.683 -0.0812  0.1543 -0.2429
  155SAPE   H6R17175   0.823   6.016   6.678 -0.4765 -1.0380 -0.8940
  155SAPE   C2717176   0.977   5.887   6.576 -0.5156 -0.0449 -0.7299
  155SAPE   H7R17177   0.898   5.837   6.516 -1.2273 -1.8291  1.5284
  155SAPE   H7S17178   1.031   5.800   6.620 -1.7753 -0.8153 -0.6597
  155SAPE   C2817179   1.081   5.956   6.482  0.0541 -0.2001  0.4020
  155SAPE   H8R17180   1.168   5.988   6.541 -0.5742 -4.0987  4.0019
  155SAPE   C2917181   1.078   5.982   6.350  0.3316 -0.0828 -0.8933
  155SAPE   H9R17182   1.173   6.017   6.306  1.7580 -1.5580  0.8440
  155SAPE  C21017183   0.965   5.944   6.254  0.1867  0.7087 -0.2351
  155SAPE  H10R17184   0.952   6.020   6.174  0.3748 -2.0527 -3.1102
  155SAPE  H10S17185   0.872   5.952   6.313 -0.3307 -0.3421 -0.8739
  155SAPE  C21117186   0.966   5.808   6.197 -1.2006  0.4003  0.2183
  155SAPE  H11R17187   1.013   5.726   6.253  0.8775  1.4437  0.0932
  155SAPE  C21217188   0.913   5.784   6.068  0.2210 -0.3357 -0.8815
  155SAPE  H12R17189   0.937   5.683   6.030 -0.4536 -1.5212  1.5773
  155SAPE  C21317190   0.858   5.882   5.971  0.2966 -0.3242 -0.0378
  155SAPE  H13R17191   0.885   5.847   5.869  0.8662  1.5187 -0.5687
  155SAPE  H13S17192   0.900   5.984   5.985 -2.6951  0.9896  0.0874
  155SAPE  C21417193   0.700   5.893   5.984  0.0574 -0.3143 -0.1778
  155SAPE  H14R17194   0.663   5.864   6.084 -0.9812  1.1210 -0.1202
  155SAPE  C21517195   0.607   5.932   5.894 -0.2325 -0.5550 -0.5564
  155SAPE  H15R17196   0.501   5.928   5.926 -0.0760 -0.1339  0.0330
  155SAPE  C21617197   0.633   5.974   5.758 -0.4099 -0.5468  0.0963
  155SAPE  H16R17198   0.739   5.960   5.730 -1.1002 -1.6610 -2.1780
  155SAPE  H16S17199   0.609   6.082   5.746  0.1888 -0.5778 -1.7587
  155SAPE  C21717200   0.556   5.891   5.656 -0.7498 -0.7066  0.1505
  155SAPE  H17R17201   0.458   5.880   5.708  0.1636 -1.0546  1.8649
  155SAPE  H17S17202   0.602   5.791   5.645  0.4899  0.0334 -1.9474
  155SAPE  C21817203   0.561   5.963   5.514 -0.4174 -0.3067  0.2974
  155SAPE  H18R17204   0.665   5.966   5.476 -0.0651 -1.9589  1.0266
  155SAPE  H18S17205   0.529   6.068   5.534  1.2283  0.0329  1.3292
  155SAPE  C21917206   0.477   5.891   5.409  0.6241  0.5118  0.2632
  155SAPE  H19R17207   0.457   5.955   5.321 -1.5391 -2.4050 -1.5404
  155SAPE  H19S17208   0.380   5.851   5.447 -0.2654  1.1932 -1.2281
  155SAPE  C22017209   0.553   5.770   5.364  0.2514 -0.2298  0.2427
  155SAPE  H20R17210   0.653   5.800   5.326 -0.1887 -0.2001 -0.9488
  155SAPE  H20S17211   0.502   5.721   5.278 -0.9098 -0.1204  0.8532
  155SAPE  H20T17212   0.565   5.696   5.445 -1.4293  0.1020  0.8372
  155SAPE   C3317213   1.540   5.941   6.640 -0.2101  0.1651  0.6285
  155SAPE   H3X17214   1.493   5.844   6.666  2.3199 -1.8863 -1.7788
  155SAPE   H3Y17215   1.649   5.922   6.644 -0.1999  0.4337  2.9593
  155SAPE   C3417216   1.496   5.999   6.505 -0.3789  0.5563  0.6003
  155SAPE   H4X17217   1.537   6.102   6.494  0.0354  0.3569  0.2440
  155SAPE   H4Y17218   1.386   6.010   6.492 -0.2548 -0.1860 -1.3758
  155SAPE   C3517219   1.545   5.911   6.394  0.9432 -0.3247 -0.1251
  155SAPE   H5X17220   1.512   5.806   6.411 -1.0897  0.0729 -1.2243
  155SAPE   H5Y17221   1.655   5.905   6.377  0.7373 -1.9398 -1.0688
  155SAPE   C3617222   1.476   5.941   6.263 -0.5284  0.6051  0.5127
  155SAPE   H6X17223   1.532   6.022   6.210 -0.7556  0.9016  0.7224
  155SAPE   H6Y17224   1.369   5.970   6.274 -0.3987  1.9440 -1.1881
  155SAPE   C3717225   1.468   5.819   6.158  0.0168  0.1201 -0.4899
  155SAPE   H7X17226   1.480   5.719   6.205  1.2915  0.2171 -0.5843
  155SAPE   H7Y17227   1.569   5.829   6.115  0.0035  1.2369 -0.2913
  155SAPE   C3817228   1.348   5.822   6.067 -0.1127  0.4149  0.9142
  155SAPE   H8X17229   1.316   5.926   6.047 -0.7190  0.4930  2.1904
  155SAPE   H8Y17230   1.260   5.791   6.126 -0.5228  1.8180  1.0710
  155SAPE   C3917231   1.372   5.741   5.935  0.6960  0.1813  0.3640
  155SAPE   H9X17232   1.273   5.758   5.887  1.2109  0.3405 -0.6791
  155SAPE   H9Y17233   1.384   5.632   5.951  1.7676  0.3592  0.7926
  155SAPE  C31017234   1.489   5.785   5.853 -0.4760  0.2985  0.1196
  155SAPE  H10X17235   1.589   5.764   5.895  0.7753  0.6367 -2.4627
  155SAPE  H10Y17236   1.489   5.895   5.837  0.2452  0.0666 -1.7537
  155SAPE  C31117237   1.489   5.724   5.710  0.0936 -0.5168 -0.2120
  155SAPE  H11X17238   1.549   5.791   5.645 -2.7547 -0.6248 -3.2531
  155SAPE  H11Y17239   1.388   5.721   5.662 -0.2911  4.2081 -0.2048
  155SAPE  C31217240   1.545   5.584   5.710  0.1100  0.5965  0.0249
  155SAPE  H12X17241   1.463   5.519   5.747 -1.3184  1.7796 -0.9267
  155SAPE  H12Y17242   1.624   5.583   5.788 -0.1456 -0.2942  0.2786
  155SAPE  C31317243   1.595   5.531   5.572 -0.7233  0.4812  0.4073
  155SAPE  H13X17244   1.520   5.526   5.490 -1.1175  0.4196  0.7667
  155SAPE  H13Y17245   1.618   5.423   5.584 -2.2039 -0.0304 -1.0013
  155SAPE  C31417246   1.718   5.602   5.523 -0.2956 -0.6783  0.0217
  155SAPE  H14X17247   1.802   5.608   5.596  0.8099  0.7051 -1.2812
  155SAPE  H14Y17248   1.681   5.705   5.504 -0.1649 -0.6879 -0.2738
  155SAPE  C31517249   1.789   5.547   5.402  0.3580  0.0823  0.4413
  155SAPE  H15X17250   1.726   5.563   5.311 -0.2772 -0.4934  0.7709
  155SAPE  H15Y17251   1.805   5.438   5.402 -0.3820 -0.0489 -0.5787
  155SAPE  C31617252   1.925   5.614   5.372  0.1100 -0.0012  0.2434
  155SAPE  H16X17253   1.992   5.588   5.456 -0.4809 -3.7921 -0.2564
  155SAPE  H16Y17254   1.914   5.722   5.349 -2.3454 -0.0785  0.8034
  155SAPE  C31717255   1.991   5.552   5.249  0.0955  0.0616 -0.3605
  155SAPE  H17X17256   1.923   5.558   5.162  0.2820  4.1783 -0.4027
  155SAPE  H17Y17257   2.004   5.442   5.262 -1.1853  0.0571  1.1337
  155SAPE  C31817258   2.124   5.619   5.209 -0.2693  0.3146  0.7920
  155SAPE  H18X17259   2.157   5.565   5.118 -1.1190  1.8671 -0.5135
  155SAPE  H18Y17260   2.202   5.624   5.287 -0.6818  0.5599  1.1954
  155SAPE  H18Z17261   2.110   5.723   5.172 -0.2733 -0.4275 -1.4691
  156SAPE     N17262   2.299   6.520   7.833 -0.9567 -0.4123  0.7150
  156SAPE   HN117263   2.240   6.575   7.767  2.9548 -0.0509 -2.8749
  156SAPE   HN217264   2.347   6.596   7.886  1.7483 -1.8367  0.4757
  156SAPE   HN317265   2.379   6.475   7.785 -0.6792 -1.5120  2.1513
  156SAPE   C1217266   2.236   6.424   7.930 -0.6685  0.2576  0.3724
  156SAPE  H12A17267   2.127   6.444   7.919 -0.7462 -0.1870  0.2955
  156SAPE  H12B17268   2.276   6.446   8.031  1.6764  1.7563 -0.8071
  156SAPE   C1117269   2.263   6.280   7.877  0.0202 -0.2509 -0.6671
  156SAPE  H11A17270   2.227   6.221   7.964  0.0366  1.2255  0.3785
  156SAPE  H11B17271   2.370   6.256   7.862 -0.1321 -0.2749 -1.7889
  156SAPE     P17272   2.193   6.088   7.716  0.0677  0.3674  0.0660
  156SAPE   O1317273   2.204   6.003   7.835 -0.8031 -0.0691 -0.9053
  156SAPE   O1417274   2.066   6.070   7.645 -0.4598  0.1069 -0.5517
  156SAPE   O1217275   2.196   6.246   7.761  0.0822 -0.4489 -0.1647
  156SAPE   O1117276   2.311   6.067   7.616  0.0858 -0.6638 -0.1195
  156SAPE    C117277   2.391   6.179   7.576  0.0913  0.0656  0.4930
  156SAPE    HA17278   2.334   6.273   7.563 -0.8398 -0.6459 -0.7918
  156SAPE    HB17279   2.465   6.200   7.656  1.6393 -0.9984 -0.6073
  156SAPE    C217280   2.471   6.151   7.443  0.1422 -0.2698  0.0700
  156SAPE    HS17281   2.511   6.245   7.401  1.0801 -0.1913  1.0779
  156SAPE   O2117282   2.386   6.087   7.346 -0.2195 -0.0232 -0.3512
  156SAPE   C2117283   2.307   6.172   7.284  0.2305  0.5458  0.1479
  156SAPE   O2217284   2.310   6.294   7.290 -0.0483 -0.5728 -0.4369
  156SAPE   C2217285   2.202   6.093   7.196 -0.1221 -0.4068  0.1842
  156SAPE   H2R17286   2.204   6.132   7.092 -1.2052  2.5840  1.1805
  156SAPE   H2S17287   2.238   5.988   7.202  0.8130 -0.0309  1.6969
  156SAPE    C317288   2.588   6.066   7.478 -0.1195 -0.7493  0.3743
  156SAPE    HX17289   2.553   5.988   7.549 -3.4247  1.4071  1.3898
  156SAPE    HY17290   2.653   6.134   7.538  0.1373  0.3226 -1.0673
  156SAPE   O3117291   2.656   6.024   7.360 -0.2009  0.0445 -0.4014
  156SAPE   C3117292   2.628   5.896   7.324  0.3658 -0.3190 -0.2441
  156SAPE   O3217293   2.556   5.822   7.384  0.1753 -0.1200 -0.6209
  156SAPE   C3217294   2.691   5.858   7.193 -0.8944 -0.1742 -0.7767
  156SAPE   H2X17295   2.713   5.749   7.200 -0.4298 -0.0329  0.1695
  156SAPE   H2Y17296   2.772   5.932   7.175 -1.3196 -0.1691 -2.9391
  156SAPE   C2317297   2.066   6.112   7.264  0.1538 -0.2559 -1.0174
  156SAPE   H3R17298   2.049   6.218   7.291 -1.1681 -0.9642  1.2288
  156SAPE   H3S17299   2.073   6.069   7.366  1.7153 -0.4623 -1.1881
  156SAPE   C2417300   1.938   6.069   7.189  0.7387  0.1733  0.4274
  156SAPE   H4R17301   1.941   6.136   7.100  0.1342  0.4505  0.6087
  156SAPE   H4S17302   1.848   6.107   7.242 -0.1519  2.1962 -2.2526
  156SAPE   C2517303   1.922   5.920   7.161  0.0956 -0.4283 -0.0908
  156SAPE   H5R17304   1.899   5.855   7.247 -2.7177  1.1793  0.5246
  156SAPE   C2617305   1.901   5.860   7.043 -0.0449  0.9681  0.6995
  156SAPE   H6R17306   1.887   5.751   7.049  1.8295  0.5907 -0.8118
  156SAPE   C2717307   1.916   5.915   6.901  0.7228 -0.2983  0.2931
  156SAPE   H7R17308   1.854   6.007   6.898  1.2663  0.0611 -1.8460
  156SAPE   H7S17309   1.871   5.843   6.830 -1.4811  0.8171  0.4761
  156SAPE   C2817310   2.047   5.977   6.858 -0.2839  0.1710 -0.1438
  156SAPE   H8R17311   2.128   5.969   6.932  0.7654  4.9623 -0.3985
  156SAPE   C2917312   2.080   6.051   6.749 -0.0861  0.4947  0.0758
  156SAPE   H9R17313   2.177   6.100   6.737  0.3105 -0.4120 -0.5294
  156SAPE  C21017314   1.988   6.073   6.633  0.2939 -0.1811  0.6515
  156SAPE  H10R17315   2.007   6.172   6.587 -1.5109  0.8365  1.9607
  156SAPE  H10S17316   1.886   6.093   6.672 -0.3004  0.4282 -1.1282
  156SAPE  C21117317   1.988   5.957   6.543  0.7022  0.2478 -0.5763
  156SAPE  H11R17318   2.016   5.864   6.594 -0.2426  0.8150  1.0689
  156SAPE  C21217319   1.950   5.955   6.417  0.3430 -0.2104 -0.1110
  156SAPE  H12R17320   1.926   5.859   6.371 -1.1626  1.5111 -3.2502
  156SAPE  C21317321   1.905   6.079   6.330 -0.0716 -0.3935 -0.9560
  156SAPE  H13R17322   1.982   6.159   6.345  0.1037 -0.6991 -0.1935
  156SAPE  H13S17323   1.804   6.112   6.361 -0.3329 -2.4392  0.5706
  156SAPE  C21417324   1.894   6.050   6.188  0.1313 -0.1183  0.3755
  156SAPE  H14R17325   1.811   5.984   6.159  0.4398  0.3581 -1.7434
  156SAPE  C21517326   1.973   6.091   6.092 -0.8406  0.5879  0.1322
  156SAPE  H15R17327   1.946   6.059   5.990  0.6344 -0.8254  0.1422
  156SAPE  C21617328   2.096   6.186   6.105  0.0016 -0.1641 -0.4718
  156SAPE  H16R17329   2.135   6.189   6.209 -0.4605  0.0035 -0.3011
  156SAPE  H16S17330   2.071   6.292   6.083  0.9719 -0.2847 -2.3305
  156SAPE  C21717331   2.221   6.149   6.014  0.6101 -0.5178 -0.3837
  156SAPE  H17R17332   2.247   6.041   6.023 -1.1028 -0.7934  2.2662
  156SAPE  H17S17333   2.305   6.219   6.033 -0.2014  0.4310 -0.2355
  156SAPE  C21817334   2.185   6.166   5.861  0.4357 -0.1818 -0.4564
  156SAPE  H18R17335   2.158   6.273   5.845 -0.2680 -0.0857  1.1930
  156SAPE  H18S17336   2.093   6.115   5.824 -1.5422  3.2730 -0.7732
  156SAPE  C21917337   2.296   6.132   5.763 -1.4297  0.4274  0.1114
  156SAPE  H19R17338   2.303   6.022   5.750  0.7212  0.0845  3.0121
  156SAPE  H19S17339   2.399   6.162   5.791 -0.6465 -1.2720 -0.7861
  156SAPE  C22017340   2.254   6.188   5.627  0.2791 -0.4078 -0.2354
  156SAPE  H20R17341   2.286   6.115   5.550 -2.6731 -4.5180  2.0426
  156SAPE  H20S17342   2.298   6.289   5.613  0.0670  0.0385  2.0283
  156SAPE  H20T17343   2.143   6.188   5.617 -0.0983  0.5703  2.9783
  156SAPE   C3317344   2.597   5.870   7.073 -0.5381  0.1480 -0.2402
  156SAPE   H3X17345   2.493   5.835   7.093  0.2303 -1.5415  0.9770
  156SAPE   H3Y17346   2.631   5.801   6.994 -0.6503 -2.4586  1.8551
  156SAPE   C3417347   2.606   6.010   7.013 -0.1370 -0.8919  0.4034
  156SAPE   H4X17348   2.708   6.044   6.986 -0.4648  0.9593  1.3142
  156SAPE   H4Y17349   2.575   6.083   7.091  1.1039 -1.1230  1.1383
  156SAPE   C3517350   2.499   6.035   6.905 -0.1236 -0.2756  0.3340
  156SAPE   H5X17351   2.478   6.142   6.881 -4.4436 -0.7383  1.1769
  156SAPE   H5Y17352   2.400   5.988   6.924  0.9327 -1.5570  3.1355
  156SAPE   C3617353   2.562   5.983   6.765 -0.2044 -0.4911 -0.1131
  156SAPE   H6X17354   2.574   5.875   6.789  1.0317 -0.2683  0.3771
  156SAPE   H6Y17355   2.663   6.026   6.748 -0.3143  0.2789  1.0137
  156SAPE   C3717356   2.468   6.022   6.653 -0.2692 -0.1529 -0.5039
  156SAPE   H7X17357   2.432   6.126   6.665 -0.4642 -0.2181 -0.5290
  156SAPE   H7Y17358   2.378   5.959   6.669 -0.1373  0.1953  1.9525
  156SAPE   C3817359   2.517   5.990   6.518  0.3001 -0.3683 -0.6129
  156SAPE   H8X17360   2.511   5.881   6.495 -1.9420 -0.6634  1.0566
  156SAPE   H8Y17361   2.623   6.024   6.522 -0.1714  1.1224 -0.1483
  156SAPE   C3917362   2.427   6.060   6.420  0.2239 -0.5315  0.0793
  156SAPE   H9X17363   2.430   6.170   6.439 -2.2390 -0.5158  0.7924
  156SAPE   H9Y17364   2.325   6.028   6.453  0.7263 -2.3451 -0.0320
  156SAPE  C31017365   2.443   6.029   6.273  0.1020  0.4881  0.6390
  156SAPE  H10X17366   2.344   6.026   6.222  0.1586 -0.2333  0.5630
  156SAPE  H10Y17367   2.476   5.924   6.266 -1.4240  0.0242 -0.0957
  156SAPE  C31117368   2.533   6.116   6.196 -0.0856 -0.0083 -0.3919
  156SAPE  H11X17369   2.630   6.120   6.249 -0.1201  2.7523 -0.3979
  156SAPE  H11Y17370   2.499   6.221   6.181  0.0463 -0.2904 -3.2909
  156SAPE  C31217371   2.569   6.064   6.053  0.5980 -0.7145  0.3737
  156SAPE  H12X17372   2.476   6.055   5.994  1.2038  0.0532 -0.7390
  156SAPE  H12Y17373   2.613   5.962   6.064  0.3540 -0.7544  1.0136
  156SAPE  C31317374   2.655   6.168   5.985 -0.2818  0.2331 -0.1855
  156SAPE  H13X17375   2.739   6.195   6.053 -0.6453  0.2468  0.2633
  156SAPE  H13Y17376   2.604   6.267   5.981 -1.8923 -0.5994 -1.0451
  156SAPE  C31417377   2.700   6.117   5.852 -0.0250  0.2463  0.0511
  156SAPE  H14X17378   2.606   6.096   5.795  0.4717 -2.0107 -0.0370
  156SAPE  H14Y17379   2.743   6.016   5.871 -1.1213 -0.0552  1.0361
  156SAPE  C31517380   2.783   6.224   5.782  0.2143 -0.1188  0.3824
  156SAPE  H15X17381   2.817   6.186   5.683  2.1339  1.5375  0.3296
  156SAPE  H15Y17382   2.864   6.251   5.854 -0.9316 -2.0571  2.5302
  156SAPE  C31617383   2.700   6.348   5.746 -0.1212  0.0079 -0.4496
  156SAPE  H16X17384   2.670   6.399   5.840 -0.9787  1.6589 -1.5723
  156SAPE  H16Y17385   2.603   6.318   5.702 -0.6443 -0.4705  0.9679
  156SAPE  C31717386   2.788   6.452   5.667 -0.2899 -0.3133  0.2273
  156SAPE  H17X17387   2.892   6.458   5.705 -0.1120 -1.1583 -0.0853
  156SAPE  H17Y17388   2.737   6.549   5.682 -0.3933 -0.2587 -0.4342
  156SAPE  C31817389   2.785   6.432   5.520 -0.7081 -0.6664  0.1980
  156SAPE  H18X17390   2.851   6.354   5.477  1.3854  0.8833  0.4666
  156SAPE  H18Y17391   2.823   6.529   5.481  1.5739 -1.6146 -0.0801
  156SAPE  H18Z17392   2.680   6.407   5.492 -0.6652 -0.4342 -0.1738
  157SAPE     N17393   0.830   4.559   7.437  0.4607 -0.0504 -0.1613
  157SAPE   HN117394   0.852   4.660   7.450  0.3738  0.4571 -3.3316
  157SAPE   HN217395   0.858   4.526   7.342  0.2577 -0.5393 -0.0561
  157SAPE   HN317396   0.727   4.553   7.449  0.2167  1.5716 -1.2051
  157SAPE   C1217397   0.904   4.483   7.548  0.1202  0.0310 -0.4245
  157SAPE  H12A17398   0.892   4.545   7.639 -0.1132  1.8402 -1.6331
  157SAPE  H12B17399   1.013   4.483   7.524  0.3192  1.7030  0.3123
  157SAPE   C1117400   0.864   4.341   7.570  0.0379 -0.7304  0.3857
  157SAPE  H11A17401   0.753   4.336   7.581  0.0350  0.9531  1.4654
  157SAPE  H11B17402   0.917   4.302   7.659  1.0558 -1.6030 -0.5872
  157SAPE     P17403   0.829   4.211   7.338  0.1346 -0.0716  0.1384
  157SAPE   O1317404   0.849   4.066   7.323 -0.3565  0.3194  0.0376
  157SAPE   O1417405   0.684   4.258   7.342 -0.1678  0.1870 -0.5541
  157SAPE   O1217406   0.917   4.264   7.468  1.1427  0.2225  0.4195
  157SAPE   O1117407   0.892   4.287   7.220  0.7026  0.3371  0.3223
  157SAPE    C117408   1.026   4.266   7.174  0.2333 -0.7869  0.0109
  157SAPE    HA17409   1.102   4.278   7.254 -0.0747  1.9849 -0.0163
  157SAPE    HB17410   1.048   4.163   7.138  2.8139  0.4429 -2.3492
  157SAPE    C217411   1.074   4.362   7.063  0.5464 -0.4800 -0.1713
  157SAPE    HS17412   1.131   4.448   7.105  2.2505 -1.4779 -0.4074
  157SAPE   O2117413   0.964   4.418   6.982 -0.2535  0.8104 -0.0854
  157SAPE   C2117414   0.883   4.507   7.046  0.4435 -0.3542 -0.1707
  157SAPE   O2217415   0.905   4.558   7.153  0.0332 -0.7167  0.2684
  157SAPE   C2217416   0.764   4.527   6.956 -0.2933  0.2430  0.1490
  157SAPE   H2R17417   0.760   4.435   6.894  1.6401  0.6220 -0.6295
  157SAPE   H2S17418   0.671   4.537   7.016 -1.3353  0.2656 -1.4146
  157SAPE    C317419   1.175   4.285   6.972  0.4416 -0.3313 -0.3062
  157SAPE    HX17420   1.123   4.197   6.928 -0.7281  1.0374 -1.7621
  157SAPE    HY17421   1.254   4.241   7.037  0.8741 -0.8532 -1.1704
  157SAPE   O3117422   1.224   4.374   6.866  0.3556  0.4888  0.2829
  157SAPE   C3117423   1.338   4.433   6.902 -0.3663 -0.8768  0.2814
  157SAPE   O3217424   1.379   4.444   7.017 -0.5295 -0.5929  0.6253
  157SAPE   C3217425   1.404   4.492   6.776 -0.4332  0.6786  0.0918
  157SAPE   H2X17426   1.346   4.582   6.746 -1.8757 -0.6102 -1.1499
  157SAPE   H2Y17427   1.388   4.425   6.689 -0.0372 -0.9593  1.2357
  157SAPE   C2317428   0.790   4.651   6.877 -0.5148  1.0993  0.0336
  157SAPE   H3R17429   0.894   4.651   6.837 -0.7776 -4.1254 -1.3983
  157SAPE   H3S17430   0.763   4.740   6.938 -0.4757  1.9922 -1.2302
  157SAPE   C2417431   0.691   4.672   6.759 -0.3159  0.2886 -0.6542
  157SAPE   H4R17432   0.711   4.770   6.710 -0.1939 -0.3117 -1.8340
  157SAPE   H4S17433   0.594   4.675   6.814 -0.1359  0.5687 -0.3469
  157SAPE   C2517434   0.699   4.553   6.661 -0.0011  1.1291  1.0630
  157SAPE   H5R17435   0.607   4.492   6.671 -0.4119  1.7408  1.0423
  157SAPE   C2617436   0.798   4.517   6.575 -0.6473 -0.2076 -0.3008
  157SAPE   H6R17437   0.778   4.436   6.503 -1.5299  1.8838 -2.5351
  157SAPE   C2717438   0.923   4.604   6.542  0.5010  0.5010 -0.6125
  157SAPE   H7R17439   1.005   4.548   6.592  0.0078 -1.6578 -2.0812
  157SAPE   H7S17440   0.912   4.708   6.579 -3.9119 -0.0631  0.1998
  157SAPE   C2817441   0.953   4.605   6.395 -0.6765  0.0780  0.3070
  157SAPE   H8R17442   0.936   4.702   6.345 -0.9436 -0.0929  0.0660
  157SAPE   C2917443   1.009   4.509   6.316  0.7358 -0.0720 -0.1881
  157SAPE   H9R17444   1.018   4.527   6.208 -0.2584 -0.5393 -0.3627
  157SAPE  C21017445   1.061   4.378   6.356 -0.0586  0.3745  0.2679
  157SAPE  H10R17446   0.992   4.302   6.314 -1.7525  0.1306  3.2794
  157SAPE  H10S17447   1.053   4.370   6.466  1.4508  1.6936  0.5207
  157SAPE  C21117448   1.196   4.345   6.298  0.1113 -0.1101  0.3319
  157SAPE  H11R17449   1.279   4.387   6.356  0.3444 -0.6200  0.3776
  157SAPE  C21217450   1.228   4.282   6.182  0.1209  0.7498  0.1515
  157SAPE  H12R17451   1.334   4.275   6.152 -0.3299  1.9448 -1.9495
  157SAPE  C21317452   1.138   4.221   6.079 -0.0873  0.3965 -0.4621
  157SAPE  H13R17453   1.122   4.295   5.998  1.1778  2.0050  0.6820
  157SAPE  H13S17454   1.038   4.204   6.125  1.4941 -1.9636  2.5492
  157SAPE  C21417455   1.187   4.092   6.005  0.0730  0.5481 -0.0577
  157SAPE  H14R17456   1.257   4.030   6.063  1.8589  2.1933 -0.3574
  157SAPE  C21517457   1.125   4.038   5.900  0.2125  1.1971  0.0755
  157SAPE  H15R17458   1.153   3.942   5.853 -1.2195  0.0006  1.5547
  157SAPE  C21617459   1.006   4.106   5.840 -0.3127  0.3330  0.0992
  157SAPE  H16R17460   1.024   4.207   5.796  0.5542 -0.8329 -2.3964
  157SAPE  H16S17461   0.933   4.123   5.922 -2.0218 -0.4439 -1.2027
  157SAPE  C21717462   0.920   4.029   5.739 -0.1790 -0.4542 -0.3320
  157SAPE  H17R17463   0.821   4.078   5.722 -2.0611 -3.4823  1.0647
  157SAPE  H17S17464   0.898   3.932   5.789 -0.7092 -0.3438 -0.3395
  157SAPE  C21817465   0.984   4.008   5.603  0.4258 -0.2159  0.5697
  157SAPE  H18R17466   1.080   3.953   5.621  1.0991  1.4868  2.5513
  157SAPE  H18S17467   1.004   4.110   5.564 -0.8327  0.8676  2.5916
  157SAPE  C21917468   0.885   3.931   5.505 -0.4210 -0.2443  0.4094
  157SAPE  H19R17469   0.855   3.833   5.548  1.2105 -0.9905 -0.0878
  157SAPE  H19S17470   0.941   3.901   5.414  1.0873 -3.4217  2.2183
  157SAPE  C22017471   0.759   4.003   5.463  0.1731 -0.4433  0.0097
  157SAPE  H20R17472   0.687   4.025   5.545  2.0348 -1.4672  1.9901
  157SAPE  H20S17473   0.702   3.943   5.388 -0.1688  1.4602 -1.3321
  157SAPE  H20T17474   0.795   4.096   5.414  2.0296 -1.8696 -1.4679
  157SAPE   C3317475   1.557   4.507   6.785 -0.2544 -0.6575  0.3017
  157SAPE   H3X17476   1.604   4.406   6.794  2.0834  0.2191 -1.1398
  157SAPE   H3Y17477   1.589   4.568   6.872 -0.0579  1.8833 -1.4456
  157SAPE   C3417478   1.615   4.574   6.658  0.1723 -0.5821 -0.3182
  157SAPE   H4X17479   1.724   4.589   6.673 -0.0074  0.5989 -0.1270
  157SAPE   H4Y17480   1.554   4.663   6.633  0.0671 -0.8103 -0.8824
  157SAPE   C3517481   1.606   4.498   6.532  0.7754  0.5465  0.2704
  157SAPE   H5X17482   1.503   4.519   6.497  0.0949 -0.9406  1.2601
  157SAPE   H5Y17483   1.604   4.389   6.554 -0.8252  0.5113  0.0678
  157SAPE   C3617484   1.718   4.529   6.433 -0.3515  0.7770  0.3679
  157SAPE   H6X17485   1.811   4.501   6.487 -0.8727  1.2825  1.5606
  157SAPE   H6Y17486   1.713   4.636   6.403 -2.6065  0.5945 -0.0811
  157SAPE   C3717487   1.698   4.449   6.305 -0.0829 -0.0209 -0.2080
  157SAPE   H7X17488   1.689   4.340   6.324  0.1892 -0.0520 -0.2512
  157SAPE   H7Y17489   1.787   4.468   6.241 -1.5482  0.3174 -2.2863
  157SAPE   C3817490   1.578   4.500   6.218 -0.5117  0.9419 -0.3535
  157SAPE   H8X17491   1.593   4.608   6.199 -0.9985  1.1285  0.2810
  157SAPE   H8Y17492   1.486   4.474   6.276 -0.0079  0.5719  0.2916
  157SAPE   C3917493   1.577   4.418   6.088  0.2615 -1.0283  0.7567
  157SAPE   H9X17494   1.551   4.315   6.119 -1.6097 -0.3534  1.6015
  157SAPE   H9Y17495   1.685   4.413   6.065  0.7032  3.2134  1.1669
  157SAPE  C31017496   1.480   4.462   5.982 -0.2485 -0.0607  0.3586
  157SAPE  H10X17497   1.523   4.554   5.935 -0.1729 -0.5250 -0.5050
  157SAPE  H10Y17498   1.377   4.473   6.022 -0.5260 -0.2420 -0.2999
  157SAPE  C31117499   1.455   4.367   5.869  0.0317 -0.2861 -0.0765
  157SAPE  H11X17500   1.373   4.408   5.807  0.2635  1.5214  0.7403
  157SAPE  H11Y17501   1.417   4.268   5.903 -0.9725  1.1063  3.2537
  157SAPE  C31217502   1.580   4.335   5.786 -0.3992  0.1021  0.2631
  157SAPE  H12X17503   1.556   4.261   5.706 -0.5184 -0.0350  0.4251
  157SAPE  H12Y17504   1.657   4.300   5.858  1.4205  2.5470 -0.3727
  157SAPE  C31317505   1.643   4.451   5.709  0.0447  0.3851  0.1138
  157SAPE  H13X17506   1.635   4.543   5.772  0.3771 -1.1763  2.5812
  157SAPE  H13Y17507   1.586   4.463   5.615 -0.3594 -1.9311  0.0144
  157SAPE  C31417508   1.785   4.422   5.662  0.7739  0.1333 -0.4882
  157SAPE  H14X17509   1.810   4.314   5.660 -0.3657 -0.3031  2.8450
  157SAPE  H14Y17510   1.848   4.480   5.733 -0.5533 -0.7301  1.4739
  157SAPE  C31517511   1.802   4.474   5.519  1.2445  0.0278 -0.3960
  157SAPE  H15X17512   1.770   4.579   5.500 -1.4740 -0.5875  0.3988
  157SAPE  H15Y17513   1.729   4.416   5.460 -0.1266 -0.8904  2.0666
  157SAPE  C31617514   1.943   4.447   5.452 -0.2440  0.4072  0.3632
  157SAPE  H16X17515   1.990   4.349   5.477 -1.5773 -0.2829  0.2419
  157SAPE  H16Y17516   2.022   4.507   5.503  0.6699  0.6160 -1.2486
  157SAPE  C31717517   1.953   4.476   5.300  0.4014  0.3333 -0.3267
  157SAPE  H17X17518   1.906   4.394   5.242 -0.7997 -0.5537  1.8341
  157SAPE  H17Y17519   2.058   4.477   5.263  0.0688 -0.1163 -1.3377
  157SAPE  C31817520   1.891   4.603   5.239 -0.4864  0.9100  0.5500
  157SAPE  H18X17521   1.960   4.685   5.268  0.6987  0.5245 -1.0300
  157SAPE  H18Y17522   1.787   4.622   5.272 -1.6480 -0.5768 -2.0008
  157SAPE  H18Z17523   1.900   4.602   5.128 -0.6342  0.0471  0.5437
  158SAPE     N17524   4.791   3.242   7.224 -0.5470  0.1097  0.1449
  158SAPE   HN117525   4.742   3.329   7.194 -2.3406 -0.8575  0.1807
  158SAPE   HN217526   4.741   3.200   7.305  0.3825  0.2177  0.7892
  158SAPE   HN317527   4.884   3.276   7.255 -1.3760  1.0199  1.7534
  158SAPE   C1217528   4.801   3.148   7.112 -0.2335 -0.3661 -0.1246
  158SAPE  H12A17529   4.697   3.124   7.080 -1.0689  0.2259  1.9781
  158SAPE  H12B17530   4.859   3.058   7.143  0.2327  0.0132  0.1126
  158SAPE   C1117531   4.885   3.222   7.004 -0.4361 -0.0131  0.2805
  158SAPE  H11A17532   4.820   3.310   6.988 -0.4188 -0.3138 -1.5728
  158SAPE  H11B17533   4.888   3.161   6.911  2.2588 -1.9966  1.5341
  158SAPE     P17534   5.144   3.187   7.011  0.3395  0.1540 -0.3457
  158SAPE   O1317535   5.267   3.268   7.045 -0.0661 -0.5064 -0.1562
  158SAPE   O1417536   5.142   3.055   7.074 -0.1067 -0.5626  0.3040
  158SAPE   O1217537   5.015   3.265   7.062 -0.3845 -0.4787  0.1801
  158SAPE   O1117538   5.132   3.186   6.855 -0.2323  0.2505 -0.1772
  158SAPE    C117539   5.161   3.307   6.788  0.8378  0.3703  0.0787
  158SAPE    HA17540   5.237   3.372   6.837 -1.9050  3.0917  1.0760
  158SAPE    HB17541   5.212   3.282   6.692 -1.4853 -0.6458 -0.9542
  158SAPE    C217542   5.034   3.397   6.745  0.5914  0.8480  0.2749
  158SAPE    HS17543   4.980   3.437   6.834 -1.7124  1.3524 -1.2422
  158SAPE   O2117544   4.949   3.308   6.668 -0.4898  0.6484 -0.1394
  158SAPE   C2117545   4.824   3.347   6.645 -0.4831  0.5474  0.6955
  158SAPE   O2217546   4.779   3.454   6.687 -0.0549 -0.4511  0.0528
  158SAPE   C2217547   4.746   3.254   6.549 -0.5313 -0.0011 -0.4763
  158SAPE   H2R17548   4.782   3.150   6.566  1.6719  1.0592  1.9683
  158SAPE   H2S17549   4.636   3.260   6.559 -0.7117 -0.3778 -1.9146
  158SAPE    C317550   5.079   3.534   6.680  0.7426  0.2693 -1.0772
  158SAPE    HX17551   5.130   3.592   6.759  0.4783  0.4802 -1.0580
  158SAPE    HY17552   4.977   3.577   6.671 -0.6080 -1.7561  2.4833
  158SAPE   O3117553   5.143   3.520   6.551  0.5233 -0.9056 -0.3818
  158SAPE   C3117554   5.268   3.551   6.529 -0.2586  0.2631  1.0125
  158SAPE   O3217555   5.342   3.602   6.607  0.0114 -0.1118  0.0234
  158SAPE   C3217556   5.307   3.509   6.394 -0.2572  0.0102 -0.5908
  158SAPE   H2X17557   5.288   3.400   6.394 -2.2182  0.3045  0.9022
  158SAPE   H2Y17558   5.415   3.533   6.380 -0.4819  0.2718 -2.0119
  158SAPE   C2317559   4.786   3.277   6.402 -0.2252  0.6020 -0.2372
  158SAPE   H3R17560   4.724   3.207   6.342 -1.9260  2.1239 -0.3633
  158SAPE   H3S17561   4.895   3.267   6.388  0.1595  1.4941  1.8515
  158SAPE   C2417562   4.753   3.423   6.353  0.6448  0.4049 -0.0732
  158SAPE   H4R17563   4.799   3.507   6.410 -1.3561  1.6772 -0.2093
  158SAPE   H4S17564   4.643   3.432   6.364  0.6576 -1.9026  2.8511
  158SAPE   C2517565   4.781   3.458   6.213 -0.6599  0.6360  0.3090
  158SAPE   H5R17566   4.888   3.458   6.190 -0.5069  2.3051  0.8938
  158SAPE   C2617567   4.703   3.504   6.108 -0.8470  0.2969 -0.0424
  158SAPE   H6R17568   4.758   3.539   6.019 -0.0131 -0.6475  0.0891
  158SAPE   C2717569   4.556   3.539   6.121 -0.5992  0.7477  0.0675
  158SAPE   H7R17570   4.522   3.544   6.227 -0.7670 -1.9302  0.1990
  158SAPE   H7S17571   4.504   3.448   6.086  0.4917 -0.2611  0.9734
  158SAPE   C2817572   4.515   3.678   6.062  0.6304  0.5244 -0.7727
  158SAPE   H8R17573   4.537   3.765   6.126 -0.8517  1.6495 -1.7247
  158SAPE   C2917574   4.442   3.698   5.951 -0.3108  0.3636 -0.7881
  158SAPE   H9R17575   4.408   3.800   5.930  0.9272  0.7996 -0.7863
  158SAPE  C21017576   4.388   3.596   5.857 -0.8057 -0.1893  0.2315
  158SAPE  H10R17577   4.408   3.492   5.892 -1.6750 -0.4462 -0.0112
  158SAPE  H10S17578   4.446   3.620   5.766  0.7195  2.5845  1.7797
  158SAPE  C21117579   4.238   3.615   5.831 -0.1015  0.3221 -0.0064
  158SAPE  H11R17580   4.172   3.588   5.915 -0.1986  0.9713  0.1309
  158SAPE  C21217581   4.184   3.684   5.726  0.2952  0.2534 -0.4379
  158SAPE  H12R17582   4.076   3.701   5.719  0.3343  1.6219  1.4256
  158SAPE  C21317583   4.265   3.757   5.615 -1.2207  0.7128 -0.5350
  158SAPE  H13R17584   4.372   3.726   5.608 -1.1641  1.0355 -1.2114
  158SAPE  H13S17585   4.260   3.866   5.635 -0.2403  0.9246 -1.3306
  158SAPE  C21417586   4.197   3.723   5.481 -0.1252  0.1895  0.1470
  158SAPE  H14R17587   4.197   3.616   5.456 -1.2626  0.2759 -0.2707
  158SAPE  C21517588   4.163   3.802   5.378 -0.5388 -0.9045  0.4998
  158SAPE  H15R17589   4.117   3.751   5.293  0.1404 -0.7468  0.0331
  158SAPE  C21617590   4.191   3.952   5.365  0.2427  0.6943 -0.5242
  158SAPE  H16R17591   4.290   3.971   5.411  0.9942  0.0521 -1.8141
  158SAPE  H16S17592   4.117   4.019   5.416 -1.9880  0.5354 -3.2891
  158SAPE  C21717593   4.200   4.012   5.225 -0.1281 -0.0352  0.0643
  158SAPE  H17R17594   4.259   3.948   5.156 -1.5266 -0.0478 -1.1786
  158SAPE  H17S17595   4.253   4.110   5.228  1.5148 -0.8967  2.0484
  158SAPE  C21817596   4.056   4.030   5.161 -0.1017  0.2444 -0.5455
  158SAPE  H18R17597   4.013   4.113   5.223  0.9950  0.5670 -0.1969
  158SAPE  H18S17598   4.008   3.931   5.179  0.0070  0.3898  0.6440
  158SAPE  C21917599   4.059   4.062   5.011 -0.0284 -0.2277  1.0022
  158SAPE  H19R17600   3.952   4.077   4.983 -0.6495 -0.8933  2.8473
  158SAPE  H19S17601   4.097   3.980   4.947 -0.1575 -0.6617  1.4800
  158SAPE  C22017602   4.124   4.202   4.990 -0.6082 -0.0141  0.4837
  158SAPE  H20R17603   4.234   4.195   5.008 -0.6258 -0.9730  0.2805
  158SAPE  H20S17604   4.075   4.281   5.051 -1.6803 -0.0827 -0.2605
  158SAPE  H20T17605   4.121   4.225   4.881  1.6175  0.6572  0.5202
  158SAPE   C3317606   5.211   3.551   6.287 -0.3515 -0.4034  0.4427
  158SAPE   H3X17607   5.162   3.650   6.292 -0.9985 -0.7271  0.6474
  158SAPE   H3Y17608   5.127   3.480   6.305  0.7222 -1.2736  2.4518
  158SAPE   C3417609   5.267   3.523   6.150 -0.0378 -0.1740  0.0525
  158SAPE   H4X17610   5.289   3.415   6.139  0.0416 -0.3823  1.9861
  158SAPE   H4Y17611   5.356   3.583   6.120  0.0189 -0.9250 -1.3438
  158SAPE   C3517612   5.160   3.554   6.041 -0.0955  0.0921 -0.4642
  158SAPE   H5X17613   5.115   3.654   6.053 -2.0691 -0.6895 -1.0290
  158SAPE   H5Y17614   5.079   3.482   6.065 -0.0344  0.0389 -0.4152
  158SAPE   C3617615   5.203   3.540   5.896 -0.6864  0.3090 -0.1536
  158SAPE   H6X17616   5.205   3.432   5.870  1.7821  0.2360  0.1520
  158SAPE   H6Y17617   5.310   3.569   5.892 -0.1407 -0.7147  3.3819
  158SAPE   C3717618   5.112   3.609   5.798  0.0838 -0.6532  0.3709
  158SAPE   H7X17619   5.164   3.609   5.700 -2.0469  0.6568 -0.8406
  158SAPE   H7Y17620   5.089   3.714   5.827 -1.8509 -1.2924  1.3338
  158SAPE   C3817621   4.975   3.537   5.779 -0.3561 -0.4909 -0.6818
  158SAPE   H8X17622   4.920   3.559   5.873  1.1676 -1.0667  0.3980
  158SAPE   H8Y17623   4.978   3.426   5.770 -1.3809 -0.5298 -0.6620
  158SAPE   C3917624   4.878   3.589   5.664  0.1383 -0.0007 -0.3911
  158SAPE   H9X17625   4.925   3.557   5.569  0.4428 -0.2537 -0.1568
  158SAPE   H9Y17626   4.876   3.700   5.665  0.1540  0.0185  1.4565
  158SAPE  C31017627   4.738   3.541   5.670  0.6713 -0.3984 -0.8827
  158SAPE  H10X17628   4.678   3.597   5.744  0.8177 -1.0111 -0.2825
  158SAPE  H10Y17629   4.739   3.431   5.687  0.9522 -0.2260  0.3005
  158SAPE  C31117630   4.672   3.573   5.533 -0.0803 -0.0884  0.4720
  158SAPE  H11X17631   4.701   3.679   5.514  0.4217 -0.1947  0.6105
  158SAPE  H11Y17632   4.562   3.566   5.539 -0.1947  1.4649  0.4834
  158SAPE  C31217633   4.715   3.483   5.415  0.2485  0.2231  0.1149
  158SAPE  H12X17634   4.709   3.374   5.430 -0.6321 -0.0496 -1.8816
  158SAPE  H12Y17635   4.822   3.507   5.395 -0.0599 -0.0004 -1.9895
  158SAPE  C31317636   4.639   3.491   5.284 -0.3651 -0.4839  0.2672
  158SAPE  H13X17637   4.537   3.448   5.294 -0.7504  0.6450  1.6002
  158SAPE  H13Y17638   4.689   3.429   5.206 -0.1679  0.7733 -0.6238
  158SAPE  C31417639   4.624   3.633   5.223 -0.5678 -0.2550  0.3029
  158SAPE  H14X17640   4.716   3.685   5.258  0.3298 -1.2529 -0.5121
  158SAPE  H14Y17641   4.532   3.679   5.265 -0.9575 -0.4952 -0.2807
  158SAPE  C31517642   4.613   3.645   5.071  0.3323 -1.0076 -0.1466
  158SAPE  H15X17643   4.570   3.550   5.031 -1.4203 -1.0698  1.6937
  158SAPE  H15Y17644   4.717   3.648   5.033  0.5336  0.4978  0.4568
  158SAPE  C31617645   4.521   3.755   5.025  0.1804  0.0327 -0.2360
  158SAPE  H16X17646   4.562   3.852   5.058  0.9748 -0.4820  0.3377
  158SAPE  H16Y17647   4.414   3.748   5.056  0.5231  1.1617  1.2811
  158SAPE  C31717648   4.522   3.768   4.872  0.1838  0.1117 -1.1077
  158SAPE  H17X17649   4.462   3.686   4.829 -0.3805  0.6875 -1.4457
  158SAPE  H17Y17650   4.625   3.759   4.830 -1.1041 -1.0901 -4.3066
  158SAPE  C31817651   4.442   3.892   4.838 -0.2379  0.2869  0.1914
  158SAPE  H18X17652   4.414   3.898   4.730 -0.2775  0.9975  0.2389
  158SAPE  H18Y17653   4.489   3.989   4.865  2.7310 -0.3930 -1.9820
  158SAPE  H18Z17654   4.347   3.889   4.896 -0.7114  3.5677 -0.2435
  159SAPE     N17655   3.457   1.017   2.436  0.7528  0.3269 -0.0513
  159SAPE   HN117656   3.491   0.978   2.346 -0.9411 -1.1984 -0.0837
  159SAPE   HN217657   3.374   0.968   2.476 -0.2792  1.4080 -0.8286
  159SAPE   HN317658   3.442   1.118   2.417  2.9191  0.7994  0.4944
  159SAPE   C1217659   3.558   1.017   2.543  0.5019  0.3260 -0.0760
  159SAPE  H12A17660   3.659   1.032   2.499  0.4413 -0.3783 -0.4821
  159SAPE  H12B17661   3.555   0.913   2.583 -0.7016  0.1378 -0.6007
  159SAPE   C1117662   3.530   1.124   2.654 -0.1355  0.2134 -0.7047
  159SAPE  H11A17663   3.622   1.135   2.715  0.3711 -0.7968 -1.2603
  159SAPE  H11B17664   3.440   1.094   2.711 -0.1238  1.6724  0.1318
  159SAPE     P17665   3.620   1.347   2.532 -0.0518  0.4586  0.2480
  159SAPE   O1317666   3.675   1.264   2.421 -0.4001  0.0359 -0.2047
  159SAPE   O1417667   3.564   1.476   2.493  0.0974  0.2136  0.2117
  159SAPE   O1217668   3.502   1.261   2.598  0.3669  0.6904 -0.0332
  159SAPE   O1117669   3.736   1.370   2.640  0.0130 -0.5854 -0.0732
  159SAPE    C117670   3.694   1.420   2.768 -0.0542 -0.0199 -0.6642
  159SAPE    HA17671   3.673   1.530   2.767 -2.2367 -0.3647  0.9050
  159SAPE    HB17672   3.605   1.373   2.814 -0.5986  1.1887 -0.4348
  159SAPE    C217673   3.812   1.408   2.871  0.4087  0.5832  0.5319
  159SAPE    HS17674   3.778   1.459   2.964 -2.2413 -0.9088  0.4871
  159SAPE   O2117675   3.933   1.467   2.822 -0.0836  0.1855 -0.5637
  159SAPE   C2117676   4.027   1.499   2.907 -0.4592 -0.2908 -0.6540
  159SAPE   O2217677   4.014   1.487   3.028 -0.6234 -0.4323  0.0398
  159SAPE   C2217678   4.151   1.555   2.829  0.0822 -0.1087  0.3544
  159SAPE   H2R17679   4.181   1.467   2.769 -1.0803 -0.4506  0.2538
  159SAPE   H2S17680   4.125   1.641   2.764  0.8494  0.1652  0.4027
  159SAPE    C317681   3.847   1.260   2.903 -0.0260 -0.2507 -0.2777
  159SAPE    HX17682   3.932   1.243   2.973 -1.5128 -4.1971  0.8367
  159SAPE    HY17683   3.876   1.217   2.805  0.6184 -1.0392  0.2385
  159SAPE   O3117684   3.729   1.202   2.957  0.0945  0.2929 -0.4964
  159SAPE   C3117685   3.744   1.072   2.994  0.8254 -0.5722 -0.2444
  159SAPE   O3217686   3.830   1.000   2.954 -0.0280  0.5876  0.0449
  159SAPE   C3217687   3.637   1.037   3.098 -0.1232 -0.5385 -0.2688
  159SAPE   H2X17688   3.626   0.927   3.108 -2.0445 -0.2865  0.7977
  159SAPE   H2Y17689   3.541   1.086   3.069 -0.9804 -0.6776  2.1398
  159SAPE   C2317690   4.261   1.595   2.929 -0.3018  0.1508 -0.1182
  159SAPE   H3R17691   4.357   1.592   2.873 -0.0237 -3.3208  0.3622
  159SAPE   H3S17692   4.276   1.510   2.998 -1.5469  0.1138  0.1280
  159SAPE   C2417693   4.235   1.721   3.009 -0.2423 -0.1556  0.3203
  159SAPE   H4R17694   4.148   1.708   3.077  0.3710  1.4695  1.4715
  159SAPE   H4S17695   4.209   1.804   2.940  1.1422  2.3570  2.6095
  159SAPE   C2517696   4.360   1.752   3.086 -0.0450 -1.0346  0.2008
  159SAPE   H5R17697   4.439   1.811   3.037 -1.0972 -0.0070 -0.2962
  159SAPE   C2617698   4.389   1.708   3.218 -0.4472  0.2407  0.6885
  159SAPE   H6R17699   4.475   1.759   3.264 -0.7454  1.4452 -0.0572
  159SAPE   C2717700   4.307   1.611   3.302 -0.2599  0.3427 -0.2337
  159SAPE   H7R17701   4.224   1.571   3.240 -1.6157 -0.8230  2.1631
  159SAPE   H7S17702   4.262   1.687   3.370 -2.4091 -1.4983  0.5174
  159SAPE   C2817703   4.380   1.500   3.383  0.9686  0.3470 -0.0803
  159SAPE   H8R17704   4.382   1.402   3.334  0.1735  0.0383  0.4894
  159SAPE   C2917705   4.441   1.506   3.502  0.3960  0.0695 -0.3472
  159SAPE   H9R17706   4.468   1.412   3.551  1.7230  0.4496 -0.3298
  159SAPE  C21017707   4.460   1.635   3.579  0.4753  0.7595  0.8579
  159SAPE  H10R17708   4.362   1.648   3.631 -0.5990  0.3631 -0.9695
  159SAPE  H10S17709   4.460   1.715   3.502  1.7697 -3.5405 -4.2648
  159SAPE  C21117710   4.579   1.636   3.663  0.5483  0.7536 -0.2564
  159SAPE  H11R17711   4.660   1.579   3.614 -1.8584 -2.7400 -0.5859
  159SAPE  C21217712   4.580   1.638   3.797 -0.5402  0.3101  0.0999
  159SAPE  H12R17713   4.678   1.632   3.847 -0.4555 -1.0547 -0.2084
  159SAPE  C21317714   4.469   1.696   3.880  0.5350 -0.3886  0.5388
  159SAPE  H13R17715   4.372   1.700   3.827  0.4290  0.0206  0.7569
  159SAPE  H13S17716   4.493   1.805   3.888  0.3391 -0.3058  0.0071
  159SAPE  C21417717   4.456   1.632   4.013  0.3203 -0.2583 -0.3809
  159SAPE  H14R17718   4.362   1.574   4.017 -0.4900  1.0771  0.4178
  159SAPE  C21517719   4.544   1.642   4.117 -0.0036  0.3600  0.4028
  159SAPE  H15R17720   4.531   1.594   4.215  1.7605 -2.0672 -0.4361
  159SAPE  C21617721   4.652   1.753   4.115 -0.1611  0.5778 -0.0396
  159SAPE  H16R17722   4.676   1.793   4.014  2.2797  1.6382  0.8734
  159SAPE  H16S17723   4.749   1.711   4.148 -0.4471 -0.6751 -0.7146
  159SAPE  C21717724   4.615   1.868   4.202  1.1267 -0.0753  0.2265
  159SAPE  H17R17725   4.508   1.888   4.181  1.1180  0.0224  0.3592
  159SAPE  H17S17726   4.658   1.962   4.160 -1.7486 -0.3554 -3.9479
  159SAPE  C21817727   4.629   1.850   4.352 -0.1241  0.1441  0.9296
  159SAPE  H18R17728   4.735   1.826   4.371  0.4888  3.1008  1.8714
  159SAPE  H18S17729   4.555   1.777   4.391 -1.8303  1.5855  0.5197
  159SAPE  C21917730   4.613   1.990   4.417  0.0626  1.1970 -0.5759
  159SAPE  H19R17731   4.516   2.042   4.403 -0.7186 -0.2392 -0.7160
  159SAPE  H19S17732   4.691   2.059   4.378  0.3300  1.0210 -0.3568
  159SAPE  C22017733   4.626   1.973   4.570 -0.3011 -0.2548 -0.5673
  159SAPE  H20R17734   4.715   1.911   4.593 -0.1496 -0.4394 -1.6314
  159SAPE  H20S17735   4.538   1.922   4.616 -1.8452  1.5587 -1.4004
  159SAPE  H20T17736   4.645   2.066   4.628  0.9261 -0.8907  0.0957
  159SAPE   C3317737   3.689   1.092   3.235  0.5631 -0.3199  0.1932
  159SAPE   H3X17738   3.664   1.200   3.238 -0.5484 -0.5311 -0.7804
  159SAPE   H3Y17739   3.799   1.087   3.247  0.4074 -1.3438  1.4474
  159SAPE   C3417740   3.639   1.019   3.358 -0.2223  0.0353 -0.2778
  159SAPE   H4X17741   3.670   0.912   3.345  2.4402  0.6424  0.4881
  159SAPE   H4Y17742   3.528   1.021   3.358 -0.2658  0.9945 -2.3959
  159SAPE   C3517743   3.706   1.072   3.486 -0.2941  0.0620 -0.0372
  159SAPE   H5X17744   3.706   1.183   3.487 -2.0379  0.0838  0.9209
  159SAPE   H5Y17745   3.811   1.036   3.485 -0.9987 -2.1302 -0.6623
  159SAPE   C3617746   3.646   0.998   3.610  0.2568 -0.2997  0.1769
  159SAPE   H6X17747   3.675   0.891   3.612 -3.7470 -1.5596  2.3035
  159SAPE   H6Y17748   3.536   0.994   3.595  0.0793 -0.9774  1.4795
  159SAPE   C3717749   3.677   1.064   3.739 -0.2828  0.3128 -0.6865
  159SAPE   H7X17750   3.620   1.159   3.751  0.1909  0.3001  2.2513
  159SAPE   H7Y17751   3.785   1.089   3.745 -0.1132 -0.7050  1.7172
  159SAPE   C3817752   3.637   0.982   3.870 -0.3562 -0.1367  0.0203
  159SAPE   H8X17753   3.720   0.908   3.874 -0.2309 -0.0664 -0.9890
  159SAPE   H8Y17754   3.546   0.919   3.861 -0.7615  0.3785  0.4684
  159SAPE   C3917755   3.616   1.075   3.994  0.9468  0.7651 -0.3647
  159SAPE   H9X17756   3.535   1.145   3.963  1.3824  1.1106 -0.7362
  159SAPE   H9Y17757   3.700   1.143   4.017  0.0260  0.9247  3.0160
  159SAPE  C31017758   3.560   1.000   4.116  0.4294  0.2511  0.3445
  159SAPE  H10X17759   3.506   0.916   4.068  1.2598  0.5410 -1.1862
  159SAPE  H10Y17760   3.486   1.057   4.176  0.6966 -0.3071  1.2049
  159SAPE  C31117761   3.678   0.939   4.196 -0.6785 -0.7398  0.0464
  159SAPE  H11X17762   3.743   0.901   4.114  1.3397  0.4219  1.0321
  159SAPE  H11Y17763   3.646   0.850   4.255  0.1148  1.0327  3.3862
  159SAPE  C31217764   3.759   1.039   4.285  0.1547  0.2969 -0.3898
  159SAPE  H12X17765   3.784   1.129   4.226  0.3863 -1.0114 -2.3965
  159SAPE  H12Y17766   3.862   1.000   4.302 -0.0370  0.2800  0.8021
  159SAPE  C31317767   3.690   1.069   4.419  0.0398  0.4510  0.2152
  159SAPE  H13X17768   3.597   1.130   4.418 -1.0708 -1.1848  0.2929
  159SAPE  H13Y17769   3.757   1.142   4.469  0.1967  1.4627 -1.3920
  159SAPE  C31417770   3.679   0.947   4.516  0.0561 -0.4568  0.3612
  159SAPE  H14X17771   3.774   0.890   4.507  0.8037 -0.3341  4.9022
  159SAPE  H14Y17772   3.592   0.886   4.486  1.2164 -1.5624 -0.8910
  159SAPE  C31517773   3.667   0.989   4.659 -0.4896  0.3541  0.2297
  159SAPE  H15X17774   3.646   1.098   4.660  1.6392  0.7957  1.1374
  159SAPE  H15Y17775   3.755   0.982   4.726  0.8567  1.9185 -1.3152
  159SAPE  C31617776   3.558   0.912   4.737  0.5686  0.1778 -0.0157
  159SAPE  H16X17777   3.572   0.802   4.735  1.0531  0.1739  1.8063
  159SAPE  H16Y17778   3.460   0.928   4.687  0.5191 -1.1476 -0.3749
  159SAPE  C31717779   3.540   0.947   4.887  0.1582  0.4841 -1.0836
  159SAPE  H17X17780   3.535   1.057   4.903 -0.9123 -0.0208  2.9855
  159SAPE  H17Y17781   3.633   0.914   4.936 -0.6328 -0.7761 -0.3784
  159SAPE  C31817782   3.416   0.878   4.937  0.6766 -0.4516 -0.8426
  159SAPE  H18X17783   3.330   0.901   4.871  0.5910 -1.7642 -1.2219
  159SAPE  H18Y17784   3.398   0.918   5.039  0.8325  0.3524 -1.1179
  159SAPE  H18Z17785   3.414   0.768   4.948 -1.6088 -0.1828  2.9184
  160SAPE     N17786   1.574   0.520   3.049  0.1814 -0.1622  0.2177
  160SAPE   HN117787   1.548   0.419   3.055  1.6454 -0.4772  2.3905
  160SAPE   HN217788   1.523   0.570   2.974 -0.1764  0.4559  0.8580
  160SAPE   HN317789   1.673   0.521   3.017  0.1938  6.5736 -0.8121
  160SAPE   C1217790   1.554   0.591   3.184 -0.5853  0.7221  0.1351
  160SAPE  H12A17791   1.450   0.631   3.190 -0.3838  1.4512 -0.8766
  160SAPE  H12B17792   1.632   0.667   3.202  0.7245 -1.3343  4.3506
  160SAPE   C1117793   1.574   0.486   3.297 -0.8949 -0.4703 -0.6650
  160SAPE  H11A17794   1.485   0.420   3.289 -0.4627 -1.2796  0.8211
  160SAPE  H11B17795   1.574   0.541   3.394 -1.0759 -0.6102 -0.5865
  160SAPE     P17796   1.842   0.462   3.305 -0.0465  0.3617  0.0597
  160SAPE   O1317797   1.930   0.371   3.230  0.2982  0.1002 -0.4055
  160SAPE   O1417798   1.855   0.603   3.270 -0.1944  0.0012  0.0439
  160SAPE   O1217799   1.696   0.414   3.275  0.2461  0.9740 -0.0630
  160SAPE   O1117800   1.857   0.437   3.453 -0.2079 -0.2443  0.6462
  160SAPE    C117801   1.821   0.303   3.493  0.1353 -0.3281  0.6708
  160SAPE    HA17802   1.732   0.265   3.438  0.3371 -0.6761  0.5848
  160SAPE    HB17803   1.912   0.240   3.482 -0.0248 -0.7674  1.7815
  160SAPE    C217804   1.793   0.294   3.647  0.5314 -0.3244  0.3538
  160SAPE    HS17805   1.825   0.192   3.677 -0.2915 -0.2853  1.4411
  160SAPE   O2117806   1.657   0.322   3.678  0.2566 -0.5367  0.0259
  160SAPE   C2117807   1.577   0.219   3.673 -0.5841  0.5835  0.3098
  160SAPE   O2217808   1.615   0.100   3.666  0.7096  0.1002 -0.4252
  160SAPE   C2217809   1.429   0.262   3.702 -0.1932  0.7941  0.2476
  160SAPE   H2R17810   1.429   0.343   3.779 -1.5902  0.1710  0.9478
  160SAPE   H2S17811   1.393   0.308   3.607  1.2367  2.6591  0.5658
  160SAPE    C317812   1.884   0.395   3.725  0.1507  0.0915 -0.7225
  160SAPE    HX17813   1.837   0.494   3.708 -0.8608 -0.2952 -0.1921
  160SAPE    HY17814   1.986   0.412   3.682  1.3029  0.3483  1.9306
  160SAPE   O3117815   1.895   0.363   3.863  0.1330  0.3619 -0.5915
  160SAPE   C3117816   2.001   0.280   3.887 -0.4149  0.1272  0.0250
  160SAPE   O3217817   2.078   0.235   3.806  0.3826 -0.0570 -0.2855
  160SAPE   C3217818   2.005   0.254   4.037  0.0715 -0.2615 -0.1525
  160SAPE   H2X17819   1.913   0.196   4.053 -1.0437  0.7310 -2.4120
  160SAPE   H2Y17820   1.991   0.352   4.088  0.3122 -1.0378  1.4591
  160SAPE   C2317821   1.338   0.150   3.749 -0.1748  0.1399 -0.0566
  160SAPE   H3R17822   1.349   0.059   3.687 -1.0893  0.0608 -0.1165
  160SAPE   H3S17823   1.234   0.185   3.728  0.9553  2.5009 -2.2672
  160SAPE   C2417824   1.355   0.106   3.903  0.1210 -0.1365  0.1233
  160SAPE   H4R17825   1.454   0.059   3.913  0.0391 -0.3790 -0.2118
  160SAPE   H4S17826   1.287   0.021   3.925 -2.2254  1.0956 -1.8352
  160SAPE   C2517827   1.323   0.204   4.012  0.9991 -0.5685 -0.0351
  160SAPE   H5R17828   1.219   0.219   4.045  0.2305 -1.0256 -2.0786
  160SAPE   C2617829   1.417   0.273   4.078 -0.3113 -0.3598  0.5750
  160SAPE   H6R17830   1.384   0.347   4.153 -1.2417 -0.6283  0.4535
  160SAPE   C2717831   1.569   0.267   4.065  0.1602  0.8812 -0.2061
  160SAPE   H7R17832   1.594   0.214   3.970  1.5961  1.9697 -0.4836
  160SAPE   H7S17833   1.622   0.205   4.140 -0.8975 -0.9912 -0.9575
  160SAPE   C2817834   1.637   0.400   4.052 -0.1465 -0.5171  0.0074
  160SAPE   H8R17835   1.663   0.431   3.950 -0.9836 -0.3441 -0.1574
  160SAPE   C2917836   1.709   0.460   4.151 -0.5722  0.0430  0.2742
  160SAPE   H9R17837   1.774   0.543   4.121  0.0423  0.1489  1.8136
  160SAPE  C21017838   1.712   0.424   4.295  1.1274  0.4859  0.1775
  160SAPE  H10R17839   1.662   0.326   4.309 -1.8535  1.7780 -0.6019
  160SAPE  H10S17840   1.648   0.497   4.348  0.0204  0.2961 -0.8546
  160SAPE  C21117841   1.848   0.425   4.366  0.4255  0.0167  0.6554
  160SAPE  H11R17842   1.933   0.402   4.299 -0.8658 -3.3042 -0.0462
  160SAPE  C21217843   1.866   0.440   4.495 -0.2463 -0.2950 -0.1331
  160SAPE  H12R17844   1.967   0.436   4.540  0.2473  1.7461 -0.9276
  160SAPE  C21317845   1.753   0.473   4.589 -0.2459 -0.1557 -0.0761
  160SAPE  H13R17846   1.697   0.378   4.599  0.2814 -0.4745 -0.0611
  160SAPE  H13S17847   1.680   0.542   4.543 -0.9022 -0.7114  0.1136
  160SAPE  C21417848   1.805   0.527   4.719 -0.0608  0.2340 -0.0489
  160SAPE  H14R17849   1.899   0.586   4.722  0.3421 -0.3729  2.9436
  160SAPE  C21517850   1.748   0.517   4.837 -0.7233  0.5687 -0.2280
  160SAPE  H15R17851   1.788   0.566   4.927 -1.6975  2.3807 -0.7378
  160SAPE  C21617852   1.619   0.456   4.868  0.0163  0.1459  0.3737
  160SAPE  H16R17853   1.583   0.398   4.780 -0.3830 -0.1471  0.7237
  160SAPE  H16S17854   1.540   0.525   4.903 -0.5721 -0.1901 -0.2506
  160SAPE  C21717855   1.638   0.344   4.983  0.0192  0.1737  0.1579
  160SAPE  H17R17856   1.711   0.375   5.062  0.2984 -0.1543  0.0312
  160SAPE  H17S17857   1.687   0.254   4.940  0.7629  0.1330  1.0385
  160SAPE  C21817858   1.506   0.295   5.043  0.0702 -0.2730  0.0938
  160SAPE  H18R17859   1.519   0.189   5.076  3.2074 -0.8278 -2.4216
  160SAPE  H18S17860   1.435   0.316   4.961  0.1578  0.8543  0.2885
  160SAPE  C21917861   1.441   0.387   5.155 -0.2090 -0.0698 -0.1919
  160SAPE  H19R17862   1.402   0.485   5.119  0.4662  0.2978  0.0475
  160SAPE  H19S17863   1.518   0.401   5.233 -1.8465 -0.7936  1.6168
  160SAPE  C22017864   1.330   0.309   5.217  0.4014 -0.0895 -0.5937
  160SAPE  H20R17865   1.367   0.207   5.244  2.8184  0.6545 -0.8999
  160SAPE  H20S17866   1.244   0.301   5.147 -0.7086 -0.8664  0.7931
  160SAPE  H20T17867   1.295   0.369   5.304  1.2116 -1.8303  1.0059
  160SAPE   C3317868   2.128   0.178   4.081 -0.2448  0.1910 -0.7814
  160SAPE   H3X17869   2.145   0.083   4.027 -0.3150 -1.3163  1.7047
  160SAPE   H3Y17870   2.108   0.148   4.186 -0.5277  2.0870 -0.2457
  160SAPE   C3417871   2.258   0.262   4.076  0.4496 -0.1303 -0.1610
  160SAPE   H4X17872   2.240   0.367   4.048  0.9861  0.4928  1.6845
  160SAPE   H4Y17873   2.321   0.217   3.996 -0.0249 -0.4505 -0.3609
  160SAPE   C3517874   2.338   0.253   4.201 -0.1599 -0.2625 -0.7172
  160SAPE   H5X17875   2.426   0.315   4.174 -2.0248  1.3890 -3.4118
  160SAPE   H5Y17876   2.367   0.152   4.237 -1.9305 -1.2751 -2.0344
  160SAPE   C3617877   2.265   0.332   4.317 -0.3162 -0.3123 -0.2113
  160SAPE   H6X17878   2.170   0.276   4.333  0.1212 -0.9801  0.0871
  160SAPE   H6Y17879   2.238   0.434   4.282 -1.7423 -0.1008  1.3715
  160SAPE   C3717880   2.333   0.346   4.455 -0.6468  0.5088 -0.2753
  160SAPE   H7X17881   2.426   0.406   4.448 -1.0669  1.4304  1.5722
  160SAPE   H7Y17882   2.362   0.241   4.479 -0.8800  0.2526 -1.0862
  160SAPE   C3817883   2.245   0.399   4.569  0.0609 -0.5040  0.3200
  160SAPE   H8X17884   2.169   0.320   4.583 -1.5930  1.2998  2.3255
  160SAPE   H8Y17885   2.197   0.493   4.534 -0.2060 -0.1445  1.5987
  160SAPE   C3917886   2.308   0.426   4.707  0.1332  0.6135 -1.3752
  160SAPE   H9X17887   2.350   0.325   4.724  1.0237  1.0568 -0.8902
  160SAPE   H9Y17888   2.223   0.439   4.777  0.7521  1.8401 -0.8175
  160SAPE  C31017889   2.405   0.543   4.718  0.6484  0.5595 -0.1659
  160SAPE  H10X17890   2.358   0.635   4.677  0.8534  1.0381  0.6592
  160SAPE  H10Y17891   2.492   0.514   4.655  0.6928 -0.3129  0.2763
  160SAPE  C31117892   2.440   0.590   4.858  0.3976  0.0024 -0.1020
  160SAPE  H11X17893   2.528   0.526   4.878  1.3991  1.6347  0.9455
  160SAPE  H11Y17894   2.366   0.578   4.940 -0.5557 -1.1150 -1.0906
  160SAPE  C31217895   2.492   0.733   4.871 -0.5513  0.0850  0.2656
  160SAPE  H12X17896   2.410   0.804   4.846  0.0818  0.6036 -0.3728
  160SAPE  H12Y17897   2.573   0.753   4.798 -1.1441  0.4059 -0.3115
  160SAPE  C31317898   2.556   0.761   5.010 -1.9655  0.6078  0.8625
  160SAPE  H13X17899   2.664   0.735   5.004 -1.1024  3.8856  0.2296
  160SAPE  H13Y17900   2.520   0.696   5.093  1.4386 -2.0930  0.4434
  160SAPE  C31417901   2.553   0.910   5.044  0.0238 -0.6858  0.6194
  160SAPE  H14X17902   2.450   0.952   5.042  1.3261  2.9642 -2.4480
  160SAPE  H14Y17903   2.602   0.966   4.961  0.7843 -1.7100  0.3540
  160SAPE  C31517904   2.622   0.934   5.183  0.1281 -0.2167 -0.4837
  160SAPE  H15X17905   2.643   1.042   5.195 -0.3457 -0.3288  1.9604
  160SAPE  H15Y17906   2.715   0.877   5.162  0.5079  0.6328 -1.1457
  160SAPE  C31617907   2.553   0.885   5.318  0.1370 -0.7007  0.1118
  160SAPE  H16X17908   2.565   0.775   5.314  1.5999 -0.5961  1.0788
  160SAPE  H16Y17909   2.442   0.892   5.318  0.0975 -1.1808 -0.4353
  160SAPE  C31717910   2.620   0.938   5.442  0.1661 -0.6691  0.4873
  160SAPE  H17X17911   2.731   0.938   5.435  0.1190  1.6128 -1.8344
  160SAPE  H17Y17912   2.608   0.875   5.532  1.7991 -0.2937  1.0012
  160SAPE  C31817913   2.568   1.069   5.497  0.4722  0.3094 -0.1163
  160SAPE  H18X17914   2.522   1.123   5.411  0.0280 -1.4528 -1.0452
  160SAPE  H18Y17915   2.639   1.120   5.566  0.3329 -0.2403  0.4352
  160SAPE  H18Z17916   2.476   1.052   5.557 -0.1341 -2.2829 -1.6327
  161SAPE     N17917   1.605   2.788   2.713  0.2559 -0.0608  0.2105
  161SAPE   HN117918   1.699   2.801   2.756 -0.0465  0.7467  0.6664
  161SAPE   HN217919   1.582   2.885   2.682 -2.5762 -0.6233  0.2731
  161SAPE   HN317920   1.532   2.757   2.781 -0.3578  2.0423  0.5940
  161SAPE   C1217921   1.603   2.709   2.595 -0.9537 -0.6741 -0.4470
  161SAPE  H12A17922   1.667   2.620   2.618  1.4320  0.7051 -1.3198
  161SAPE  H12B17923   1.664   2.757   2.515 -0.8424 -0.5951 -0.3151
  161SAPE   C1117924   1.464   2.683   2.547  0.0510  0.3312  0.6479
  161SAPE  H11A17925   1.398   2.621   2.610  0.6241  1.6073  2.5952
  161SAPE  H11B17926   1.479   2.621   2.456 -0.8413 -0.0100  0.7241
  161SAPE     P17927   1.272   2.790   2.424  0.1966 -0.5113  0.2669
  161SAPE   O1317928   1.182   2.913   2.444 -0.6790  1.4948  0.0561
  161SAPE   O1417929   1.315   2.760   2.288  0.0761 -0.5297 -0.6393
  161SAPE   O1217930   1.397   2.806   2.516  0.1639 -0.1226 -0.1862
  161SAPE   O1117931   1.203   2.659   2.474  0.4088 -0.1416 -0.1371
  161SAPE    C117932   1.072   2.653   2.521 -0.0676 -0.0828  0.9667
  161SAPE    HA17933   1.009   2.730   2.471  1.1418  0.5464  0.3655
  161SAPE    HB17934   1.037   2.551   2.496  1.8150 -0.1532 -1.8443
  161SAPE    C217935   1.057   2.657   2.672  0.8956 -0.6016 -0.3259
  161SAPE    HS17936   0.950   2.665   2.700  1.1229 -1.3436  0.8606
  161SAPE   O2117937   1.127   2.770   2.731 -0.0295  0.1096  0.3762
  161SAPE   C2117938   1.060   2.886   2.735 -0.2916 -0.0102  0.4580
  161SAPE   O2217939   0.949   2.899   2.694  0.4251 -0.0979  0.5416
  161SAPE   C2217940   1.153   2.996   2.791  0.0823  0.6394  0.8349
  161SAPE   H2R17941   1.241   2.947   2.839 -0.8293 -1.7484  0.2477
  161SAPE   H2S17942   1.181   3.071   2.714 -1.0747  0.8951  0.6476
  161SAPE    C317943   1.104   2.531   2.744 -0.2820  0.5356 -0.0980
  161SAPE    HX17944   1.215   2.528   2.749 -0.3493 -0.3992  1.5991
  161SAPE    HY17945   1.071   2.440   2.689 -0.7761 -0.3139  1.5439
  161SAPE   O3117946   1.046   2.524   2.877  0.2705  0.3998  0.2154
  161SAPE   C3117947   1.132   2.564   2.976  0.2872 -0.0013  0.2809
  161SAPE   O3217948   1.244   2.605   2.958 -0.5365 -0.1405  0.0343
  161SAPE   C3217949   1.079   2.524   3.111 -0.0104 -0.3741  0.1084
  161SAPE   H2X17950   1.124   2.423   3.123 -0.3668 -0.7453 -1.4665
  161SAPE   H2Y17951   0.968   2.524   3.116  0.0029 -1.7800  1.3491
  161SAPE   C2317952   1.078   3.078   2.904 -0.4879 -0.0448 -0.1192
  161SAPE   H3R17953   0.979   3.108   2.866  0.2539 -0.4133 -2.5154
  161SAPE   H3S17954   1.140   3.171   2.908 -1.6348  0.8363 -1.7019
  161SAPE   C2417955   1.075   3.011   3.043  0.8918  0.6397  0.3013
  161SAPE   H4R17956   1.028   2.912   3.026 -0.1812  1.1479  0.1679
  161SAPE   H4S17957   1.006   3.062   3.113  0.5665  0.0246  0.4333
  161SAPE   C2517958   1.204   2.987   3.110  0.0178 -0.3335  0.4585
  161SAPE   H5R17959   1.269   2.918   3.054  0.3508 -0.8804  1.4930
  161SAPE   C2617960   1.250   3.046   3.224  0.3233 -0.5669 -0.4644
  161SAPE   H6R17961   1.354   3.037   3.258 -0.0020 -0.0473  0.7422
  161SAPE   C2717962   1.167   3.154   3.296 -0.6058  0.1123 -0.1475
  161SAPE   H7R17963   1.115   3.226   3.229  2.1027  1.4453 -0.9787
  161SAPE   H7S17964   1.238   3.225   3.345 -0.6352 -0.2832  0.4806
  161SAPE   C2817965   1.086   3.077   3.400 -0.2926 -0.3173  0.2986
  161SAPE   H8R17966   0.993   3.034   3.362  0.4294 -1.1589 -0.5809
  161SAPE   C2917967   1.124   3.051   3.532 -0.0876 -0.7161  1.2397
  161SAPE   H9R17968   1.058   3.008   3.608  1.0470  0.1374  2.7675
  161SAPE  C21017969   1.253   3.114   3.586  0.4617  0.3881  0.8397
  161SAPE  H10R17970   1.336   3.118   3.513  1.1728  2.1154  1.6908
  161SAPE  H10S17971   1.294   3.055   3.671  1.5374 -0.5310 -0.2768
  161SAPE  C21117972   1.225   3.252   3.635  0.1591  0.1968 -0.0799
  161SAPE  H11R17973   1.170   3.318   3.566  1.1404 -1.3773 -2.5005
  161SAPE  C21217974   1.238   3.299   3.759  0.6083  0.4122  0.5651
  161SAPE  H12R17975   1.200   3.401   3.776  0.2872  0.5918 -1.0558
  161SAPE  C21317976   1.323   3.234   3.870 -0.1612  0.1273  0.0982
  161SAPE  H13R17977   1.346   3.321   3.935  0.1859  1.8154 -2.1545
  161SAPE  H13S17978   1.413   3.187   3.825 -0.6239 -0.7223  0.0294
  161SAPE  C21417979   1.244   3.126   3.943  0.5585 -0.7341  0.3934
  161SAPE  H14R17980   1.157   3.082   3.893 -0.2972  0.4106  0.8270
  161SAPE  C21517981   1.262   3.088   4.070 -0.0994 -0.3523  0.2682
  161SAPE  H15R17982   1.205   3.000   4.103  2.5505 -0.6607  4.8087
  161SAPE  C21617983   1.360   3.134   4.176  0.1326  0.3210  0.6351
  161SAPE  H16R17984   1.404   3.226   4.131  0.7299  0.2167  1.0003
  161SAPE  H16S17985   1.433   3.059   4.214 -0.2295 -0.3602  0.0260
  161SAPE  C21717986   1.285   3.170   4.308  0.3167 -0.2012 -0.4998
  161SAPE  H17R17987   1.208   3.097   4.341  0.3643  0.2092  0.5281
  161SAPE  H17S17988   1.249   3.274   4.298  1.1439  0.0225 -1.3093
  161SAPE  C21817989   1.388   3.182   4.425  0.5733 -0.4846 -0.0525
  161SAPE  H18R17990   1.440   3.279   4.412  1.0980 -0.4918  1.7995
  161SAPE  H18S17991   1.468   3.106   4.413  0.7199 -0.0178 -2.6587
  161SAPE  C21917992   1.323   3.193   4.564  0.1117  0.0307  0.3942
  161SAPE  H19R17993   1.290   3.088   4.581  0.6594 -0.6567 -2.2861
  161SAPE  H19S17994   1.234   3.260   4.568  1.3537  1.9418 -1.6979
  161SAPE  C22017995   1.419   3.231   4.676  0.2521 -0.2046  0.1482
  161SAPE  H20R17996   1.369   3.253   4.772  1.2242  1.6179  0.2807
  161SAPE  H20S17997   1.473   3.323   4.645 -0.0528  0.3237  1.1649
  161SAPE  H20T17998   1.503   3.158   4.678 -0.6544 -1.3614 -1.4307
  161SAPE   C3317999   1.129   2.610   3.231  0.0203 -0.4315  0.1951
  161SAPE   H3X18000   1.106   2.717   3.210 -0.5269 -1.0095 -2.4050
  161SAPE   H3Y18001   1.239   2.601   3.242 -0.1289 -0.8808  1.4645
  161SAPE   C3418002   1.064   2.552   3.358  0.7865  0.2652 -0.4583
  161SAPE   H4X18003   1.108   2.459   3.400 -1.0885  0.5227  2.4171
  161SAPE   H4Y18004   0.959   2.524   3.335 -0.4429  1.7038  2.6823
  161SAPE   C3518005   1.062   2.653   3.473 -0.0221 -0.6477 -0.1124
  161SAPE   H5X18006   0.994   2.738   3.447  1.4076  0.6215  0.1814
  161SAPE   H5Y18007   1.159   2.706   3.468 -0.9018  1.0105 -0.2466
  161SAPE   C3618008   1.031   2.594   3.614  0.5369  1.1025 -0.0035
  161SAPE   H6X18009   1.116   2.522   3.621  0.1443  0.4407 -1.6113
  161SAPE   H6Y18010   0.939   2.531   3.610  0.4544  1.2236  0.0058
  161SAPE   C3718011   1.022   2.693   3.731  0.4448 -0.0611 -0.5208
  161SAPE   H7X18012   0.937   2.762   3.715  0.8528  0.5006 -0.3100
  161SAPE   H7Y18013   1.118   2.749   3.730 -0.4081  1.4455 -1.3370
  161SAPE   C3818014   0.998   2.626   3.868  0.1512  0.1263 -0.1510
  161SAPE   H8X18015   1.077   2.551   3.890 -0.0026  0.1494  0.4905
  161SAPE   H8Y18016   0.900   2.577   3.885  0.9863 -0.8293  2.3407
  161SAPE   C3918017   0.993   2.734   3.980 -0.6191  0.2937  0.1712
  161SAPE   H9X18018   0.903   2.794   3.955 -0.6905  0.5923  1.1038
  161SAPE   H9Y18019   1.077   2.806   3.971  0.9143 -1.2759  1.3142
  161SAPE  C31018020   0.985   2.678   4.123  0.7683  0.0194 -0.5145
  161SAPE  H10X18021   1.070   2.609   4.141  2.3077  0.8382 -3.8011
  161SAPE  H10Y18022   0.889   2.624   4.137  0.5587  0.2621 -0.9923
  161SAPE  C31118023   1.010   2.785   4.230 -0.1449 -0.3667  0.0961
  161SAPE  H11X18024   0.939   2.868   4.206 -0.3028 -0.4249  0.3649
  161SAPE  H11Y18025   1.116   2.817   4.237 -0.1986 -0.6029  2.9030
  161SAPE  C31218026   0.964   2.743   4.373 -0.5385 -0.2839  1.0001
  161SAPE  H12X18027   1.045   2.673   4.402 -0.1082 -0.5050 -0.6343
  161SAPE  H12Y18028   0.876   2.676   4.373 -0.1984 -0.7386  1.3208
  161SAPE  C31318029   0.974   2.852   4.484 -0.0192  0.5231  0.9107
  161SAPE  H13X18030   0.903   2.930   4.448 -1.4301 -1.3891 -0.7167
  161SAPE  H13Y18031   1.077   2.884   4.510  0.8936 -2.7490  1.7327
  161SAPE  C31418032   0.927   2.801   4.618 -0.0481  0.2795 -0.0653
  161SAPE  H14X18033   1.015   2.739   4.648  2.5277  2.0236 -3.3147
  161SAPE  H14Y18034   0.830   2.748   4.609 -0.7252  1.6912 -1.6227
  161SAPE  C31518035   0.907   2.915   4.720  0.0241 -0.1520  0.0864
  161SAPE  H15X18036   0.847   2.860   4.795 -2.6698  1.9235 -0.4010
  161SAPE  H15Y18037   0.848   2.994   4.669  1.1901  1.1520  0.6684
  161SAPE  C31618038   1.032   2.983   4.780  0.7186  0.0127 -0.2509
  161SAPE  H16X18039   1.071   3.048   4.699 -0.1950 -3.5097 -3.8354
  161SAPE  H16Y18040   1.119   2.920   4.807  0.9888  0.9572  1.2183
  161SAPE  C31718041   0.995   3.047   4.916  0.6840 -0.4492 -0.0556
  161SAPE  H17X18042   0.934   2.977   4.976 -1.8818  1.7789  0.1284
  161SAPE  H17Y18043   0.937   3.137   4.887  2.6789  0.8645 -0.1822
  161SAPE  C31818044   1.114   3.107   4.995 -0.8542 -0.3514  0.5416
  161SAPE  H18X18045   1.185   3.026   5.023  0.3021  0.0212 -1.1597
  161SAPE  H18Y18046   1.082   3.175   5.077  2.5516  2.3178 -0.1085
  161SAPE  H18Z18047   1.184   3.162   4.929 -0.7960 -0.8486  0.1789
  162SAPE     N18048   0.128   4.785   3.099  0.4659  0.2886 -0.7045
  162SAPE   HN118049   0.192   4.862   3.129  0.5633 -1.1533  3.2414
  162SAPE   HN218050   0.159   4.757   3.004 -0.9851  0.1992 -1.1807
  162SAPE   HN318051   0.036   4.834   3.104  0.7195  0.6147  1.4031
  162SAPE   C1218052   0.127   4.676   3.215 -0.0063 -1.0874 -0.1569
  162SAPE  H12A18053   0.236   4.657   3.224 -0.1808 -3.0858 -1.7927
  162SAPE  H12B18054   0.077   4.586   3.176  1.2007 -1.6546 -0.4256
  162SAPE   C1118055   0.061   4.722   3.344  0.0141 -0.7049 -0.9348
  162SAPE  H11A18056   0.108   4.814   3.384  1.2514 -1.1051 -1.4054
  162SAPE  H11B18057   0.090   4.644   3.418  1.8782  0.6013 -0.2133
  162SAPE     P18058  -0.151   4.872   3.317  0.1076  0.1274  0.0797
  162SAPE   O1318059  -0.078   4.941   3.207  0.1893  0.0599  0.3681
  162SAPE   O1418060  -0.296   4.865   3.309 -0.0134  0.3565 -0.2401
  162SAPE   O1218061  -0.084   4.727   3.344  0.1445  0.1433 -0.2745
  162SAPE   O1118062  -0.120   4.954   3.454  0.2677 -0.0651  0.2336
  162SAPE    C118063  -0.152   4.903   3.586 -0.7030 -1.1310  0.2028
  162SAPE    HA18064  -0.261   4.908   3.607 -0.8147  2.2433 -0.4820
  162SAPE    HB18065  -0.113   4.802   3.608 -1.5979 -1.1401  1.9405
  162SAPE    C218066  -0.087   4.996   3.692 -0.2226  0.2472 -0.2652
  162SAPE    HS18067  -0.021   4.932   3.754 -1.2381  0.6496  1.2616
  162SAPE   O2118068  -0.183   5.052   3.784  0.6525 -0.2776 -0.3864
  162SAPE   C2118069  -0.254   4.970   3.862  0.3933  0.1050 -0.7132
  162SAPE   O2218070  -0.260   4.849   3.859  0.7613  0.0943 -0.2363
  162SAPE   C2218071  -0.348   5.061   3.951  0.8464 -0.5154 -0.1808
  162SAPE   H2R18072  -0.305   5.162   3.969 -0.7854 -0.2658  2.9567
  162SAPE   H2S18073  -0.437   5.085   3.889  0.7675  0.5324  0.3209
  162SAPE    C318074   0.001   5.112   3.637 -0.5088  0.4803 -0.3754
  162SAPE    HX18075  -0.067   5.172   3.573 -1.4959 -0.0525  0.1430
  162SAPE    HY18076   0.078   5.060   3.577 -0.3307 -1.8198  1.6644
  162SAPE   O3118077   0.062   5.186   3.745  0.5355  0.0739 -0.6044
  162SAPE   C3118078   0.091   5.310   3.718 -0.4004 -0.1096  0.1061
  162SAPE   O3218079   0.087   5.357   3.608  0.3671 -0.1033  0.1181
  162SAPE   C3218080   0.130   5.389   3.844 -0.3984  0.6071  0.6501
  162SAPE   H2X18081   0.062   5.477   3.850 -0.7314  0.2759  2.1337
  162SAPE   H2Y18082   0.237   5.414   3.833  0.0900 -2.3046 -2.6891
  162SAPE   C2318083  -0.400   5.000   4.079 -0.2705  0.6460  0.1023
  162SAPE   H3R18084  -0.427   4.896   4.050  0.6070  1.0139 -2.2119
  162SAPE   H3S18085  -0.490   5.050   4.121  0.3395  1.6558  0.2373
  162SAPE   C2418086  -0.294   4.977   4.181 -0.1342 -0.3632  0.2637
  162SAPE   H4R18087  -0.222   4.900   4.147 -0.5773 -1.2769  1.3295
  162SAPE   H4S18088  -0.335   4.919   4.267  4.3318 -1.4800  1.9413
  162SAPE   C2518089  -0.220   5.104   4.230  0.1048  0.1958  0.0692
  162SAPE   H5R18090  -0.180   5.165   4.147 -0.7753 -0.2257 -0.6840
  162SAPE   C2618091  -0.233   5.163   4.353 -0.5156  1.0552 -1.1271
  162SAPE   H6R18092  -0.166   5.247   4.375  1.8086 -1.1571  0.8488
  162SAPE   C2718093  -0.317   5.097   4.467 -0.1880 -0.0418 -0.0629
  162SAPE   H7R18094  -0.376   5.008   4.438 -0.9268  0.2001  0.6493
  162SAPE   H7S18095  -0.396   5.167   4.502 -1.0620  0.7818 -3.3970
  162SAPE   C2818096  -0.221   5.061   4.580  0.3291  0.2879 -0.6339
  162SAPE   H8R18097  -0.121   5.030   4.547  0.1970  0.6237 -1.3704
  162SAPE   C2918098  -0.235   5.064   4.712  0.2313 -0.2779 -0.5307
  162SAPE   H9R18099  -0.150   5.032   4.774 -0.2659 -0.0260  0.2968
  162SAPE  C21018100  -0.351   5.093   4.801 -0.2875  0.1384  0.0716
  162SAPE  H10R18101  -0.344   5.008   4.873  0.4362 -0.5459 -0.7855
  162SAPE  H10S18102  -0.451   5.090   4.752  0.9859 -0.3106 -2.6807
  162SAPE  C21118103  -0.328   5.223   4.875 -0.4386  0.1086 -0.6402
  162SAPE  H11R18104  -0.351   5.311   4.814  2.3551 -0.2780 -2.4564
  162SAPE  C21218105  -0.281   5.236   5.003  1.0616 -0.1007 -0.0694
  162SAPE  H12R18106  -0.286   5.336   5.048  0.7292 -0.3064  0.3569
  162SAPE  C21318107  -0.233   5.127   5.095  0.1968  0.5839  0.0214
  162SAPE  H13R18108  -0.258   5.023   5.066 -0.2829  0.8361 -0.4978
  162SAPE  H13S18109  -0.290   5.152   5.187 -0.3016 -1.2205  0.2400
  162SAPE  C21418110  -0.095   5.139   5.141  0.4862 -0.3731 -0.4257
  162SAPE  H14R18111  -0.033   5.119   5.052 -1.5113 -3.7742 -1.2563
  162SAPE  C21518112  -0.049   5.170   5.268  0.3720 -0.4542 -0.2716
  162SAPE  H15R18113   0.060   5.182   5.277  0.5618 -0.1853 -2.3530
  162SAPE  C21618114  -0.129   5.192   5.387 -0.6629 -0.2513 -0.0797
  162SAPE  H16R18115  -0.140   5.101   5.450 -0.1871 -1.4584 -1.6659
  162SAPE  H16S18116  -0.230   5.225   5.356 -0.5012 -1.4010 -2.0479
  162SAPE  C21718117  -0.075   5.300   5.484  0.1589 -0.8296 -0.4442
  162SAPE  H17R18118  -0.050   5.393   5.427  2.5781 -0.7161  0.6683
  162SAPE  H17S18119   0.023   5.260   5.517 -0.6684 -0.7030  2.3704
  162SAPE  C21818120  -0.162   5.328   5.606  0.0300 -0.8377 -0.2556
  162SAPE  H18R18121  -0.166   5.238   5.669 -3.7207 -0.8311 -0.2538
  162SAPE  H18S18122  -0.262   5.356   5.565  1.2969  2.8512 -1.2822
  162SAPE  C21918123  -0.117   5.450   5.677  0.1994 -0.3110  0.3159
  162SAPE  H19R18124  -0.102   5.525   5.597  1.9590  0.4548  1.3111
  162SAPE  H19S18125  -0.024   5.424   5.732 -0.0286  1.1843  1.4744
  162SAPE  C22018126  -0.221   5.500   5.785 -0.2171  0.1839 -1.1339
  162SAPE  H20R18127  -0.215   5.425   5.866 -2.8572 -0.0604 -1.0876
  162SAPE  H20S18128  -0.325   5.501   5.746 -0.5273 -0.2606 -0.3368
  162SAPE  H20T18129  -0.195   5.604   5.814  0.1505  0.7073 -3.1510
  162SAPE   C3318130   0.117   5.304   3.967 -0.7282  0.3527 -0.3309
  162SAPE   H3X18131   0.199   5.231   3.948 -2.1868 -1.7485  1.0060
  162SAPE   H3Y18132   0.022   5.249   3.985 -0.1757 -1.2965 -2.0536
  162SAPE   C3418133   0.147   5.376   4.098  0.4339  0.7609 -0.0607
  162SAPE   H4X18134   0.076   5.458   4.121  0.1593  0.6855 -0.6191
  162SAPE   H4Y18135   0.244   5.431   4.097  0.6514  0.4627  1.7440
  162SAPE   C3518136   0.146   5.285   4.226 -0.3967 -0.1188 -0.3119
  162SAPE   H5X18137   0.247   5.240   4.224 -0.7143 -1.1058  2.1972
  162SAPE   H5Y18138   0.066   5.209   4.229 -1.8697  1.4038  1.1280
  162SAPE   C3618139   0.123   5.358   4.355  0.2837  0.6458 -0.7838
  162SAPE   H6X18140   0.021   5.401   4.362  0.1718  0.2859 -0.0546
  162SAPE   H6Y18141   0.198   5.438   4.372  0.2524  0.2307  1.6565
  162SAPE   C3718142   0.130   5.265   4.489  0.2997 -0.6903  0.3363
  162SAPE   H7X18143   0.204   5.185   4.466 -0.3778 -0.9030 -1.2105
  162SAPE   H7Y18144   0.032   5.214   4.502 -0.3327 -0.1211 -1.8383
  162SAPE   C3818145   0.166   5.354   4.612 -0.4815  0.6719 -0.4956
  162SAPE   H8X18146   0.084   5.424   4.638 -0.2552  0.1435  1.8105
  162SAPE   H8Y18147   0.262   5.406   4.589 -1.0078  1.6121 -0.6218
  162SAPE   C3918148   0.192   5.260   4.732 -0.7176  0.0563  0.4654
  162SAPE   H9X18149   0.280   5.200   4.700 -0.7838  1.0355 -1.6913
  162SAPE   H9Y18150   0.109   5.186   4.731 -0.1611 -0.5905  0.7677
  162SAPE  C31018151   0.190   5.334   4.869 -0.1156  0.2782  0.1980
  162SAPE  H10X18152   0.086   5.369   4.888 -0.1105  0.1672  0.4270
  162SAPE  H10Y18153   0.247   5.429   4.855 -1.9882  1.4156 -0.0848
  162SAPE  C31118154   0.246   5.242   4.974  0.3480  0.6270 -0.3378
  162SAPE  H11X18155   0.342   5.212   4.926 -0.2538  1.2151 -2.0113
  162SAPE  H11Y18156   0.189   5.150   4.997  2.7288 -0.5422  1.3977
  162SAPE  C31218157   0.259   5.315   5.109  0.2287  0.1745  0.4804
  162SAPE  H12X18158   0.159   5.350   5.140  0.4877  0.9447  0.4739
  162SAPE  H12Y18159   0.318   5.410   5.108 -0.6324  0.7773 -1.8695
  162SAPE  C31318160   0.323   5.218   5.217 -0.2983 -0.3424 -0.3929
  162SAPE  H13X18161   0.427   5.185   5.195 -0.5431 -1.6447  0.3130
  162SAPE  H13Y18162   0.266   5.122   5.222 -0.1860 -0.4661 -1.2999
  162SAPE  C31418163   0.305   5.299   5.347  0.1185  0.0348  0.1730
  162SAPE  H14X18164   0.201   5.280   5.381 -0.0360  0.8442  0.1795
  162SAPE  H14Y18165   0.334   5.406   5.335 -0.1731  0.2502  1.2613
  162SAPE  C31518166   0.397   5.237   5.456 -0.3333 -0.1072  0.2006
  162SAPE  H15X18167   0.505   5.242   5.430 -0.1770  0.2458  0.8992
  162SAPE  H15Y18168   0.367   5.130   5.458 -1.2974  0.1631  0.5971
  162SAPE  C31618169   0.365   5.288   5.595 -0.4041 -0.6155  1.1818
  162SAPE  H16X18170   0.258   5.284   5.627 -0.0076  0.5479  2.7047
  162SAPE  H16Y18171   0.403   5.389   5.618 -0.9441 -0.0389 -0.3103
  162SAPE  C31718172   0.432   5.197   5.698  0.3261 -0.6829 -0.5971
  162SAPE  H17X18173   0.542   5.205   5.685  0.6033 -2.0741  0.7308
  162SAPE  H17Y18174   0.402   5.091   5.685 -1.2237 -0.0422 -2.7924
  162SAPE  C31818175   0.400   5.246   5.839 -0.3402 -0.7058  0.0707
  162SAPE  H18X18176   0.440   5.345   5.869 -2.3209 -0.1694  1.0791
  162SAPE  H18Y18177   0.431   5.166   5.911 -2.1636 -2.8517 -1.3847
  162SAPE  H18Z18178   0.291   5.252   5.862 -0.0819  0.2653  1.1572
  163SAPE     N18179   5.863   3.370   2.578 -0.2373 -0.0208 -0.0446
  163SAPE   HN118180   5.947   3.324   2.618 -1.4859 -1.4873  1.0279
  163SAPE   HN218181   5.804   3.299   2.531 -2.2418  0.5493  1.4496
  163SAPE   HN318182   5.879   3.447   2.510  0.9620  0.2622  0.5349
  163SAPE   C1218183   5.789   3.420   2.702  0.3922  0.4822  0.1741
  163SAPE  H12A18184   5.781   3.336   2.774  2.0969  2.1935  2.5535
  163SAPE  H12B18185   5.687   3.446   2.665  0.3281  0.3222  0.2356
  163SAPE   C1118186   5.872   3.533   2.757 -0.0825  0.4274 -0.2595
  163SAPE  H11A18187   5.971   3.488   2.782  0.5993  2.4763  0.9561
  163SAPE  H11B18188   5.821   3.564   2.851 -0.6410 -0.3937 -0.2888
  163SAPE     P18189   5.777   3.717   2.580  0.0557  0.5343  0.2809
  163SAPE   O1318190   5.821   3.842   2.520 -0.5568  0.5849  0.4215
  163SAPE   O1418191   5.725   3.615   2.484 -0.5823  0.1969 -0.3835
  163SAPE   O1218192   5.886   3.644   2.669 -0.4502 -0.2319 -0.1350
  163SAPE   O1118193   5.663   3.746   2.682  0.3584 -0.1401  0.0914
  163SAPE    C118194   5.689   3.854   2.773 -0.7250  0.6174  0.0039
  163SAPE    HA18195   5.777   3.919   2.750  0.4136 -0.9647 -0.3131
  163SAPE    HB18196   5.604   3.925   2.770 -0.1776  1.2602 -1.4926
  163SAPE    C218197   5.711   3.805   2.924  0.3258  0.9845  0.1230
  163SAPE    HS18198   5.808   3.751   2.924 -1.4291 -2.4887  1.5982
  163SAPE   O2118199   5.616   3.698   2.962 -0.7795 -0.1090 -0.0469
  163SAPE   C2118200   5.491   3.732   2.960  0.1369  0.7073 -0.7885
  163SAPE   O2218201   5.443   3.842   2.937  0.1967  0.2160  0.2044
  163SAPE   C2218202   5.401   3.607   2.992 -0.8311 -0.4737 -0.0685
  163SAPE   H2R18203   5.344   3.588   2.899 -1.0705  0.6812 -0.1672
  163SAPE   H2S18204   5.466   3.519   3.010 -0.1002  0.0199 -0.2804
  163SAPE    C318205   5.732   3.916   3.032 -1.0981  0.5068  1.0049
  163SAPE    HX18206   5.643   3.982   3.033 -0.4384  1.5898 -1.8614
  163SAPE    HY18207   5.819   3.977   3.001  0.8324 -2.3445  0.4053
  163SAPE   O3118208   5.762   3.870   3.165  0.2831  0.3629  0.0219
  163SAPE   C3118209   5.753   3.962   3.260  0.1415  0.3143  0.3275
  163SAPE   O3218210   5.732   4.083   3.246  0.3054  0.1830 -0.1386
  163SAPE   C3218211   5.771   3.886   3.396  0.4698 -0.3879 -0.8307
  163SAPE   H2X18212   5.869   3.833   3.390  1.0435  0.6823 -1.0666
  163SAPE   H2Y18213   5.686   3.814   3.394  1.2538 -1.3658 -0.2439
  163SAPE   C2318214   5.289   3.622   3.099 -0.1306 -0.6591 -0.0858
  163SAPE   H3R18215   5.229   3.529   3.087 -1.4710 -0.0826  1.7079
  163SAPE   H3S18216   5.223   3.710   3.080  1.0530  0.2908  0.0252
  163SAPE   C2418217   5.326   3.615   3.247 -1.2839 -0.1959  0.4012
  163SAPE   H4R18218   5.391   3.528   3.271 -0.2490  1.1451  2.8614
  163SAPE   H4S18219   5.228   3.600   3.297 -2.0404 -1.9689 -1.4996
  163SAPE   C2518220   5.410   3.737   3.294  0.1637 -0.3983 -0.3515
  163SAPE   H5R18221   5.472   3.775   3.211  2.2681 -4.0308 -0.6579
  163SAPE   C2618222   5.405   3.801   3.411 -0.2605 -0.9188 -0.8532
  163SAPE   H6R18223   5.470   3.888   3.427  0.5665 -1.8894  1.4095
  163SAPE   C2718224   5.336   3.758   3.540 -0.9216  0.3936 -0.4741
  163SAPE   H7R18225   5.404   3.763   3.627 -3.6172 -2.0312  1.9856
  163SAPE   H7S18226   5.318   3.648   3.540 -2.1967  0.5563 -2.4432
  163SAPE   C2818227   5.208   3.833   3.574 -0.0885  0.4949  0.6043
  163SAPE   H8R18228   5.160   3.884   3.489  1.2616 -0.2727 -0.6516
  163SAPE   C2918229   5.161   3.861   3.699  0.0457  0.0052 -0.0127
  163SAPE   H9R18230   5.067   3.917   3.707 -0.7669 -1.4418  1.2757
  163SAPE  C21018231   5.215   3.820   3.837 -0.2626 -0.4141 -0.0198
  163SAPE  H10R18232   5.224   3.907   3.905 -0.5542  0.0057 -0.5090
  163SAPE  H10S18233   5.325   3.806   3.822 -0.2810  1.0717 -1.9208
  163SAPE  C21118234   5.169   3.687   3.887  0.1176 -0.4198 -0.3807
  163SAPE  H11R18235   5.169   3.608   3.811 -4.0248 -0.6785 -0.2975
  163SAPE  C21218236   5.110   3.667   4.007 -0.1856  0.1760  0.9477
  163SAPE  H12R18237   5.056   3.571   4.011  0.6453 -0.2824  1.4458
  163SAPE  C21318238   5.089   3.776   4.114  0.4635  0.2049  0.5288
  163SAPE  H13R18239   4.987   3.772   4.159  0.0157 -1.6730 -0.5255
  163SAPE  H13S18240   5.091   3.879   4.073 -1.9495 -0.3821 -1.2524
  163SAPE  C21418241   5.189   3.762   4.224  0.3739  0.6053  0.9533
  163SAPE  H14R18242   5.294   3.782   4.198 -0.0646  1.4560 -0.2941
  163SAPE  C21518243   5.168   3.700   4.345  0.0230 -0.7853 -0.2687
  163SAPE  H15R18244   5.250   3.702   4.418 -1.0341  2.9972  1.0276
  163SAPE  C21618245   5.044   3.642   4.399  0.8123  0.5225  0.1259
  163SAPE  H16R18246   5.053   3.533   4.419 -0.3513  0.5906  1.0661
  163SAPE  H16S18247   4.960   3.662   4.330  1.3075  1.3541 -0.2570
  163SAPE  C21718248   5.012   3.699   4.529  0.1664  0.0296  0.2458
  163SAPE  H17R18249   4.915   3.662   4.569 -0.4063  0.8237 -0.3764
  163SAPE  H17S18250   5.010   3.810   4.529  1.6376  0.0814 -0.6932
  163SAPE  C21818251   5.120   3.666   4.639  0.1607  0.6410  0.0641
  163SAPE  H18R18252   5.201   3.741   4.625  1.7194 -1.3006 -2.0586
  163SAPE  H18S18253   5.164   3.565   4.626  3.2203  1.6197  1.9418
  163SAPE  C21918254   5.072   3.679   4.789 -0.4089  0.2321 -0.4759
  163SAPE  H19R18255   5.005   3.592   4.802  1.2665 -0.9031  1.0944
  163SAPE  H19S18256   5.022   3.775   4.812  0.2092  0.3696  0.3304
  163SAPE  C22018257   5.189   3.660   4.891  0.3200 -0.4466 -0.1380
  163SAPE  H20R18258   5.237   3.564   4.860 -3.3136 -2.3247 -0.5487
  163SAPE  H20S18259   5.140   3.658   4.991  0.9609  3.0642  0.3809
  163SAPE  H20T18260   5.257   3.748   4.894 -0.7186  0.3880 -0.5760
  163SAPE   C3318261   5.762   3.979   3.525 -0.0069  0.6963  0.3962
  163SAPE   H3X18262   5.709   4.074   3.505  3.7393  2.7524 -0.8013
  163SAPE   H3Y18263   5.868   4.002   3.551  0.0213  1.3921 -0.3170
  163SAPE   C3418264   5.694   3.901   3.645  0.0370 -0.1028  0.4466
  163SAPE   H4X18265   5.748   3.811   3.680 -0.2666 -0.2520  0.5290
  163SAPE   H4Y18266   5.589   3.876   3.619  0.2964 -0.1454 -0.6266
  163SAPE   C3518267   5.677   3.992   3.772 -0.1240  0.0773  0.4483
  163SAPE   H5X18268   5.675   4.098   3.739  0.9902 -0.7115 -2.4142
  163SAPE   H5Y18269   5.775   3.986   3.823  0.6759  0.5846 -0.9905
  163SAPE   C3618270   5.560   3.960   3.866 -0.8390  0.6829  0.6236
  163SAPE   H6X18271   5.561   3.850   3.880  0.1062  0.4804 -0.7855
  163SAPE   H6Y18272   5.464   3.990   3.818 -0.8056  2.2666  1.4583
  163SAPE   C3718273   5.577   4.038   4.001 -0.0836 -0.7118 -0.6192
  163SAPE   H7X18274   5.607   4.143   3.980 -1.4568 -0.1024  0.3274
  163SAPE   H7Y18275   5.655   3.990   4.064  0.2001 -0.0630 -0.4709
  163SAPE   C3818276   5.439   4.051   4.078 -0.3298  0.0378  0.0224
  163SAPE   H8X18277   5.412   3.945   4.094 -1.1918 -0.0482 -1.7786
  163SAPE   H8Y18278   5.355   4.097   4.020 -2.6820 -1.0840  2.3177
  163SAPE   C3918279   5.455   4.106   4.228 -0.4394  0.7853  0.1457
  163SAPE   H9X18280   5.469   4.216   4.230 -0.1941  0.7411  1.5724
  163SAPE   H9Y18281   5.547   4.066   4.276 -1.0536  2.6329  3.0994
  163SAPE  C31018282   5.327   4.084   4.306  0.8095  0.2550 -0.4300
  163SAPE  H10X18283   5.309   3.976   4.320  0.0346  0.5911  1.4844
  163SAPE  H10Y18284   5.245   4.140   4.255 -0.3641 -0.4705  0.6157
  163SAPE  C31118285   5.352   4.136   4.455 -0.6328 -0.3801  0.5715
  163SAPE  H11X18286   5.341   4.246   4.457  0.8554 -0.2142  1.4269
  163SAPE  H11Y18287   5.451   4.098   4.490  0.5618  0.8515 -1.2981
  163SAPE  C31218288   5.247   4.078   4.550 -0.0745  0.1822 -0.3580
  163SAPE  H12X18289   5.260   3.967   4.553 -1.1688  0.0568  0.5334
  163SAPE  H12Y18290   5.158   4.093   4.485  0.0581  3.0198  0.0189
  163SAPE  C31318291   5.226   4.147   4.683  0.1117  0.1096  0.0778
  163SAPE  H13X18292   5.182   4.247   4.665 -0.5203  0.2054  1.9398
  163SAPE  H13Y18293   5.326   4.173   4.724 -0.1211  3.9020 -1.4116
  163SAPE  C31418294   5.149   4.056   4.779  0.1400  0.0209  0.5067
  163SAPE  H14X18295   5.216   3.971   4.804  2.0228  0.9674 -1.0563
  163SAPE  H14Y18296   5.069   4.014   4.713  0.9482 -1.9126  0.6790
  163SAPE  C31518297   5.088   4.118   4.905  0.7287 -0.5760  0.2232
  163SAPE  H15X18298   5.049   4.044   4.978  2.5003  0.3213  2.1517
  163SAPE  H15Y18299   5.005   4.178   4.862  2.2551  0.1804 -1.8331
  163SAPE  C31618300   5.177   4.207   4.994  0.2247 -1.0218 -1.1571
  163SAPE  H16X18301   5.225   4.287   4.933 -0.4419  0.0502 -0.2978
  163SAPE  H16Y18302   5.254   4.139   5.036  0.1208  0.4687  1.6302
  163SAPE  C31718303   5.097   4.274   5.112 -0.4480 -0.0309  0.1622
  163SAPE  H17X18304   5.050   4.195   5.175 -0.0498  0.6961  1.4105
  163SAPE  H17Y18305   5.013   4.332   5.069 -0.2863 -0.3879 -0.6587
  163SAPE  C31818306   5.194   4.361   5.205  0.4133  0.1030  1.2533
  163SAPE  H18X18307   5.269   4.405   5.135 -0.6162  0.6437  0.4569
  163SAPE  H18Y18308   5.240   4.295   5.281  0.4295  1.6300  2.6333
  163SAPE  H18Z18309   5.133   4.444   5.248 -0.1516 -0.1277  0.9038
  164SAPE     N18310   0.557   1.269   2.745  0.4045 -0.4879  0.8178
  164SAPE   HN118311   0.530   1.309   2.652  0.9529  1.7869  1.5705
  164SAPE   HN218312   0.515   1.174   2.750 -1.5496  0.0644 -2.0100
  164SAPE   HN318313   0.506   1.324   2.817  1.1947 -0.1223  1.1018
  164SAPE   C1218314   0.706   1.264   2.733 -0.1299 -0.2585 -0.5394
  164SAPE  H12A18315   0.735   1.198   2.649  0.9967  0.9597 -1.1479
  164SAPE  H12B18316   0.750   1.204   2.816  0.8457  0.0251 -0.8386
  164SAPE   C1118317   0.773   1.402   2.737  0.6380  0.8061  0.7830
  164SAPE  H11A18318   0.878   1.392   2.701 -0.2424  0.9252 -2.1371
  164SAPE  H11B18319   0.760   1.430   2.843  0.5040 -0.2232  1.0452
  164SAPE     P18320   0.745   1.637   2.641 -0.1292  0.1551 -0.0834
  164SAPE   O1318321   0.881   1.638   2.593 -0.3739  0.2377  0.3947
  164SAPE   O1418322   0.638   1.711   2.565 -0.0639  0.5788  0.4406
  164SAPE   O1218323   0.704   1.486   2.646 -0.1494 -0.2783 -0.3577
  164SAPE   O1118324   0.747   1.670   2.791  0.2601  0.5367 -0.0064
  164SAPE    C118325   0.634   1.718   2.862  1.0093 -0.1809 -0.3362
  164SAPE    HA18326   0.608   1.814   2.812  1.4552  0.0343 -0.1572
  164SAPE    HB18327   0.552   1.643   2.859  1.0623 -0.2149 -0.8648
  164SAPE    C218328   0.673   1.747   3.009  0.2219  0.4837  0.3267
  164SAPE    HS18329   0.740   1.835   3.001 -3.3286  3.3699 -0.3184
  164SAPE   O2118330   0.723   1.628   3.076 -0.0268  0.0470  0.1515
  164SAPE   C2118331   0.857   1.622   3.079  0.5094 -0.1508  0.5113
  164SAPE   O2218332   0.940   1.698   3.033 -0.2317  0.5873 -0.8475
  164SAPE   C2218333   0.890   1.491   3.155  0.5197 -0.0868  0.4600
  164SAPE   H2R18334   0.823   1.478   3.242 -0.7498  2.0588 -0.1186
  164SAPE   H2S18335   0.870   1.402   3.092 -0.3984  1.0986 -0.9968
  164SAPE    C318336   0.544   1.801   3.085 -0.4712 -0.1448 -0.1550
  164SAPE    HX18337   0.464   1.724   3.076 -1.1035  0.5735 -0.8628
  164SAPE    HY18338   0.512   1.904   3.058 -0.5729  0.3118  1.5606
  164SAPE   O3118339   0.575   1.793   3.225  0.1500  0.1776  0.4012
  164SAPE   C3118340   0.642   1.899   3.272 -0.4104  1.0737 -0.7845
  164SAPE   O3218341   0.689   1.995   3.215 -0.5125 -0.1553 -0.1881
  164SAPE   C3218342   0.634   1.908   3.426  0.8258  0.3977  0.1529
  164SAPE   H2X18343   0.533   1.947   3.446  0.3495  0.1131 -1.5034
  164SAPE   H2Y18344   0.695   1.996   3.458  0.7980 -0.0735  1.5649
  164SAPE   C2318345   1.037   1.501   3.211 -0.8793 -0.0293 -0.0135
  164SAPE   H3R18346   1.111   1.544   3.139 -0.8166 -0.9791 -0.5338
  164SAPE   H3S18347   1.070   1.396   3.225  2.7638  0.7685 -1.2827
  164SAPE   C2418348   1.044   1.581   3.337 -0.1940  0.3334 -0.1722
  164SAPE   H4R18349   1.009   1.682   3.304 -0.0584 -0.5945 -3.5805
  164SAPE   H4S18350   1.153   1.598   3.348 -0.4916  1.0994  1.8828
  164SAPE   C2518351   0.973   1.531   3.460 -0.4156 -0.1820  0.2958
  164SAPE   H5R18352   0.890   1.464   3.434  0.1968 -0.7515 -0.2174
  164SAPE   C2618353   1.031   1.530   3.579  0.4853  0.1627  0.7304
  164SAPE   H6R18354   0.978   1.472   3.656 -0.7251  1.8625  1.2258
  164SAPE   C2718355   1.152   1.602   3.631  0.2847 -0.9723  0.7846
  164SAPE   H7R18356   1.230   1.604   3.553 -1.5030 -2.8484 -1.1729
  164SAPE   H7S18357   1.202   1.545   3.713  2.5114  0.0117  0.1589
  164SAPE   C2818358   1.113   1.743   3.662  0.8282  0.6032 -0.0160
  164SAPE   H8R18359   1.091   1.812   3.579 -1.7096  0.7634  0.7029
  164SAPE   C2918360   1.102   1.791   3.789 -0.5409  0.1711  0.4287
  164SAPE   H9R18361   1.072   1.896   3.800 -1.1164  0.0906 -0.2812
  164SAPE  C21018362   1.094   1.712   3.918  0.2116 -0.2299 -0.7369
  164SAPE  H10R18363   1.088   1.602   3.904  2.4302 -0.6605  1.0840
  164SAPE  H10S18364   1.000   1.738   3.972  1.2372  1.0764  0.5117
  164SAPE  C21118365   1.208   1.752   4.007  0.2560 -0.0686 -0.2342
  164SAPE  H11R18366   1.308   1.750   3.960  0.8560 -0.9531  1.0340
  164SAPE  C21218367   1.211   1.748   4.138  0.7738  0.2040  0.0404
  164SAPE  H12R18368   1.307   1.768   4.189  1.0827 -0.1702 -0.3839
  164SAPE  C21318369   1.101   1.704   4.222 -0.5321 -0.0709  0.1644
  164SAPE  H13R18370   1.154   1.646   4.301 -3.2091  0.4024  2.5024
  164SAPE  H13S18371   1.035   1.633   4.168 -0.9634  0.4622 -0.0170
  164SAPE  C21418372   1.018   1.809   4.285  0.1976 -0.1917  0.2571
  164SAPE  H14R18373   0.940   1.850   4.220 -0.2883  0.2720  1.1124
  164SAPE  C21518374   1.021   1.854   4.412  0.2508 -0.4913  0.4448
  164SAPE  H15R18375   0.952   1.936   4.436 -0.5047 -1.4138  1.5439
  164SAPE  C21618376   1.106   1.802   4.523 -0.5752 -0.7881  0.0802
  164SAPE  H16R18377   1.141   1.891   4.579 -1.4039 -0.7921  0.6373
  164SAPE  H16S18378   1.198   1.754   4.484  1.2103  1.7244  0.9849
  164SAPE  C21718379   1.022   1.720   4.623 -0.7894 -0.2925 -0.6221
  164SAPE  H17R18380   0.972   1.642   4.562 -1.1753  1.3192 -2.4786
  164SAPE  H17S18381   0.941   1.767   4.682 -1.4290 -0.1573 -1.5951
  164SAPE  C21818382   1.112   1.659   4.737 -0.1626 -0.2277  0.5161
  164SAPE  H18R18383   1.049   1.594   4.801  1.6681 -0.7670  1.8633
  164SAPE  H18S18384   1.158   1.741   4.795 -0.0114 -0.7618  1.1665
  164SAPE  C21918385   1.222   1.559   4.685 -0.3321 -0.5877 -0.8342
  164SAPE  H19R18386   1.311   1.608   4.640  0.6136 -2.0671 -0.6258
  164SAPE  H19S18387   1.185   1.487   4.609 -2.1046 -1.1785  0.5120
  164SAPE  C22018388   1.279   1.490   4.812  0.5757  0.2264  0.0845
  164SAPE  H20R18389   1.261   1.546   4.906  3.1849 -0.7761  1.2869
  164SAPE  H20S18390   1.390   1.480   4.805  0.4305 -0.4234 -2.1748
  164SAPE  H20T18391   1.232   1.391   4.829 -1.3993  1.1095 -0.0312
  164SAPE   C3318392   0.683   1.781   3.497  0.1597  0.0409  0.0194
  164SAPE   H3X18393   0.780   1.741   3.459  0.9862  0.1080  1.9607
  164SAPE   H3Y18394   0.595   1.713   3.493  1.2169 -1.3303 -1.3919
  164SAPE   C3418395   0.727   1.804   3.640 -0.0972  0.3870 -0.3296
  164SAPE   H4X18396   0.782   1.899   3.656 -2.8760  2.0903 -0.1319
  164SAPE   H4Y18397   0.791   1.721   3.675 -0.6410  0.1406  0.0810
  164SAPE   C3518398   0.602   1.830   3.734 -0.0394  0.9603 -0.5730
  164SAPE   H5X18399   0.532   1.745   3.724 -0.3515  1.0973  0.3491
  164SAPE   H5Y18400   0.551   1.926   3.712  1.3885  1.3268 -2.5930
  164SAPE   C3618401   0.653   1.831   3.880 -0.1624 -0.4231 -0.2174
  164SAPE   H6X18402   0.718   1.921   3.880 -2.2740  1.3127  2.9768
  164SAPE   H6Y18403   0.728   1.748   3.888 -1.3299 -1.6644 -1.5988
  164SAPE   C3718404   0.559   1.838   3.998  0.0785 -0.2326 -0.1441
  164SAPE   H7X18405   0.493   1.750   3.986  0.6576 -0.6311 -0.4842
  164SAPE   H7Y18406   0.490   1.925   3.990  0.5726  0.1823  0.0171
  164SAPE   C3818407   0.615   1.873   4.140  0.0515  0.3480  0.0830
  164SAPE   H8X18408   0.536   1.907   4.210  0.5380  0.5590  0.5354
  164SAPE   H8Y18409   0.692   1.952   4.129  1.0207 -0.6954 -0.9374
  164SAPE   C3918410   0.667   1.740   4.206 -0.3470  0.3816 -0.1071
  164SAPE   H9X18411   0.756   1.754   4.272  0.0926  1.3078 -0.8619
  164SAPE   H9Y18412   0.700   1.667   4.129 -0.1224 -1.4850  1.6880
  164SAPE  C31018413   0.555   1.662   4.278 -0.6244 -0.4184 -0.1209
  164SAPE  H10X18414   0.569   1.553   4.260  0.2884 -0.2194 -0.6584
  164SAPE  H10Y18415   0.455   1.689   4.239 -0.2120 -0.4320 -1.2184
  164SAPE  C31118416   0.567   1.684   4.433  0.2598  0.2712  0.1322
  164SAPE  H11X18417   0.565   1.793   4.453  1.3002 -0.0450  2.2927
  164SAPE  H11Y18418   0.663   1.647   4.476  0.0160  0.9266  1.2862
  164SAPE  C31218419   0.453   1.629   4.519  0.2109  0.0958 -0.0933
  164SAPE  H12X18420   0.431   1.526   4.486  0.3799  0.7269 -2.3309
  164SAPE  H12Y18421   0.359   1.677   4.484  2.3638  4.0425 -1.0296
  164SAPE  C31318422   0.470   1.643   4.670 -0.0776 -0.2554 -0.3759
  164SAPE  H13X18423   0.543   1.725   4.689  0.0616 -0.4088 -0.2431
  164SAPE  H13Y18424   0.524   1.550   4.698 -0.5867 -0.1818  0.8658
  164SAPE  C31418425   0.345   1.661   4.750 -0.0711 -0.4307  0.1357
  164SAPE  H14X18426   0.383   1.635   4.851 -3.1149 -1.8438  1.0469
  164SAPE  H14Y18427   0.270   1.584   4.720  1.5298 -1.5946 -1.0454
  164SAPE  C31518428   0.286   1.802   4.745  0.0683  0.4304 -0.0679
  164SAPE  H15X18429   0.203   1.790   4.818  0.9281  0.3364  0.9105
  164SAPE  H15Y18430   0.242   1.840   4.650  1.6462 -1.7934 -1.7899
  164SAPE  C31618431   0.380   1.912   4.810 -0.1498  0.5122  0.6957
  164SAPE  H16X18432   0.443   1.960   4.733 -0.6451 -0.0856 -0.0982
  164SAPE  H16Y18433   0.445   1.852   4.877 -1.1808 -1.7003 -0.1575
  164SAPE  C31718434   0.296   2.006   4.896  0.1659 -0.4670 -0.0766
  164SAPE  H17X18435   0.242   1.940   4.967  1.4423 -2.4333 -0.8537
  164SAPE  H17Y18436   0.219   2.056   4.833 -0.7946 -0.4835  1.0466
  164SAPE  C31818437   0.380   2.095   4.988  0.2804  0.6818  0.1247
  164SAPE  H18X18438   0.315   2.168   5.041 -2.5123 -1.4880 -0.0988
  164SAPE  H18Y18439   0.480   2.129   4.951  1.3872  0.2098  2.4721
  164SAPE  H18Z18440   0.408   2.019   5.064  0.7373 -1.6197 -2.2247
  165SAPE     N18441   1.309   5.928   3.132 -0.7555 -0.2933  0.2355
  165SAPE   HN118442   1.310   5.863   3.213  0.5628 -2.3062 -1.2953
  165SAPE   HN218443   1.374   6.006   3.156  1.6667 -1.9367 -0.6336
  165SAPE   HN318444   1.208   5.950   3.114 -1.4342 -2.4280  1.1516
  165SAPE   C1218445   1.342   5.853   3.012 -0.6846 -0.4221  0.6118
  165SAPE  H12A18446   1.450   5.824   3.013 -0.6672 -0.3578  1.5276
  165SAPE  H12B18447   1.320   5.921   2.927 -0.9805  0.8678  1.6928
  165SAPE   C1118448   1.256   5.727   2.990 -0.7826  0.8554 -0.5196
  165SAPE  H11A18449   1.292   5.646   3.057 -0.0378  0.9043 -0.8515
  165SAPE  H11B18450   1.264   5.692   2.885 -1.0680 -0.0908 -0.2382
  165SAPE     P18451   1.003   5.654   3.023 -0.3820  0.0020 -0.0716
  165SAPE   O1318452   0.891   5.710   3.102  0.1452 -0.0910 -0.1215
  165SAPE   O1418453   0.980   5.623   2.881  0.4187  0.4818 -0.3281
  165SAPE   O1218454   1.124   5.763   3.032 -0.4870 -0.5187 -0.2079
  165SAPE   O1118455   1.073   5.529   3.087 -0.7205 -0.4972  0.1899
  165SAPE    C118456   1.036   5.494   3.220 -0.3187 -0.1443 -0.2362
  165SAPE    HA18457   0.931   5.517   3.251 -0.1327  1.4270 -0.6617
  165SAPE    HB18458   1.048   5.385   3.235 -2.0735 -0.5991 -1.8003
  165SAPE    C218459   1.121   5.557   3.334 -0.1785 -0.6383  0.6024
  165SAPE    HS18460   1.119   5.668   3.333  2.8792 -0.4916 -0.7500
  165SAPE   O2118461   1.253   5.502   3.328  0.6487  0.6462 -0.5649
  165SAPE   C2118462   1.358   5.580   3.329  0.8390 -0.7905  0.2597
  165SAPE   O2218463   1.359   5.702   3.335  0.3107 -0.6729 -0.1883
  165SAPE   C2218464   1.482   5.491   3.319 -0.2506  0.3281  0.8673
  165SAPE   H2R18465   1.460   5.391   3.362  2.0556 -0.3075  0.6824
  165SAPE   H2S18466   1.508   5.494   3.211  2.7000  0.2846  1.4854
  165SAPE    C318467   1.067   5.519   3.477 -0.1219  0.5943 -0.5512
  165SAPE    HX18468   1.122   5.580   3.552  1.6868  1.5548 -2.5363
  165SAPE    HY18469   1.089   5.411   3.494  0.1537  0.4402 -1.7629
  165SAPE   O3118470   0.926   5.549   3.491 -0.5059 -0.2379 -0.2820
  165SAPE   C3118471   0.884   5.508   3.614  0.5351 -0.4768 -0.0609
  165SAPE   O3218472   0.951   5.457   3.700  0.6436 -0.1233 -0.2186
  165SAPE   C3218473   0.733   5.539   3.624 -0.4751 -0.1011 -0.1702
  165SAPE   H2X18474   0.671   5.454   3.586  0.6937 -0.4252 -1.4376
  165SAPE   H2Y18475   0.719   5.632   3.566 -2.4294 -0.3030 -0.0884
  165SAPE   C2318476   1.605   5.546   3.383 -0.3706 -0.7112 -0.7515
  165SAPE   H3R18477   1.625   5.651   3.353  3.1332 -1.5126 -1.6903
  165SAPE   H3S18478   1.700   5.497   3.354  0.2867  0.4187 -0.5834
  165SAPE   C2418479   1.606   5.563   3.539  0.4055 -0.1067  0.2636
  165SAPE   H4R18480   1.521   5.630   3.566  0.3544  0.2774 -0.8243
  165SAPE   H4S18481   1.701   5.611   3.571 -1.0779  4.0286 -0.9156
  165SAPE   C2518482   1.586   5.435   3.606 -0.0433  0.6533 -0.0915
  165SAPE   H5R18483   1.657   5.357   3.573  2.4049  1.5398  2.6619
  165SAPE   C2618484   1.496   5.408   3.700  0.3222 -0.0108 -0.1137
  165SAPE   H6R18485   1.490   5.306   3.739 -2.0122 -0.5489 -1.6573
  165SAPE   C2718486   1.406   5.510   3.761  0.3424  0.2986  0.0420
  165SAPE   H7R18487   1.361   5.584   3.691 -0.6596  0.5734  0.9449
  165SAPE   H7S18488   1.469   5.566   3.832 -0.4928 -1.4795  2.3176
  165SAPE   C2818489   1.280   5.445   3.818  0.2699 -0.2752 -0.1988
  165SAPE   H8R18490   1.203   5.414   3.746 -0.8327  0.6178  0.5675
  165SAPE   C2918491   1.249   5.426   3.950 -0.5370  0.8233  0.5983
  165SAPE   H9R18492   1.146   5.400   3.978 -0.4220  0.1329  0.4177
  165SAPE  C21018493   1.336   5.465   4.068 -0.3679  0.7845 -0.3329
  165SAPE  H10R18494   1.272   5.519   4.142 -0.2060 -1.9558  2.0078
  165SAPE  H10S18495   1.411   5.538   4.032 -1.4422  3.1766  1.8719
  165SAPE  C21118496   1.389   5.343   4.147  0.0406  0.3714  0.0192
  165SAPE  H11R18497   1.451   5.266   4.097  0.4271  0.0997  0.8998
  165SAPE  C21218498   1.339   5.301   4.267 -0.1783 -0.2343  0.5382
  165SAPE  H12R18499   1.407   5.229   4.315  1.1628  1.7521  1.7508
  165SAPE  C21318500   1.260   5.387   4.365 -0.0539  0.7284 -0.4480
  165SAPE  H13R18501   1.156   5.398   4.330  0.6481 -1.2228 -3.5663
  165SAPE  H13S18502   1.308   5.487   4.370  0.3248  0.5858 -1.1129
  165SAPE  C21418503   1.243   5.315   4.494 -1.0868 -0.1234 -0.0168
  165SAPE  H14R18504   1.237   5.205   4.491 -1.7275 -0.1374  1.2573
  165SAPE  C21518505   1.236   5.369   4.623  0.5337  0.7577  0.0782
  165SAPE  H15R18506   1.239   5.294   4.704  0.9235 -1.6125 -2.0091
  165SAPE  C21618507   1.250   5.511   4.670  0.4000  0.1525 -0.2796
  165SAPE  H16R18508   1.268   5.559   4.571  2.4677 -0.7669 -0.3948
  165SAPE  H16S18509   1.336   5.506   4.739 -1.6538 -1.0355  2.3814
  165SAPE  C21718510   1.124   5.575   4.734  0.0699 -0.3221 -0.0116
  165SAPE  H17R18511   1.071   5.504   4.801 -0.6388  1.7856  1.7654
  165SAPE  H17S18512   1.048   5.601   4.657 -1.0040 -0.3489  1.0259
  165SAPE  C21818513   1.142   5.710   4.807 -0.1754 -0.0018  1.1848
  165SAPE  H18R18514   1.156   5.677   4.912 -0.3531 -0.7599  0.9756
  165SAPE  H18S18515   1.045   5.763   4.800 -0.1916  0.0908  2.0194
  165SAPE  C21918516   1.240   5.809   4.746  0.3136 -0.0940  0.0102
  165SAPE  H19R18517   1.211   5.825   4.640 -0.4857 -0.8811  0.1032
  165SAPE  H19S18518   1.340   5.760   4.749  0.0793 -0.6014 -0.4539
  165SAPE  C22018519   1.255   5.938   4.826  0.3120 -0.2524 -0.2026
  165SAPE  H20R18520   1.297   6.014   4.756  3.7508 -0.8761  0.9992
  165SAPE  H20S18521   1.317   5.928   4.918 -0.1624  0.7717  0.2446
  165SAPE  H20T18522   1.158   5.981   4.859  1.5791  2.4680  0.2352
  165SAPE   C3318523   0.699   5.573   3.768 -0.9108 -0.9842 -0.6099
  165SAPE   H3X18524   0.765   5.660   3.790 -1.9563  0.3429 -2.3727
  165SAPE   H3Y18525   0.715   5.492   3.841 -1.5431 -1.9618 -1.5307
  165SAPE   C3418526   0.546   5.599   3.778  0.2048 -0.5037 -0.0013
  165SAPE   H4X18527   0.495   5.502   3.757 -1.8785  0.5364  0.0297
  165SAPE   H4Y18528   0.519   5.661   3.690  0.1557  0.0044  0.3663
  165SAPE   C3518529   0.502   5.645   3.917 -0.5698  0.6469  0.9821
  165SAPE   H5X18530   0.391   5.652   3.917 -0.5909  0.7115 -0.5595
  165SAPE   H5Y18531   0.535   5.751   3.920 -1.6791  1.0785 -0.6973
  165SAPE   C3618532   0.559   5.572   4.041 -0.2643 -0.2654 -0.1542
  165SAPE   H6X18533   0.669   5.578   4.057 -0.6114  0.8455  2.3552
  165SAPE   H6Y18534   0.535   5.463   4.037  0.1875 -0.4615  1.5491
  165SAPE   C3718535   0.484   5.609   4.165 -0.6348  0.5139  0.7088
  165SAPE   H7X18536   0.381   5.571   4.150  0.2819 -1.1320 -2.2291
  165SAPE   H7Y18537   0.486   5.720   4.168  2.6114  0.5507  1.6804
  165SAPE   C3818538   0.557   5.548   4.288  0.8963  0.4860  0.0056
  165SAPE   H8X18539   0.667   5.566   4.294  1.1870 -1.4800  1.8971
  165SAPE   H8Y18540   0.534   5.440   4.279  3.6507 -0.2534  0.7029
  165SAPE   C3918541   0.509   5.598   4.428 -0.5430  0.1164  0.0820
  165SAPE   H9X18542   0.398   5.594   4.429 -0.5345 -0.4490  1.1728
  165SAPE   H9Y18543   0.541   5.704   4.442 -1.4642  0.1972  1.9707
  165SAPE  C31018544   0.562   5.505   4.536 -0.0257  0.3541 -0.4311
  165SAPE  H10X18545   0.673   5.504   4.529  0.1098 -3.3300  0.2653
  165SAPE  H10Y18546   0.548   5.395   4.527 -0.0914  0.4011 -0.9590
  165SAPE  C31118547   0.518   5.550   4.675  0.6294 -0.3387 -0.1272
  165SAPE  H11X18548   0.408   5.535   4.689  0.3023  1.6693 -0.2640
  165SAPE  H11Y18549   0.536   5.659   4.689 -0.8833 -0.0353 -0.2619
  165SAPE  C31218550   0.588   5.480   4.791  0.2393  0.1048 -0.6016
  165SAPE  H12X18551   0.695   5.494   4.765  0.6704  1.5915  1.6703
  165SAPE  H12Y18552   0.556   5.374   4.788  1.6221 -0.3190 -0.9014
  165SAPE  C31318553   0.562   5.536   4.936 -0.5206 -0.3054  0.4869
  165SAPE  H13X18554   0.452   5.551   4.950 -0.4289 -1.2289  2.5951
  165SAPE  H13Y18555   0.609   5.636   4.940  0.3279 -0.6423 -0.6056
  165SAPE  C31418556   0.621   5.449   5.043  0.5195  0.2902  0.4888
  165SAPE  H14X18557   0.599   5.341   5.029  1.4441  0.1869 -0.2187
  165SAPE  H14Y18558   0.587   5.473   5.146 -1.5098 -0.2066 -0.0190
  165SAPE  C31518559   0.771   5.453   5.056  0.6398 -0.3588  0.2028
  165SAPE  H15X18560   0.801   5.553   5.095  1.3353 -1.0862  1.5854
  165SAPE  H15Y18561   0.810   5.451   4.952 -1.8471  0.1591 -0.8180
  165SAPE  C31618562   0.827   5.348   5.153 -0.7672  0.6511  0.3282
  165SAPE  H16X18563   0.775   5.251   5.137 -0.2236  0.1135  1.6733
  165SAPE  H16Y18564   0.812   5.376   5.260  1.9898 -0.3059  1.0488
  165SAPE  C31718565   0.979   5.331   5.136 -0.5269 -0.1736  0.3898
  165SAPE  H17X18566   1.009   5.302   5.033  1.1307  0.1546  0.7473
  165SAPE  H17Y18567   1.008   5.243   5.197 -0.6576  0.5281  1.4975
  165SAPE  C31818568   1.057   5.457   5.189 -0.4536  0.1209  0.3222
  165SAPE  H18X18569   1.166   5.433   5.191 -0.9992 -2.7207 -0.3935
  165SAPE  H18Y18570   1.027   5.479   5.294 -3.4691  3.1843 -0.9972
  165SAPE  H18Z18571   1.040   5.556   5.142  0.5150  0.4029  0.5275
  166SAPE     N18572   2.784   4.533   2.909 -0.4123  0.1358 -0.3952
  166SAPE   HN118573   2.776   4.432   2.935 -0.0063 -0.6104 -2.9079
  166SAPE   HN218574   2.880   4.544   2.870 -1.6927  1.2492 -3.5043
  166SAPE   HN318575   2.778   4.589   2.997  0.4343 -0.8269  0.3062
  166SAPE   C1218576   2.677   4.563   2.811 -0.1833 -0.4899  0.5363
  166SAPE  H12A18577   2.588   4.508   2.848  1.4554 -3.3617  0.4878
  166SAPE  H12B18578   2.713   4.512   2.720  1.1613 -1.0291  1.3396
  166SAPE   C1118579   2.638   4.712   2.801  0.0513 -0.2852 -0.2647
  166SAPE  H11A18580   2.578   4.754   2.884 -0.5451 -0.0229 -0.8147
  166SAPE  H11B18581   2.572   4.713   2.711  1.7338  0.0894 -1.5321
  166SAPE     P18582   2.735   4.957   2.800 -0.6036 -0.5914  0.1253
  166SAPE   O1318583   2.856   5.025   2.754  0.1399 -0.1501  0.6755
  166SAPE   O1418584   2.613   5.007   2.739  0.0667 -0.7845  0.4433
  166SAPE   O1218585   2.744   4.803   2.766  0.2312  0.2356  0.1174
  166SAPE   O1118586   2.725   4.962   2.954 -0.5541  0.4495  0.0236
  166SAPE    C118587   2.607   4.979   3.023  0.1520  0.1056  0.1319
  166SAPE    HA18588   2.519   4.925   2.981  0.5525 -2.8509  2.7059
  166SAPE    HB18589   2.616   4.943   3.128 -1.0440 -0.1578  0.1658
  166SAPE    C218590   2.569   5.134   3.034 -0.3144 -0.3248  0.3786
  166SAPE    HS18591   2.570   5.179   2.932 -2.7046  1.4736  1.0602
  166SAPE   O2118592   2.666   5.195   3.114  0.2579 -0.4760 -0.2080
  166SAPE   C2118593   2.686   5.323   3.103  0.3356  0.1278 -0.1708
  166SAPE   O2218594   2.632   5.394   3.017 -0.3966  0.3633 -0.6275
  166SAPE   C2218595   2.781   5.386   3.217  0.7766 -0.3186  0.3007
  166SAPE   H2R18596   2.868   5.433   3.166  3.8712 -0.4986  4.8557
  166SAPE   H2S18597   2.723   5.472   3.256  2.5634  0.1914  1.9508
  166SAPE    C318598   2.425   5.143   3.090  0.1164 -0.3542  0.0051
  166SAPE    HX18599   2.356   5.123   3.005  0.0368  1.2375 -0.3216
  166SAPE    HY18600   2.408   5.251   3.110  1.7057 -0.2932  1.2746
  166SAPE   O3118601   2.401   5.060   3.200 -0.2572 -0.3031  0.0078
  166SAPE   C3118602   2.290   5.092   3.263  0.2146 -0.0756  0.2802
  166SAPE   O3218603   2.192   5.157   3.224  0.2107 -0.0471 -0.2543
  166SAPE   C3218604   2.299   5.047   3.409  0.1030  0.6235 -0.5576
  166SAPE   H2X18605   2.400   5.059   3.453  0.2808 -1.6574 -0.2355
  166SAPE   H2Y18606   2.274   4.940   3.421 -0.7891  0.7399 -1.2693
  166SAPE   C2318607   2.823   5.298   3.342  0.4962  0.5361  0.3369
  166SAPE   H3R18608   2.732   5.242   3.373  0.4178  0.7006  0.4049
  166SAPE   H3S18609   2.859   5.366   3.422  2.2211  1.8828 -1.4681
  166SAPE   C2418610   2.940   5.196   3.313  0.2975  0.6992  0.3463
  166SAPE   H4R18611   3.029   5.251   3.276  1.6419 -1.6472 -0.1288
  166SAPE   H4S18612   2.919   5.124   3.231 -0.3254  0.1858  0.9456
  166SAPE   C2518613   2.970   5.127   3.446  0.0975  0.1795 -0.0468
  166SAPE   H5R18614   2.892   5.052   3.465  0.3480 -0.0397  0.1166
  166SAPE   C2618615   3.056   5.160   3.540  0.5785  0.8215  0.1424
  166SAPE   H6R18616   3.053   5.095   3.628 -1.7181 -3.0192 -2.5076
  166SAPE   C2718617   3.168   5.264   3.538  0.5822  0.3353  0.1599
  166SAPE   H7R18618   3.137   5.348   3.472  1.8430 -0.1564 -1.1098
  166SAPE   H7S18619   3.249   5.210   3.485  3.1005  1.2380  2.7871
  166SAPE   C2818620   3.226   5.307   3.672 -0.1505 -0.0536  0.0523
  166SAPE   H8R18621   3.224   5.416   3.692  0.2978 -0.3507  1.8641
  166SAPE   C2918622   3.296   5.239   3.767  0.1526  0.3361  0.2673
  166SAPE   H9R18623   3.336   5.296   3.852  0.4225  0.4435  0.0692
  166SAPE  C21018624   3.333   5.095   3.776  0.1380  0.4057  0.0609
  166SAPE  H10R18625   3.318   5.052   3.675  1.7388  2.0900 -0.9699
  166SAPE  H10S18626   3.259   5.066   3.854 -1.9338  3.0620 -0.7239
  166SAPE  C21118627   3.475   5.073   3.818  0.0381  0.3234 -0.0710
  166SAPE  H11R18628   3.554   5.065   3.741  0.0342 -2.2700  0.1068
  166SAPE  C21218629   3.520   5.051   3.945 -0.4744 -0.1054  0.1063
  166SAPE  H12R18630   3.629   5.040   3.959 -0.5791 -0.1055  1.0292
  166SAPE  C21318631   3.434   5.037   4.067  0.6765 -0.9513  0.3592
  166SAPE  H13R18632   3.327   5.030   4.037  0.6546 -1.9496  0.6354
  166SAPE  H13S18633   3.439   5.131   4.126 -0.8465  0.8473 -2.1772
  166SAPE  C21418634   3.466   4.910   4.131 -0.5950 -0.0569 -0.1126
  166SAPE  H14R18635   3.497   4.837   4.055 -2.5879  1.3495 -2.4657
  166SAPE  C21518636   3.476   4.887   4.264  0.1261  0.6117  0.2446
  166SAPE  H15R18637   3.507   4.787   4.300 -2.3160 -0.8800 -1.4764
  166SAPE  C21618638   3.430   4.984   4.372  0.4143  0.4871  0.3873
  166SAPE  H16R18639   3.386   5.074   4.323 -3.8357 -1.6899 -0.2773
  166SAPE  H16S18640   3.512   5.026   4.433  1.5818  0.3190 -1.0139
  166SAPE  C21718641   3.323   4.930   4.459 -0.1479 -0.2780 -0.7104
  166SAPE  H17R18642   3.364   4.841   4.511 -1.0173  1.1954  2.7513
  166SAPE  H17S18643   3.237   4.894   4.398 -1.6616 -0.8075  1.6056
  166SAPE  C21818644   3.272   5.029   4.564 -0.4367 -0.0533  0.0861
  166SAPE  H18R18645   3.243   5.128   4.521  0.4052  0.3688  0.4699
  166SAPE  H18S18646   3.357   5.059   4.629 -1.1729  0.9385  0.6331
  166SAPE  C21918647   3.155   4.988   4.655  0.4431  0.2748 -0.6169
  166SAPE  H19R18648   3.150   4.880   4.678  0.3146 -0.0216 -1.9558
  166SAPE  H19S18649   3.058   5.018   4.610  1.0608  1.7681 -1.0295
  166SAPE  C22018650   3.169   5.057   4.789 -0.1459  0.0396 -0.5540
  166SAPE  H20R18651   3.089   5.032   4.862  0.5995  0.1249  0.3166
  166SAPE  H20S18652   3.149   5.166   4.782 -2.1664 -0.2452  0.1315
  166SAPE  H20T18653   3.267   5.025   4.831  0.0271  1.5663  0.2821
  166SAPE   C3318654   2.188   5.121   3.490  0.4981 -0.5255  0.1492
  166SAPE   H3X18655   2.091   5.082   3.450  0.0002  0.2340  0.5909
  166SAPE   H3Y18656   2.180   5.230   3.470 -3.5047 -0.4648  1.1520
  166SAPE   C3418657   2.192   5.117   3.642  0.2878 -0.3260 -1.0106
  166SAPE   H4X18658   2.122   5.188   3.690  0.3456 -1.3054  0.6024
  166SAPE   H4Y18659   2.288   5.169   3.665  0.9380 -1.3762 -1.2760
  166SAPE   C3518660   2.169   4.978   3.702 -0.1633 -0.1592  0.2753
  166SAPE   H5X18661   2.261   4.916   3.702 -0.2601 -0.3366  1.8920
  166SAPE   H5Y18662   2.098   4.934   3.628  0.8457  0.9672 -1.4453
  166SAPE   C3618663   2.109   4.983   3.844  0.8070  0.0688  0.0829
  166SAPE   H6X18664   2.124   4.881   3.886 -0.5949 -0.8291 -1.5004
  166SAPE   H6Y18665   2.002   5.011   3.840  0.9212  0.5987  0.6210
  166SAPE   C3718666   2.173   5.095   3.930 -0.2853  0.1715 -0.3737
  166SAPE   H7X18667   2.156   5.196   3.887 -0.8760  1.2288  2.1625
  166SAPE   H7Y18668   2.282   5.078   3.938 -0.6799 -2.6761  0.1715
  166SAPE   C3818669   2.100   5.100   4.066  0.9277 -0.3426 -1.0760
  166SAPE   H8X18670   2.015   5.029   4.068 -0.8044  1.6430 -0.9280
  166SAPE   H8Y18671   2.060   5.203   4.083 -1.3020 -1.3168 -0.0386
  166SAPE   C3918672   2.194   5.057   4.179 -0.0089 -0.1891 -0.0828
  166SAPE   H9X18673   2.271   5.136   4.181 -2.8920  2.9193  3.2074
  166SAPE   H9Y18674   2.242   4.968   4.135 -0.2936  1.1380 -3.2945
  166SAPE  C31018675   2.132   5.030   4.315  0.2114 -0.2956  0.1381
  166SAPE  H10X18676   2.209   4.997   4.388  0.6037  0.4374  0.0633
  166SAPE  H10Y18677   2.064   4.944   4.302 -0.5586 -0.0852  2.3981
  166SAPE  C31118678   2.068   5.160   4.379  0.3820  0.5658  0.2911
  166SAPE  H11X18679   1.977   5.175   4.318  1.0161 -1.4417 -1.2857
  166SAPE  H11Y18680   2.141   5.241   4.356  1.3442 -0.7530 -1.6772
  166SAPE  C31218681   2.019   5.133   4.525 -0.0895  0.3118  0.8585
  166SAPE  H12X18682   1.972   5.032   4.526 -1.2422  0.8413  0.8316
  166SAPE  H12Y18683   1.938   5.203   4.551 -2.4798 -1.0224 -2.3082
  166SAPE  C31318684   2.115   5.144   4.639 -0.1183 -0.1733  0.1433
  166SAPE  H13X18685   2.136   5.253   4.649 -1.3505 -0.1238  4.6191
  166SAPE  H13Y18686   2.209   5.088   4.618 -0.7150 -0.3029 -2.4806
  166SAPE  C31418687   2.045   5.098   4.766 -0.2624  0.1550 -0.4562
  166SAPE  H14X18688   2.033   4.988   4.774 -0.6950  0.3201  1.6239
  166SAPE  H14Y18689   1.939   5.129   4.760 -0.5025 -0.8211 -1.6442
  166SAPE  C31518690   2.103   5.147   4.902  0.0381 -0.2891 -0.8220
  166SAPE  H15X18691   2.100   5.257   4.913 -0.0799 -0.4162  0.5610
  166SAPE  H15Y18692   2.212   5.126   4.914  0.2575  1.2798  0.3449
  166SAPE  C31618693   2.037   5.077   5.017  0.2426  0.2787 -0.3881
  166SAPE  H16X18694   2.054   4.968   5.012 -0.6561  0.1224 -0.0733
  166SAPE  H16Y18695   1.931   5.096   4.991  0.3488  1.2690 -0.1668
  166SAPE  C31718696   2.075   5.136   5.152  0.1094 -0.1040 -0.3218
  166SAPE  H17X18697   2.066   5.246   5.156 -1.0207 -0.2109  0.4853
  166SAPE  H17Y18698   2.182   5.108   5.165 -0.1084 -0.0227  1.8785
  166SAPE  C31818699   1.993   5.080   5.274 -0.1851 -0.0195 -0.5487
  166SAPE  H18X18700   1.891   5.123   5.282 -0.8790 -1.1709 -2.5898
  166SAPE  H18Y18701   2.044   5.102   5.370 -0.0050 -0.1377 -0.6160
  166SAPE  H18Z18702   1.992   4.969   5.274 -0.1509 -0.0222 -0.0817
  167SAPE     N18703   1.674   2.273   2.628 -0.0363  0.0701  0.4418
  167SAPE   HN118704   1.667   2.326   2.718 -0.1969 -0.9323  1.0283
  167SAPE   HN218705   1.774   2.266   2.601 -0.3548 -1.1334 -0.4900
  167SAPE   HN318706   1.620   2.306   2.546 -0.7798 -0.2291  0.8096
  167SAPE   C1218707   1.633   2.137   2.658 -0.5083  0.7175  0.1753
  167SAPE  H12A18708   1.610   2.089   2.560 -0.2066 -0.7994  0.8320
  167SAPE  H12B18709   1.540   2.141   2.719 -0.4822  0.5436  0.2260
  167SAPE   C1118710   1.741   2.048   2.730 -0.2006  0.4744  0.3178
  167SAPE  H11A18711   1.694   1.948   2.720 -1.7547  1.2664 -0.5796
  167SAPE  H11B18712   1.744   2.076   2.837 -3.3385 -0.0638  0.6393
  167SAPE     P18713   1.978   1.950   2.731  0.0136  0.4409  0.1042
  167SAPE   O1318714   1.932   1.812   2.692 -0.3837  0.1013 -0.4695
  167SAPE   O1418715   2.109   1.992   2.681  0.3325 -0.4850  0.1703
  167SAPE   O1218716   1.867   2.054   2.667 -0.0041  0.8554  0.3925
  167SAPE   O1118717   1.963   1.969   2.884 -0.2835  0.1139 -0.0464
  167SAPE    C118718   1.994   2.106   2.934  0.3275  0.1428 -0.1568
  167SAPE    HA18719   2.098   2.135   2.907  0.9704  0.0306  2.0413
  167SAPE    HB18720   1.922   2.184   2.901  2.0802  3.1815  2.6053
  167SAPE    C218721   1.980   2.113   3.088 -0.4073 -0.2379  0.0186
  167SAPE    HS18722   1.876   2.129   3.125  0.0524  0.7242  0.9662
  167SAPE   O2118723   2.051   2.227   3.142  0.4494 -0.1980 -0.1338
  167SAPE   C2118724   1.989   2.340   3.133 -0.2692  0.2502 -0.0687
  167SAPE   O2218725   1.888   2.364   3.073 -0.0023  0.1613  0.1283
  167SAPE   C2218726   2.068   2.451   3.202 -0.0509  0.2153 -0.5771
  167SAPE   H2R18727   2.021   2.461   3.303 -2.5672  3.1933 -1.8859
  167SAPE   H2S18728   2.175   2.425   3.211 -0.6165 -2.0062  0.7954
  167SAPE    C318729   2.051   1.989   3.161  1.2812  0.0780 -0.2598
  167SAPE    HX18730   2.138   1.953   3.101  0.2573 -1.8326 -0.6812
  167SAPE    HY18731   1.971   1.913   3.146  0.4864  0.6049  1.1148
  167SAPE   O3118732   2.063   2.010   3.305 -0.1625 -0.2196  0.8698
  167SAPE   C3118733   2.183   2.055   3.338  0.3214 -0.7912  0.2829
  167SAPE   O3218734   2.280   2.064   3.264 -0.2840  0.1021 -0.1540
  167SAPE   C3218735   2.187   2.082   3.493 -0.1386 -0.2988 -0.0951
  167SAPE   H2X18736   2.272   2.021   3.529 -0.4110 -1.2933 -1.0880
  167SAPE   H2Y18737   2.097   2.034   3.536  0.5033 -2.2700 -0.8511
  167SAPE   C2318738   2.058   2.588   3.129 -0.0417 -0.2122 -1.0811
  167SAPE   H3R18739   1.956   2.613   3.094 -0.7440 -1.0810  0.2819
  167SAPE   H3S18740   2.122   2.582   3.038  0.5341 -0.1519 -0.6855
  167SAPE   C2418741   2.109   2.708   3.211  0.5300 -0.0659 -0.1897
  167SAPE   H4R18742   2.115   2.792   3.137 -0.5185 -0.1123 -0.3561
  167SAPE   H4S18743   2.209   2.697   3.256  0.5743 -0.5332 -0.4006
  167SAPE   C2518744   2.000   2.732   3.315  0.4131  0.5405 -0.0857
  167SAPE   H5R18745   1.903   2.759   3.271 -0.2287 -0.6547  0.5387
  167SAPE   C2618746   2.011   2.705   3.448  0.6109  0.1349  0.0475
  167SAPE   H6R18747   1.923   2.727   3.510  0.7696  0.8473  0.0242
  167SAPE   C2718748   2.120   2.622   3.518 -0.4866  0.5495  0.0003
  167SAPE   H7R18749   2.194   2.601   3.438  1.7149  3.6724  1.0431
  167SAPE   H7S18750   2.071   2.530   3.557 -0.5979 -0.3229 -2.0877
  167SAPE   C2818751   2.185   2.706   3.628 -0.0283 -0.2535 -0.7862
  167SAPE   H8R18752   2.289   2.727   3.599  0.1989 -1.5967 -1.0352
  167SAPE   C2918753   2.140   2.733   3.749  0.2563 -0.2473  0.1631
  167SAPE   H9R18754   2.205   2.789   3.819  1.4173  0.5554 -1.4870
  167SAPE  C21018755   2.015   2.681   3.806 -0.0806  0.2032  0.0964
  167SAPE  H10R18756   2.044   2.580   3.842  0.9058  0.6359  0.5717
  167SAPE  H10S18757   1.933   2.671   3.732 -0.2794 -1.7816  0.5336
  167SAPE  C21118758   1.955   2.756   3.926  0.5801 -0.1159 -0.8159
  167SAPE  H11R18759   1.862   2.807   3.896  0.3134  0.5863  1.0198
  167SAPE  C21218760   1.982   2.763   4.058  0.5670 -0.7121 -0.0073
  167SAPE  H12R18761   1.918   2.809   4.135  1.1965  0.0105  0.0943
  167SAPE  C21318762   2.098   2.689   4.123 -0.0961  0.1010  0.5082
  167SAPE  H13R18763   2.168   2.645   4.048 -0.5004 -0.6854  0.5860
  167SAPE  H13S18764   2.051   2.603   4.174 -0.3865  1.6194  2.9421
  167SAPE  C21418765   2.179   2.771   4.220 -0.0988 -0.1456  0.3350
  167SAPE  H14R18766   2.249   2.846   4.179 -0.2497  1.1386  2.2730
  167SAPE  C21518767   2.181   2.771   4.354  0.2743 -0.5125  0.5300
  167SAPE  H15R18768   2.239   2.850   4.404  0.0199  0.7662 -1.1282
  167SAPE  C21618769   2.092   2.686   4.448 -0.5855 -0.5610  0.4382
  167SAPE  H16R18770   2.145   2.591   4.469 -0.0181 -0.6165 -1.0907
  167SAPE  H16S18771   2.004   2.661   4.386  0.2878 -0.1625 -1.0277
  167SAPE  C21718772   2.062   2.754   4.585  0.0631  0.3412 -0.2074
  167SAPE  H17R18773   1.965   2.710   4.618 -1.0736  1.0666 -2.4343
  167SAPE  H17S18774   2.049   2.863   4.570  2.7850  0.8155  0.4098
  167SAPE  C21818775   2.163   2.734   4.698 -0.1933 -0.3868  0.5460
  167SAPE  H18R18776   2.267   2.764   4.671  0.7381 -3.7230 -0.0557
  167SAPE  H18S18777   2.169   2.625   4.718 -3.1774 -0.5647  0.8610
  167SAPE  C21918778   2.130   2.802   4.829  0.0038 -0.2980 -0.1982
  167SAPE  H19R18779   2.117   2.912   4.819 -0.9428 -0.1227  2.1833
  167SAPE  H19S18780   2.223   2.788   4.888  0.3069 -2.8466 -1.1735
  167SAPE  C22018781   2.003   2.750   4.894  0.7672  0.0843 -0.9925
  167SAPE  H20R18782   2.008   2.640   4.909 -1.6150 -0.0451 -0.6983
  167SAPE  H20S18783   1.910   2.758   4.832 -0.3944 -0.6007  0.5943
  167SAPE  H20T18784   1.978   2.795   4.993 -0.4256 -0.7459 -0.8934
  167SAPE   C3318785   2.197   2.232   3.524  0.6039  0.0392 -0.1347
  167SAPE   H3X18786   2.120   2.288   3.465  0.1316 -1.6706 -1.1910
  167SAPE   H3Y18787   2.296   2.271   3.493  0.0427  0.0585 -2.1068
  167SAPE   C3418788   2.173   2.277   3.669 -0.2013  0.0580 -0.0176
  167SAPE   H4X18789   2.075   2.232   3.695 -0.1596 -0.0606 -0.0677
  167SAPE   H4Y18790   2.167   2.387   3.658  0.7084 -0.1288 -3.3662
  167SAPE   C3518791   2.269   2.216   3.764  0.2077 -0.5543 -0.2741
  167SAPE   H5X18792   2.377   2.231   3.740  0.0791 -0.1626 -0.6287
  167SAPE   H5Y18793   2.258   2.109   3.793 -2.9252 -0.3514 -0.3753
  167SAPE   C3618794   2.253   2.299   3.897 -0.1606 -0.3016  0.2824
  167SAPE   H6X18795   2.152   2.271   3.934 -0.5292  0.9771  0.2773
  167SAPE   H6Y18796   2.246   2.406   3.869 -1.8140 -0.7629 -1.3409
  167SAPE   C3718797   2.355   2.270   4.005 -0.5357 -0.1102 -0.0231
  167SAPE   H7X18798   2.453   2.314   3.976 -0.7072 -0.5929 -1.3684
  167SAPE   H7Y18799   2.360   2.162   4.032 -0.2882  0.3573  1.9980
  167SAPE   C3818800   2.317   2.333   4.141  0.2152 -0.2812 -0.4011
  167SAPE   H8X18801   2.234   2.277   4.190 -0.1624  0.8043  0.2384
  167SAPE   H8Y18802   2.280   2.437   4.136 -0.6238 -0.4997  0.9079
  167SAPE   C3918803   2.426   2.322   4.252 -0.5771 -0.4113 -0.2554
  167SAPE   H9X18804   2.513   2.382   4.217 -0.7399  0.4830  0.8031
  167SAPE   H9Y18805   2.437   2.213   4.269 -1.4319 -0.5924 -0.7949
  167SAPE  C31018806   2.383   2.395   4.380  0.1585 -0.1245  0.0121
  167SAPE  H10X18807   2.280   2.361   4.404  0.4729 -0.4090  1.0194
  167SAPE  H10Y18808   2.373   2.502   4.353  1.8237 -0.3870 -1.9335
  167SAPE  C31118809   2.473   2.378   4.505  0.2690  0.3983  0.7054
  167SAPE  H11X18810   2.576   2.417   4.486 -0.2561  0.6722 -2.1456
  167SAPE  H11Y18811   2.480   2.268   4.513 -0.3792  0.4757  2.7594
  167SAPE  C31218812   2.427   2.440   4.637 -0.6690  0.1870  0.1538
  167SAPE  H12X18813   2.318   2.417   4.640 -0.2217 -2.0338  0.6629
  167SAPE  H12Y18814   2.424   2.549   4.617 -2.9916 -0.3056 -3.1684
  167SAPE  C31318815   2.493   2.376   4.761 -1.1755  0.0519  0.5187
  167SAPE  H13X18816   2.568   2.443   4.806 -2.9025  1.1610  1.8736
  167SAPE  H13Y18817   2.531   2.276   4.730  1.7748  1.0565  0.6611
  167SAPE  C31418818   2.401   2.357   4.882  0.4727 -0.3589 -0.1385
  167SAPE  H14X18819   2.328   2.438   4.900 -0.0705 -1.2474  1.9328
  167SAPE  H14Y18820   2.460   2.354   4.976 -0.7188 -1.4619  0.5997
  167SAPE  C31518821   2.335   2.217   4.871  0.2404 -0.2102 -0.3668
  167SAPE  H15X18822   2.402   2.152   4.811 -0.0204 -0.5133 -0.3347
  167SAPE  H15Y18823   2.243   2.222   4.808  0.3765 -0.4068 -0.5852
  167SAPE  C31618824   2.293   2.150   5.004  0.0337  0.4941 -0.5802
  167SAPE  H16X18825   2.259   2.237   5.064 -0.1645 -0.5985  0.9689
  167SAPE  H16Y18826   2.380   2.102   5.053 -1.1405 -1.1061  0.0255
  167SAPE  C31718827   2.170   2.056   4.993 -0.1677  0.0537  0.6876
  167SAPE  H17X18828   2.197   1.963   4.937  0.8348  1.0553 -0.5583
  167SAPE  H17Y18829   2.092   2.110   4.935  0.6244  0.2580 -0.2320
  167SAPE  C31818830   2.114   2.011   5.127 -0.2287 -0.9007  0.0417
  167SAPE  H18X18831   2.015   1.964   5.111 -0.4485 -0.7547  0.9125
  167SAPE  H18Y18832   2.113   2.091   5.204  2.5113 -1.7369  1.0919
  167SAPE  H18Z18833   2.177   1.929   5.170 -3.8629 -2.2332  3.4168
  168SAPE     N18834   5.354   4.699   2.782  0.1665  0.1269  0.4082
  168SAPE   HN118835   5.348   4.778   2.715  0.6990 -0.9213 -0.9280
  168SAPE   HN218836   5.281   4.704   2.856  0.7925 -0.3191  1.0812
  168SAPE   HN318837   5.452   4.709   2.818  0.5768 -0.9723 -0.3515
  168SAPE   C1218838   5.344   4.561   2.704 -0.2726 -0.5772 -0.3939
  168SAPE  H12A18839   5.407   4.494   2.765  1.3763  3.2059  2.4174
  168SAPE  H12B18840   5.378   4.572   2.598 -0.5788  0.7827 -0.3664
  168SAPE   C1118841   5.193   4.507   2.697 -0.3491  0.2972 -1.0693
  168SAPE  H11A18842   5.188   4.399   2.670 -0.4331 -0.0496  0.2781
  168SAPE  H11B18843   5.138   4.558   2.616 -0.0574 -0.8808 -2.0409
  168SAPE     P18844   5.083   4.422   2.929  0.0039 -0.2151 -0.0847
  168SAPE   O1318845   5.080   4.292   2.862 -0.9686 -0.5398  0.3737
  168SAPE   O1418846   5.150   4.431   3.060  0.4253  0.0931 -0.2534
  168SAPE   O1218847   5.128   4.530   2.824  0.0263 -0.3193 -0.0333
  168SAPE   O1118848   4.933   4.462   2.961 -0.3998  0.3706 -0.8270
  168SAPE    C118849   4.901   4.601   2.947 -0.5672  0.3909  0.1074
  168SAPE    HA18850   4.974   4.654   3.012  0.9049 -0.5115 -0.7190
  168SAPE    HB18851   4.904   4.642   2.844 -0.0633 -1.6331 -0.7542
  168SAPE    C218852   4.766   4.635   3.013  0.3136  0.6301  0.2202
  168SAPE    HS18853   4.777   4.742   3.041 -3.4747  1.9668 -2.5964
  168SAPE   O2118854   4.739   4.541   3.129  0.9209 -0.5297  0.2226
  168SAPE   C2118855   4.795   4.567   3.243  0.4174  0.5764  0.2975
  168SAPE   O2218856   4.875   4.655   3.269  0.6503 -0.0744  0.1154
  168SAPE   C2218857   4.757   4.466   3.352 -0.5900 -0.3894  0.1895
  168SAPE   H2R18858   4.735   4.536   3.435  0.2602  1.3170 -0.9673
  168SAPE   H2S18859   4.664   4.412   3.327 -0.3769 -1.5570  1.7807
  168SAPE    C318860   4.645   4.625   2.917  1.1940  0.3515  0.5986
  168SAPE    HX18861   4.634   4.517   2.891  2.8618 -0.3999  2.6706
  168SAPE    HY18862   4.670   4.667   2.818  0.7078 -2.1499 -0.6626
  168SAPE   O3118863   4.522   4.687   2.963 -0.6844  0.3061 -0.2532
  168SAPE   C3118864   4.490   4.808   2.916 -0.3317  1.1801  0.0256
  168SAPE   O3218865   4.545   4.868   2.825 -0.1359 -0.0142 -0.1262
  168SAPE   C3218866   4.383   4.884   2.998 -0.0369  0.0941  0.1780
  168SAPE   H2X18867   4.290   4.824   3.007  0.6452 -0.9690  0.2421
  168SAPE   H2Y18868   4.353   4.974   2.939  0.3149 -0.1750 -0.4237
  168SAPE   C2318869   4.863   4.350   3.360  0.0960  0.5463 -0.0486
  168SAPE   H3R18870   4.956   4.400   3.395 -0.2290  2.6349 -1.8988
  168SAPE   H3S18871   4.886   4.298   3.264 -0.9053 -1.1545  0.5966
  168SAPE   C2418872   4.824   4.242   3.466 -0.0137 -0.2907  0.3889
  168SAPE   H4R18873   4.905   4.169   3.484  1.2317  0.4748 -1.7593
  168SAPE   H4S18874   4.735   4.192   3.423 -0.3854 -0.5235  1.3962
  168SAPE   C2518875   4.789   4.309   3.596 -0.4818 -1.0672  0.2976
  168SAPE   H5R18876   4.831   4.408   3.619 -4.3358  0.9388 -0.4049
  168SAPE   C2618877   4.707   4.267   3.691  0.1045 -0.1942  0.1396
  168SAPE   H6R18878   4.688   4.325   3.783 -1.2316 -0.1149 -0.1661
  168SAPE   C2718879   4.632   4.137   3.684 -0.0017 -0.5109  0.3076
  168SAPE   H7R18880   4.582   4.127   3.586  0.9350 -2.0804 -0.0517
  168SAPE   H7S18881   4.536   4.146   3.739 -2.8209  0.5137 -4.3072
  168SAPE   C2818882   4.704   4.016   3.731  0.0736  0.0370  0.6829
  168SAPE   H8R18883   4.781   3.980   3.663  0.3692  0.9048  0.5421
  168SAPE   C2918884   4.681   3.964   3.852 -0.8459  0.0847  0.1381
  168SAPE   H9R18885   4.750   3.887   3.889  1.5800  2.8520  1.7691
  168SAPE  C21018886   4.580   4.004   3.957 -0.0972 -0.3482 -0.2164
  168SAPE  H10R18887   4.550   3.913   4.013 -0.9282  0.6190  0.9753
  168SAPE  H10S18888   4.479   4.034   3.922 -0.8346 -3.1213 -0.7000
  168SAPE  C21118889   4.628   4.102   4.061  0.3159 -0.3402 -0.3309
  168SAPE  H11R18890   4.597   4.207   4.051 -1.0650 -0.7516 -0.5356
  168SAPE  C21218891   4.699   4.078   4.173 -0.2619  1.0591 -0.1079
  168SAPE  H12R18892   4.726   4.164   4.235 -0.1598  0.5533  0.5575
  168SAPE  C21318893   4.764   3.947   4.229 -0.0850 -0.2656  0.1974
  168SAPE  H13R18894   4.825   3.889   4.157 -1.0504 -0.6041 -0.3720
  168SAPE  H13S18895   4.683   3.881   4.268 -0.7360  0.3699 -0.0587
  168SAPE  C21418896   4.860   3.989   4.338  0.6110 -0.1615 -0.6333
  168SAPE  H14R18897   4.964   3.986   4.301  1.5247  0.4771  1.7201
  168SAPE  C21518898   4.820   4.012   4.465 -1.3267 -0.1089  0.5495
  168SAPE  H15R18899   4.899   4.053   4.531 -1.7220  3.5111 -0.9646
  168SAPE  C21618900   4.681   4.029   4.526 -0.5684  0.0125 -0.4654
  168SAPE  H16R18901   4.668   3.952   4.605  0.9169 -0.4695 -0.6585
  168SAPE  H16S18902   4.598   4.020   4.452  0.5702 -0.0008 -1.7693
  168SAPE  C21718903   4.673   4.165   4.600  0.2420  0.0004  0.2305
  168SAPE  H17R18904   4.565   4.189   4.607  0.0261 -1.0831  0.7799
  168SAPE  H17S18905   4.730   4.241   4.543  0.7685  1.1804  2.2079
  168SAPE  C21818906   4.713   4.155   4.747 -0.5375 -0.3479  0.7121
  168SAPE  H18R18907   4.824   4.143   4.750 -0.4534  0.4264  0.8836
  168SAPE  H18S18908   4.663   4.070   4.798 -0.4147 -2.0591 -1.8278
  168SAPE  C21918909   4.700   4.284   4.843  0.2139  0.3276  0.1488
  168SAPE  H19R18910   4.732   4.252   4.944  0.8759 -2.4858 -0.8469
  168SAPE  H19S18911   4.592   4.312   4.846 -0.7591 -2.8546 -0.5043
  168SAPE  C22018912   4.766   4.408   4.788 -0.0124  0.5659  0.8722
  168SAPE  H20R18913   4.874   4.413   4.813 -0.0198  2.2909  0.6564
  168SAPE  H20S18914   4.716   4.495   4.837 -1.2229  0.5781 -0.3352
  168SAPE  H20T18915   4.756   4.416   4.678  0.2280  1.9998  0.9291
  168SAPE   C3318916   4.433   4.919   3.140  0.5809  0.0539  0.5017
  168SAPE   H3X18917   4.380   5.015   3.162 -1.5614 -0.6471 -1.2831
  168SAPE   H3Y18918   4.542   4.939   3.136  0.9283 -1.4699  1.6398
  168SAPE   C3418919   4.400   4.807   3.238 -0.5257  0.6310  0.4039
  168SAPE   H4X18920   4.485   4.738   3.219 -0.6682  1.2884 -3.5825
  168SAPE   H4Y18921   4.301   4.760   3.219  0.6876 -1.5638 -0.9795
  168SAPE   C3518922   4.417   4.851   3.385  0.4977 -0.8215 -0.2255
  168SAPE   H5X18923   4.330   4.910   3.421  2.2327  1.5167  0.4031
  168SAPE   H5Y18924   4.496   4.927   3.404 -1.5357  1.6046 -0.8461
  168SAPE   C3618925   4.440   4.737   3.482  0.4585  0.3641  0.3463
  168SAPE   H6X18926   4.539   4.689   3.465  0.1705  0.8075 -3.7497
  168SAPE   H6Y18927   4.360   4.661   3.466  0.4366  0.7455 -1.6678
  168SAPE   C3718928   4.402   4.764   3.629  0.1856  0.0695 -0.3003
  168SAPE   H7X18929   4.302   4.721   3.650  0.4608 -0.9591 -1.0113
  168SAPE   H7Y18930   4.410   4.871   3.660  1.5006  0.1958 -0.9905
  168SAPE   C3818931   4.505   4.715   3.729 -0.0964  0.1007 -0.3124
  168SAPE   H8X18932   4.593   4.782   3.718  0.6206 -0.8451 -0.4895
  168SAPE   H8Y18933   4.532   4.608   3.712 -0.1816  0.0549 -0.1567
  168SAPE   C3918934   4.457   4.736   3.875  0.5976 -0.4703 -0.3693
  168SAPE   H9X18935   4.370   4.670   3.898 -0.2001  1.6862  3.7383
  168SAPE   H9Y18936   4.434   4.843   3.891  0.6385 -0.0215 -2.8812
  168SAPE  C31018937   4.571   4.713   3.979 -0.0021  0.1891 -0.1355
  168SAPE  H10X18938   4.651   4.787   3.958  0.2856  0.2547  1.1576
  168SAPE  H10Y18939   4.608   4.613   3.945 -3.3164 -1.2959  0.1866
  168SAPE  C31118940   4.535   4.715   4.125 -0.6362 -0.5015  0.1768
  168SAPE  H11X18941   4.440   4.663   4.150 -0.8646  0.1692  0.7200
  168SAPE  H11Y18942   4.528   4.821   4.156  1.7302 -0.4245  0.6443
  168SAPE  C31218943   4.645   4.660   4.209  0.8274  0.2991 -0.3881
  168SAPE  H12X18944   4.743   4.704   4.181  1.5524 -0.6785  0.5292
  168SAPE  H12Y18945   4.664   4.553   4.183 -1.7840  0.1066 -1.8849
  168SAPE  C31318946   4.615   4.677   4.356 -0.3151 -0.2089  0.2653
  168SAPE  H13X18947   4.597   4.782   4.387 -2.4040 -0.2198 -0.7456
  168SAPE  H13Y18948   4.690   4.640   4.430 -3.6110  0.2015  4.1414
  168SAPE  C31418949   4.496   4.606   4.411 -0.3920  0.2399  0.3197
  168SAPE  H14X18950   4.521   4.498   4.411  0.4656  0.2927 -3.4868
  168SAPE  H14Y18951   4.398   4.617   4.358 -1.1828 -0.6657  1.5228
  168SAPE  C31518952   4.484   4.635   4.561  0.0076  0.4535 -0.2051
  168SAPE  H15X18953   4.453   4.741   4.573 -0.4074  0.6125 -2.2441
  168SAPE  H15Y18954   4.575   4.624   4.624 -0.6504 -0.4732  0.6266
  168SAPE  C31618955   4.394   4.537   4.641 -0.3489 -0.3186 -0.5258
  168SAPE  H16X18956   4.452   4.450   4.677  2.3654  1.4387 -0.3224
  168SAPE  H16Y18957   4.308   4.504   4.578 -2.3257  0.3553  1.6851
  168SAPE  C31718958   4.329   4.609   4.758 -0.5077  0.3184  0.4224
  168SAPE  H17X18959   4.254   4.672   4.704 -0.3066  1.5787  1.5760
  168SAPE  H17Y18960   4.402   4.675   4.808  0.1231  1.1226 -1.4531
  168SAPE  C31818961   4.245   4.517   4.841 -0.2924  0.1008 -0.2021
  168SAPE  H18X18962   4.185   4.579   4.911 -1.3424 -2.0626  0.8986
  168SAPE  H18Y18963   4.317   4.453   4.896  0.5874  0.0884 -1.3510
  168SAPE  H18Z18964   4.178   4.456   4.776  2.5389 -1.4386 -1.8686
  169SAPE     N18965   2.052   2.895   2.374 -0.0967  0.0186 -0.0301
  169SAPE   HN118966   2.099   2.867   2.463  0.2301  2.5926  0.6984
  169SAPE   HN218967   2.115   2.962   2.326 -0.7932  1.0734  0.4898
  169SAPE   HN318968   1.957   2.932   2.396 -0.5635 -0.3676 -1.3121
  169SAPE   C1218969   2.045   2.769   2.288  0.2561 -0.3970  0.4538
  169SAPE  H12A18970   2.145   2.753   2.243 -0.5129 -4.0354 -0.2397
  169SAPE  H12B18971   1.965   2.782   2.212  1.0338  1.3366 -0.1373
  169SAPE   C1118972   2.036   2.645   2.378  0.6453 -0.2751 -0.5313
  169SAPE  H11A18973   2.034   2.558   2.310 -1.1005 -0.4379 -0.3201
  169SAPE  H11B18974   1.935   2.658   2.423  0.6107 -1.6339 -0.1615
  169SAPE     P18975   2.159   2.546   2.598 -0.7375 -0.6703 -0.0422
  169SAPE   O1318976   2.046   2.583   2.690 -0.3286  0.1381  0.5337
  169SAPE   O1418977   2.164   2.405   2.552  0.7155  0.0335 -0.0500
  169SAPE   O1218978   2.152   2.641   2.467  0.3597  0.1213  0.0345
  169SAPE   O1118979   2.293   2.575   2.677 -0.3285 -0.1389  0.1972
  169SAPE    C118980   2.398   2.653   2.615  0.0520  0.3924  0.0608
  169SAPE    HA18981   2.474   2.590   2.564  1.6638  2.4618 -0.1863
  169SAPE    HB18982   2.350   2.735   2.558  2.7010  0.7426 -1.8344
  169SAPE    C218983   2.490   2.704   2.728  0.1952 -0.8480  1.0109
  169SAPE    HS18984   2.574   2.743   2.667 -1.4676  2.0982  0.3500
  169SAPE   O2118985   2.519   2.602   2.826  0.6020 -0.1018  0.0547
  169SAPE   C2118986   2.632   2.537   2.807  0.4344  0.0681 -0.6413
  169SAPE   O2218987   2.713   2.570   2.723  0.3213  0.3703 -0.2271
  169SAPE   C2218988   2.648   2.428   2.907  0.0249  0.8330 -0.7510
  169SAPE   H2R18989   2.549   2.391   2.941  1.5112 -2.2946  0.5740
  169SAPE   H2S18990   2.702   2.343   2.858  1.4711  0.6508  1.0714
  169SAPE    C318991   2.417   2.825   2.796  0.9753 -0.3889 -0.7133
  169SAPE    HX18992   2.317   2.796   2.834  0.2721  2.2532 -0.3173
  169SAPE    HY18993   2.408   2.900   2.714 -0.0579  1.2189  0.7959
  169SAPE   O3118994   2.500   2.883   2.899  0.1776 -0.1087  0.0264
  169SAPE   C3118995   2.445   2.969   2.985 -0.2420  0.0610 -0.1051
  169SAPE   O3218996   2.327   3.007   2.992 -0.2743 -0.0573 -0.0073
  169SAPE   C3218997   2.554   3.018   3.081  0.1920  0.2171 -0.2347
  169SAPE   H2X18998   2.625   3.071   3.013  1.7960 -0.1642  1.0823
  169SAPE   H2Y18999   2.613   2.931   3.119 -2.5502 -1.2232  0.9662
  169SAPE   C2319000   2.741   2.479   3.023 -0.2581  0.1341 -0.5002
  169SAPE   H3R19001   2.840   2.505   2.981 -0.3066 -0.6500 -1.1185
  169SAPE   H3S19002   2.748   2.401   3.103 -2.8095  0.2049 -0.1079
  169SAPE   C2419003   2.664   2.590   3.101  0.6361  0.5572 -0.2172
  169SAPE   H4R19004   2.674   2.678   3.034 -0.3769  1.3721  0.6696
  169SAPE   H4S19005   2.727   2.627   3.185  0.3375  0.6868 -0.0491
  169SAPE   C2519006   2.518   2.572   3.135  0.3159 -0.0977  0.1193
  169SAPE   H5R19007   2.451   2.572   3.047  0.3432 -0.0268  0.0985
  169SAPE   C2619008   2.471   2.568   3.261 -0.5894 -0.1116 -0.1433
  169SAPE   H6R19009   2.366   2.539   3.270 -0.5364 -0.8877 -1.7420
  169SAPE   C2719010   2.552   2.568   3.391 -0.0349  0.0556  0.4085
  169SAPE   H7R19011   2.530   2.664   3.443 -1.3401  0.2696 -0.4930
  169SAPE   H7S19012   2.662   2.564   3.379  0.0537  1.0271  0.7871
  169SAPE   C2819013   2.525   2.445   3.468  0.3134 -0.2434  0.6429
  169SAPE   H8R19014   2.527   2.348   3.418 -2.4343  0.1886 -0.4861
  169SAPE   C2919015   2.511   2.444   3.600 -0.1823 -0.5324  0.1449
  169SAPE   H9R19016   2.495   2.341   3.634 -0.3396 -0.6482 -0.2762
  169SAPE  C21019017   2.511   2.553   3.705  0.1947 -0.3927  0.0453
  169SAPE  H10R19018   2.428   2.530   3.775 -0.7162 -0.5283 -1.0608
  169SAPE  H10S19019   2.495   2.653   3.661  0.3730 -0.0631  0.7155
  169SAPE  C21119020   2.642   2.559   3.786  0.0191 -0.0623  0.1149
  169SAPE  H11R19021   2.724   2.505   3.736 -0.6751 -2.8887  1.7663
  169SAPE  C21219022   2.656   2.613   3.906 -0.6048 -0.3360  0.3415
  169SAPE  H12R19023   2.753   2.599   3.955 -1.3060  0.7782  2.1074
  169SAPE  C21319024   2.549   2.679   3.994 -0.2855  0.0426  0.1049
  169SAPE  H13R19025   2.506   2.611   4.070 -1.5459  1.9575  1.1699
  169SAPE  H13S19026   2.469   2.705   3.922  1.0049 -0.4892 -1.5923
  169SAPE  C21419027   2.594   2.800   4.070 -0.0108  0.1626 -0.3582
  169SAPE  H14R19028   2.587   2.895   4.015 -1.5721  0.2773  0.0125
  169SAPE  C21519029   2.650   2.796   4.195 -1.3532  0.0598  0.6150
  169SAPE  H15R19030   2.685   2.893   4.234 -2.4745  0.5696  0.3900
  169SAPE  C21619031   2.655   2.681   4.292 -0.4278  0.3131  0.5758
  169SAPE  H16R19032   2.758   2.656   4.324 -0.3353 -0.4998 -0.3160
  169SAPE  H16S19033   2.615   2.585   4.253  2.5636 -0.8411  0.0597
  169SAPE  C21719034   2.561   2.721   4.402  0.5740 -0.7510  0.2769
  169SAPE  H17R19035   2.532   2.629   4.458 -0.4573  0.0987  1.1859
  169SAPE  H17S19036   2.466   2.766   4.366 -0.2867 -0.3635  2.8385
  169SAPE  C21819037   2.626   2.825   4.491 -0.7250 -0.1681 -0.0559
  169SAPE  H18R19038   2.649   2.920   4.440  4.0315  0.5554  2.8188
  169SAPE  H18S19039   2.726   2.784   4.516 -0.9488  0.2855  1.7295
  169SAPE  C21919040   2.546   2.848   4.613  0.7426 -0.8687 -0.5864
  169SAPE  H19R19041   2.513   2.746   4.641  0.6372 -1.4578 -2.6748
  169SAPE  H19S19042   2.453   2.908   4.601  1.2500 -0.1504 -1.0014
  169SAPE  C22019043   2.618   2.914   4.742 -0.2828  0.2376 -0.2299
  169SAPE  H20R19044   2.714   2.860   4.760 -0.2891  0.3210  0.0439
  169SAPE  H20S19045   2.550   2.916   4.829  0.5426  0.2321  0.4321
  169SAPE  H20T19046   2.642   3.019   4.714 -0.2898  0.1877 -0.4278
  169SAPE   C3319047   2.506   3.103   3.201 -0.3338  0.5575 -0.8074
  169SAPE   H3X19048   2.429   3.170   3.158 -0.5497 -0.6196 -2.3692
  169SAPE   H3Y19049   2.589   3.166   3.239 -1.3556  1.3231  0.2107
  169SAPE   C3419050   2.460   3.013   3.316 -0.6105 -0.2135  0.5263
  169SAPE   H4X19051   2.552   2.961   3.350 -0.8694 -1.5445 -0.7419
  169SAPE   H4Y19052   2.389   2.934   3.285 -0.1061  0.2656 -2.0639
  169SAPE   C3519053   2.430   3.095   3.438 -0.0704  0.5656  0.3128
  169SAPE   H5X19054   2.337   3.153   3.417 -1.9275 -2.3341 -0.0333
  169SAPE   H5Y19055   2.509   3.170   3.456 -2.3336  3.4031 -0.8130
  169SAPE   C3619056   2.410   3.019   3.566  0.3987  0.5940  0.3970
  169SAPE   H6X19057   2.494   2.951   3.593  0.3773  0.6811  0.6762
  169SAPE   H6Y19058   2.328   2.946   3.553 -0.2718  1.6663 -2.1134
  169SAPE   C3719059   2.390   3.114   3.693  0.2862  0.0077  0.5939
  169SAPE   H7X19060   2.308   3.188   3.682 -0.8734 -1.3195 -0.0134
  169SAPE   H7Y19061   2.483   3.174   3.702  0.0908  0.1562  1.6868
  169SAPE   C3819062   2.374   3.037   3.825  0.0878  0.1721 -0.1957
  169SAPE   H8X19063   2.457   2.963   3.828 -0.0529 -0.2764 -3.5015
  169SAPE   H8Y19064   2.274   2.988   3.825 -0.3626  0.9493 -2.3486
  169SAPE   C3919065   2.376   3.140   3.946 -0.2397 -0.1919  0.1990
  169SAPE   H9X19066   2.298   3.216   3.925  0.5881  0.9839  1.2446
  169SAPE   H9Y19067   2.471   3.196   3.954 -0.5060  0.5100 -1.2623
  169SAPE  C31019068   2.324   3.084   4.077 -0.2809  0.8454  0.2431
  169SAPE  H10X19069   2.373   2.991   4.113 -1.1612  0.4929  0.5638
  169SAPE  H10Y19070   2.223   3.048   4.048  0.0878 -0.0172  0.0018
  169SAPE  C31119071   2.313   3.181   4.205  0.4496 -0.0854 -0.0145
  169SAPE  H11X19072   2.245   3.137   4.282 -1.9104  2.6151 -0.3976
  169SAPE  H11Y19073   2.274   3.275   4.161  0.8310 -0.8934 -2.1853
  169SAPE  C31219074   2.447   3.203   4.265 -0.2498 -0.6805 -0.5390
  169SAPE  H12X19075   2.520   3.228   4.186 -2.2239  0.8114 -1.9857
  169SAPE  H12Y19076   2.482   3.113   4.321 -1.4665 -0.1590  1.1429
  169SAPE  C31319077   2.458   3.330   4.361  0.1808 -0.2889  0.1623
  169SAPE  H13X19078   2.394   3.407   4.312 -1.3020 -1.9998 -0.7327
  169SAPE  H13Y19079   2.559   3.373   4.372  0.2400  0.0691 -1.5348
  169SAPE  C31419080   2.397   3.295   4.496 -0.7401 -0.3604 -0.5430
  169SAPE  H14X19081   2.474   3.263   4.570 -1.1043  1.8696  0.9033
  169SAPE  H14Y19082   2.316   3.220   4.487  0.2415 -1.6304  0.6432
  169SAPE  C31519083   2.348   3.424   4.561 -0.0302 -0.0032  0.1510
  169SAPE  H15X19084   2.289   3.484   4.488  1.4691  1.1294 -0.1703
  169SAPE  H15Y19085   2.425   3.496   4.594 -1.0022  0.4670  1.4635
  169SAPE  C31619086   2.258   3.404   4.687 -0.4249 -0.8399  1.3030
  169SAPE  H16X19087   2.316   3.362   4.772 -0.2368 -0.2093  1.4908
  169SAPE  H16Y19088   2.184   3.327   4.659 -0.8377 -0.5925  1.6919
  169SAPE  C31719089   2.200   3.535   4.739  0.0011  1.0408 -0.0986
  169SAPE  H17X19090   2.116   3.585   4.687 -0.4274  1.7016  1.1934
  169SAPE  H17Y19091   2.275   3.617   4.747 -0.6099  1.6758 -0.8310
  169SAPE  C31819092   2.154   3.518   4.890  0.2807  0.4828  0.2256
  169SAPE  H18X19093   2.238   3.481   4.953  1.0705 -2.1918 -2.1863
  169SAPE  H18Y19094   2.083   3.434   4.905  1.4694 -0.5681  0.1407
  169SAPE  H18Z19095   2.110   3.615   4.921 -0.3014  0.4324 -0.4256
  170SAPE     N19096   2.386   5.099   2.636 -0.0145  0.2822 -0.3929
  170SAPE   HN119097   2.327   5.071   2.717  0.1699 -0.4454 -0.4966
  170SAPE   HN219098   2.354   5.044   2.554  1.7200  0.5118 -1.2771
  170SAPE   HN319099   2.477   5.056   2.665  0.6819  1.0998 -1.3229
  170SAPE   C1219100   2.407   5.242   2.595  0.2604 -0.3306 -0.7986
  170SAPE  H12A19101   2.319   5.284   2.542 -0.6446  1.7518  2.1234
  170SAPE  H12B19102   2.491   5.242   2.522  0.0260  2.5421 -1.1812
  170SAPE   C1119103   2.450   5.335   2.718 -0.4530  0.4729 -0.5621
  170SAPE  H11A19104   2.465   5.441   2.689  3.2971  0.6255  1.3179
  170SAPE  H11B19105   2.546   5.306   2.765 -1.1413  0.7466  1.0871
  170SAPE     P19106   2.228   5.434   2.828  0.1539  0.0541 -0.0993
  170SAPE   O1319107   2.187   5.467   2.690  0.1841  0.7833  0.2484
  170SAPE   O1419108   2.123   5.387   2.917 -0.2363  0.3266 -0.1458
  170SAPE   O1219109   2.354   5.338   2.825  0.2221 -0.0759  0.5483
  170SAPE   O1119110   2.279   5.573   2.891  0.1191 -0.1325  0.2456
  170SAPE    C119111   2.321   5.563   3.028  0.6137 -0.1595  0.5375
  170SAPE    HA19112   2.241   5.534   3.099  1.2298 -1.7658  0.6070
  170SAPE    HB19113   2.407   5.494   3.044  2.3695  1.7136 -0.3699
  170SAPE    C219114   2.366   5.697   3.096  0.3184 -0.3855 -0.1500
  170SAPE    HS19115   2.289   5.766   3.056 -0.6127 -0.6775  1.0880
  170SAPE   O2119116   2.504   5.730   3.051  0.4375 -0.0211  0.3123
  170SAPE   C2119117   2.532   5.857   3.080 -0.2753  0.6590  0.5734
  170SAPE   O2219118   2.452   5.944   3.121 -0.6885  0.3469 -0.0992
  170SAPE   C2219119   2.672   5.880   3.033  0.5640  0.3531  0.2045
  170SAPE   H2R19120   2.679   5.861   2.924 -1.6064  2.1741 -0.3199
  170SAPE   H2S19121   2.704   5.982   3.063 -1.1285  0.8657  0.3960
  170SAPE    C319122   2.359   5.698   3.248 -0.1588 -0.0596 -0.2493
  170SAPE    HX19123   2.255   5.694   3.287  1.1373  0.8166  3.8641
  170SAPE    HY19124   2.399   5.796   3.281  0.5259 -0.2953 -0.3527
  170SAPE   O3119125   2.439   5.594   3.303  0.0931 -0.3106  0.1088
  170SAPE   C3119126   2.426   5.600   3.443 -0.3991  0.5658  0.5865
  170SAPE   O3219127   2.372   5.693   3.498  0.2675  0.3749  0.3454
  170SAPE   C3219128   2.493   5.476   3.502 -0.8674 -0.2565 -0.0401
  170SAPE   H2X19129   2.597   5.460   3.465  0.0730  2.1638  1.3487
  170SAPE   H2Y19130   2.429   5.389   3.475 -1.0163 -0.2384  0.2511
  170SAPE   C2319131   2.776   5.780   3.099 -0.4649  0.2639 -0.1514
  170SAPE   H3R19132   2.860   5.774   3.026 -0.3637  0.4987 -0.0542
  170SAPE   H3S19133   2.736   5.677   3.110 -2.4159  0.9410 -0.5646
  170SAPE   C2419134   2.845   5.834   3.233 -0.4871 -0.2466  0.1022
  170SAPE   H4R19135   2.769   5.838   3.314 -0.0337  0.3179  0.5012
  170SAPE   H4S19136   2.868   5.941   3.215  1.0235 -0.2501  1.6907
  170SAPE   C2519137   2.968   5.761   3.283 -0.3581 -0.3318 -0.3269
  170SAPE   H5R19138   3.044   5.758   3.204  0.4070  1.0774  0.3117
  170SAPE   C2619139   2.989   5.693   3.395  0.5290  0.4490  0.3258
  170SAPE   H6R19140   3.091   5.657   3.414  0.5879  0.0907 -0.5785
  170SAPE   C2719141   2.894   5.687   3.511  1.7083 -0.6671  0.3962
  170SAPE   H7R19142   2.820   5.612   3.475  1.3485  0.0217 -0.3082
  170SAPE   H7S19143   2.836   5.779   3.530  1.4194 -1.1188  1.8895
  170SAPE   C2819144   2.955   5.633   3.636  0.5047  0.3374 -0.5819
  170SAPE   H8R19145   2.995   5.532   3.623  0.2932  0.2940 -0.8855
  170SAPE   C2919146   2.972   5.701   3.759 -0.1347  0.2335  0.1548
  170SAPE   H9R19147   3.035   5.657   3.838  0.3855 -0.6103 -0.7043
  170SAPE  C21019148   2.916   5.839   3.781  0.7754  0.0897 -0.5717
  170SAPE  H10R19149   2.922   5.861   3.890 -0.6632  0.3624 -0.5270
  170SAPE  H10S19150   2.808   5.843   3.755  0.8105  0.8647 -0.6079
  170SAPE  C21119151   2.983   5.951   3.717 -0.5842 -0.4109  0.1065
  170SAPE  H11R19152   3.031   5.939   3.619  1.7360  0.1702  1.1095
  170SAPE  C21219153   3.015   6.068   3.767  0.3057  0.5423  0.3633
  170SAPE  H12R19154   3.084   6.131   3.709  1.3866  0.2553  1.3107
  170SAPE  C21319155   2.964   6.134   3.894  0.1444  0.3524  0.6043
  170SAPE  H13R19156   3.031   6.122   3.982 -0.8726 -2.2870  1.0971
  170SAPE  H13S19157   2.867   6.087   3.920  0.2042 -2.8782 -3.9089
  170SAPE  C21419158   2.932   6.276   3.864 -0.0173 -0.8257 -0.2158
  170SAPE  H14R19159   2.904   6.312   3.764  0.0147 -1.1905 -0.3574
  170SAPE  C21519160   2.930   6.378   3.951 -0.4848  0.2316 -0.4255
  170SAPE  H15R19161   2.926   6.479   3.907  0.4454  0.1252 -0.7773
  170SAPE  C21619162   2.953   6.375   4.098  0.4391 -0.9150  0.4453
  170SAPE  H16R19163   2.995   6.474   4.127  1.0166 -0.3766 -2.0122
  170SAPE  H16S19164   3.027   6.299   4.130  1.2947  0.0225  0.7475
  170SAPE  C21719165   2.824   6.336   4.158  0.1319 -0.1072 -0.1992
  170SAPE  H17R19166   2.788   6.241   4.113  1.4672  0.0010 -1.5903
  170SAPE  H17S19167   2.736   6.398   4.131 -2.3934 -3.1881  0.3268
  170SAPE  C21819168   2.825   6.347   4.310 -1.0008  0.1546  0.3403
  170SAPE  H18R19169   2.841   6.454   4.334  0.0163  0.3611 -1.1161
  170SAPE  H18S19170   2.912   6.288   4.345  1.6099  3.0090 -0.8883
  170SAPE  C21919171   2.695   6.306   4.378  0.2273  0.1388  0.3898
  170SAPE  H19R19172   2.679   6.196   4.373 -1.6335  0.3752  0.5008
  170SAPE  H19S19173   2.602   6.351   4.337 -0.6966  0.3799  2.6209
  170SAPE  C22019174   2.690   6.341   4.529 -0.1769 -0.5440 -0.1814
  170SAPE  H20R19175   2.666   6.449   4.536 -1.8040 -0.9474  0.8146
  170SAPE  H20S19176   2.783   6.320   4.586 -1.3494  0.3684  2.2084
  170SAPE  H20T19177   2.606   6.283   4.573 -1.7086 -0.6736 -3.0773
  170SAPE   C3319178   2.501   5.499   3.652 -0.0216  0.3442  0.2601
  170SAPE   H3X19179   2.398   5.494   3.696 -1.3617 -2.4713 -2.7891
  170SAPE   H3Y19180   2.546   5.599   3.671  2.7186 -0.7515 -0.0885
  170SAPE   C3419181   2.579   5.389   3.722  0.7381  0.8964 -0.2536
  170SAPE   H4X19182   2.670   5.369   3.661  0.5708 -0.3815 -0.1024
  170SAPE   H4Y19183   2.532   5.288   3.716  0.6074  0.9515 -0.1437
  170SAPE   C3519184   2.629   5.427   3.865  0.0677  0.3735 -0.1514
  170SAPE   H5X19185   2.667   5.531   3.868  0.7775  0.2507 -2.4077
  170SAPE   H5Y19186   2.717   5.362   3.887 -1.2733 -1.9216 -1.1208
  170SAPE   C3619187   2.519   5.402   3.964 -0.4455 -0.1036 -0.0764
  170SAPE   H6X19188   2.465   5.310   3.933  1.0676 -1.6619  1.6263
  170SAPE   H6Y19189   2.450   5.489   3.970 -1.3765 -0.8364  0.1646
  170SAPE   C3719190   2.587   5.375   4.095  0.0237 -0.0571  0.0912
  170SAPE   H7X19191   2.521   5.424   4.170 -1.1922 -0.6616 -0.5397
  170SAPE   H7Y19192   2.685   5.427   4.096  0.1265 -0.2537  0.7901
  170SAPE   C3819193   2.620   5.231   4.138  0.0985 -0.3675  0.5254
  170SAPE   H8X19194   2.717   5.207   4.091 -0.0621 -1.4512  0.7147
  170SAPE   H8Y19195   2.541   5.164   4.098  0.6123 -0.4622 -0.3416
  170SAPE   C3919196   2.620   5.215   4.287 -0.3670 -0.1808 -0.4151
  170SAPE   H9X19197   2.678   5.295   4.338 -0.4443 -0.0893 -0.4704
  170SAPE   H9Y19198   2.667   5.115   4.303  1.5734  0.5848 -0.9279
  170SAPE  C31019199   2.484   5.197   4.348  0.1377 -0.1836 -0.0369
  170SAPE  H10X19200   2.440   5.104   4.306  2.3528 -0.6972 -1.3929
  170SAPE  H10Y19201   2.428   5.288   4.317  0.3424 -0.1622 -0.3441
  170SAPE  C31119202   2.490   5.192   4.503 -0.4646  0.4512  0.5245
  170SAPE  H11X19203   2.578   5.128   4.525 -1.1889 -0.8940 -0.4285
  170SAPE  H11Y19204   2.401   5.138   4.542 -1.0582  0.1076 -1.2213
  170SAPE  C31219205   2.512   5.334   4.564  0.3253  0.1498 -0.4941
  170SAPE  H12X19206   2.455   5.419   4.522 -1.5140  0.1709  1.8790
  170SAPE  H12Y19207   2.616   5.359   4.532 -0.3041 -0.1469 -3.0202
  170SAPE  C31319208   2.501   5.341   4.723 -0.4145 -0.6065  0.1238
  170SAPE  H13X19209   2.397   5.312   4.751 -0.8550  0.6602 -0.1489
  170SAPE  H13Y19210   2.516   5.445   4.758 -2.3389 -0.7572  1.5661
  170SAPE  C31419211   2.618   5.269   4.783  0.4519  0.6157  0.1871
  170SAPE  H14X19212   2.719   5.301   4.749  0.0889  1.1175 -0.4323
  170SAPE  H14Y19213   2.604   5.166   4.746 -0.4769  0.5122  0.7935
  170SAPE  C31519214   2.605   5.276   4.941  0.3787  0.0204  0.5201
  170SAPE  H15X19215   2.517   5.215   4.971  0.2141 -0.4566 -0.8531
  170SAPE  H15Y19216   2.584   5.377   4.981  0.0259  0.0189  0.3431
  170SAPE  C31619217   2.737   5.215   5.006  0.1395 -0.1004 -0.3564
  170SAPE  H16X19218   2.742   5.247   5.112 -0.1844 -0.0864 -0.3419
  170SAPE  H16Y19219   2.819   5.254   4.942 -0.7099  2.0281 -0.2532
  170SAPE  C31719220   2.759   5.061   5.009 -0.1279  0.2927 -0.1534
  170SAPE  H17X19221   2.769   5.035   4.902  0.3466  1.6602 -0.4664
  170SAPE  H17Y19222   2.675   5.001   5.050  2.8972 -2.0543  3.2966
  170SAPE  C31819223   2.868   5.023   5.109  0.2230 -0.4679 -0.1140
  170SAPE  H18X19224   2.838   5.062   5.209  1.0219 -0.8855  0.2999
  170SAPE  H18Y19225   2.968   5.059   5.079 -0.9361  1.2887 -2.1447
  170SAPE  H18Z19226   2.891   4.914   5.118 -0.5234 -0.4595  3.1228
  171SAPE     N19227   3.894   3.903   2.530 -0.3799 -0.1452 -0.0950
  171SAPE   HN119228   3.902   3.944   2.625  0.8492  1.8085 -0.9637
  171SAPE   HN219229   3.986   3.871   2.493 -0.1853  0.0273  0.2323
  171SAPE   HN319230   3.866   3.983   2.470  0.8661  0.5431  0.1989
  171SAPE   C1219231   3.792   3.789   2.505 -0.3261  0.3858  0.5786
  171SAPE  H12A19232   3.842   3.695   2.537 -1.2675 -0.1057  0.6398
  171SAPE  H12B19233   3.790   3.789   2.394  3.5089  1.4215  0.3775
  171SAPE   C1119234   3.661   3.815   2.575  0.2797 -0.5417  0.0673
  171SAPE  H11A19235   3.679   3.867   2.671 -1.3137 -2.2060  1.3403
  171SAPE  H11B19236   3.611   3.718   2.595  0.1720 -0.4737  0.1262
  171SAPE     P19237   3.502   4.026   2.538 -0.5174 -0.3469 -0.0571
  171SAPE   O1319238   3.519   4.119   2.427  0.1199  0.4451  0.7915
  171SAPE   O1419239   3.367   3.980   2.554  0.7031 -0.0041 -0.0727
  171SAPE   O1219240   3.581   3.901   2.488 -0.1356 -0.0596 -0.1599
  171SAPE   O1119241   3.566   4.084   2.671  0.0973 -0.3213 -0.6731
  171SAPE    C119242   3.538   4.036   2.802  0.8154 -0.3847  0.5264
  171SAPE    HA19243   3.479   3.942   2.796  1.8139 -0.9312 -1.7719
  171SAPE    HB19244   3.638   4.008   2.840  0.5997 -2.9670 -0.6150
  171SAPE    C219245   3.472   4.143   2.892 -0.2773  0.3868  0.2987
  171SAPE    HS19246   3.364   4.144   2.867 -0.2111 -2.6901 -0.5076
  171SAPE   O2119247   3.520   4.278   2.887 -0.2839  0.7382 -0.3208
  171SAPE   C2119248   3.485   4.347   2.783 -0.2829 -0.2980 -0.5735
  171SAPE   O2219249   3.390   4.329   2.706 -0.3886 -0.4418 -0.0311
  171SAPE   C2219250   3.575   4.478   2.784  0.5761  0.1767  0.0863
  171SAPE   H2R19251   3.637   4.485   2.876  0.5111  0.0750  0.1381
  171SAPE   H2S19252   3.649   4.472   2.701  1.3635 -0.3066  0.7969
  171SAPE    C319253   3.476   4.081   3.034 -0.5637 -0.1657 -0.1827
  171SAPE    HX19254   3.438   4.157   3.106  1.4904 -0.0749  0.8867
  171SAPE    HY19255   3.583   4.069   3.059 -0.5405 -0.3692 -0.3762
  171SAPE   O3119256   3.409   3.950   3.039  0.1392  0.2685 -0.0140
  171SAPE   C3119257   3.271   3.962   3.036 -0.9792 -0.2591  0.2460
  171SAPE   O3219258   3.212   4.069   3.037  0.4434  0.2050 -0.2071
  171SAPE   C3219259   3.216   3.828   3.006 -0.3798  0.4021 -0.3572
  171SAPE   H2X19260   3.297   3.758   2.973 -0.1618  0.0356  0.9069
  171SAPE   H2Y19261   3.140   3.831   2.925 -2.2402 -2.1284  1.1320
  171SAPE   C2319262   3.481   4.597   2.760  0.5564  0.6628  0.0692
  171SAPE   H3R19263   3.405   4.578   2.681 -1.8302  1.6860  1.9734
  171SAPE   H3S19264   3.539   4.679   2.712  0.3432  1.3066  0.8888
  171SAPE   C2419265   3.408   4.646   2.890  0.3470  0.3544  0.0485
  171SAPE   H4R19266   3.356   4.553   2.920 -1.1893  1.0812 -0.2146
  171SAPE   H4S19267   3.329   4.714   2.850 -1.4648 -2.0765 -0.7325
  171SAPE   C2519268   3.497   4.712   2.999  1.0870  0.2665  0.0983
  171SAPE   H5R19269   3.517   4.820   2.989  1.1065  0.1381 -1.4753
  171SAPE   C2619270   3.533   4.652   3.119  0.6314  0.1331  0.9817
  171SAPE   H6R19271   3.575   4.714   3.200  2.9783  0.6699 -0.5327
  171SAPE   C2719272   3.513   4.509   3.150  0.5198 -0.3507  0.8416
  171SAPE   H7R19273   3.575   4.491   3.240  2.2189  1.2016  0.0534
  171SAPE   H7S19274   3.547   4.450   3.062  3.9778 -0.5816  2.1635
  171SAPE   C2819275   3.376   4.460   3.184 -1.3828  0.2521 -0.4349
  171SAPE   H8R19276   3.285   4.509   3.146 -0.6550  0.1215 -2.4693
  171SAPE   C2919277   3.363   4.369   3.284 -0.3597  0.1013 -0.2725
  171SAPE   H9R19278   3.259   4.349   3.315 -1.0412  2.6465 -0.6184
  171SAPE  C21019279   3.469   4.296   3.360  0.3374  0.2221  0.1172
  171SAPE  H10R19280   3.502   4.350   3.452 -0.5365 -0.9005  1.1274
  171SAPE  H10S19281   3.564   4.284   3.304  0.8354 -0.7462  1.1353
  171SAPE  C21119282   3.418   4.160   3.407  0.5767  0.0299 -0.0217
  171SAPE  H11R19283   3.378   4.089   3.333 -1.7812 -0.2974  1.4901
  171SAPE  C21219284   3.401   4.123   3.533 -0.2325  0.4204  0.4046
  171SAPE  H12R19285   3.362   4.022   3.552 -0.5345  0.2180 -1.1354
  171SAPE  C21319286   3.449   4.198   3.652 -0.2688 -0.3406 -0.0042
  171SAPE  H13R19287   3.472   4.304   3.627 -2.1208 -0.3380 -1.9443
  171SAPE  H13S19288   3.547   4.156   3.682 -0.1647 -0.9432 -1.1310
  171SAPE  C21419289   3.347   4.187   3.758  0.3253  0.3007 -0.0896
  171SAPE  H14R19290   3.259   4.252   3.752 -1.1305 -1.0267  3.6964
  171SAPE  C21519291   3.354   4.113   3.869 -0.0335  0.2788 -0.8509
  171SAPE  H15R19292   3.263   4.103   3.929 -0.0278 -0.5567 -0.9702
  171SAPE  C21619293   3.465   4.013   3.895 -0.5084 -0.1488  0.6005
  171SAPE  H16R19294   3.559   4.072   3.907 -0.7367  0.4629 -0.5022
  171SAPE  H16S19295   3.495   3.953   3.807  0.4915  0.5502  0.4467
  171SAPE  C21719296   3.439   3.921   4.018  0.0531 -0.2058  0.3033
  171SAPE  H17R19297   3.484   3.819   4.010  0.9646 -0.4491  5.1980
  171SAPE  H17S19298   3.331   3.897   4.005 -0.2793  1.4242 -0.1835
  171SAPE  C21819299   3.461   3.995   4.154  0.5866 -0.5855  0.4061
  171SAPE  H18R19300   3.414   4.094   4.140  1.6513 -0.0508  0.5285
  171SAPE  H18S19301   3.564   4.017   4.188 -0.1697  0.3858  2.2281
  171SAPE  C21919302   3.373   3.925   4.266  0.9272  0.0643  0.2231
  171SAPE  H19R19303   3.421   3.826   4.283  0.3051 -0.3644 -0.4335
  171SAPE  H19S19304   3.270   3.912   4.225  0.7995  0.6660  0.3458
  171SAPE  C22019305   3.358   4.004   4.394  0.4548  0.0651 -0.0001
  171SAPE  H20R19306   3.453   4.003   4.452  0.8573 -1.0748 -0.6582
  171SAPE  H20S19307   3.286   3.952   4.461  1.5142  1.6022  2.5088
  171SAPE  H20T19308   3.313   4.105   4.379  1.3713  0.3787 -0.7461
  171SAPE   C3319309   3.150   3.760   3.135 -0.6572  0.0533 -0.2615
  171SAPE   H3X19310   3.097   3.666   3.113 -1.0165 -0.1850  1.4562
  171SAPE   H3Y19311   3.071   3.833   3.162 -0.2089 -0.1238  1.6577
  171SAPE   C3419312   3.234   3.740   3.266 -0.2619  0.4307 -0.2825
  171SAPE   H4X19313   3.284   3.834   3.298  2.0079 -0.8230  0.0587
  171SAPE   H4Y19314   3.315   3.669   3.240 -0.2319  0.1619  0.5074
  171SAPE   C3519315   3.159   3.677   3.379  0.1686 -0.2276  0.3446
  171SAPE   H5X19316   3.108   3.584   3.344 -3.3026  1.8936 -0.7898
  171SAPE   H5Y19317   3.064   3.733   3.395 -0.0827 -0.7407  0.6816
  171SAPE   C3619318   3.236   3.666   3.514 -0.2558 -0.3627  0.1694
  171SAPE   H6X19319   3.259   3.774   3.528  1.3085 -0.3747 -1.8446
  171SAPE   H6Y19320   3.329   3.612   3.489 -0.1267 -0.1536  0.1969
  171SAPE   C3719321   3.169   3.590   3.625  0.5662 -0.3516 -0.1167
  171SAPE   H7X19322   3.178   3.481   3.607 -1.3946 -0.2783 -1.9258
  171SAPE   H7Y19323   3.059   3.606   3.616  0.5321  0.9070  1.9826
  171SAPE   C3819324   3.231   3.614   3.763 -0.0269 -0.8562  0.6250
  171SAPE   H8X19325   3.245   3.723   3.782 -1.0363 -0.4202 -0.9455
  171SAPE   H8Y19326   3.330   3.566   3.752  0.5931  0.1132  1.7473
  171SAPE   C3919327   3.156   3.548   3.870  0.1762  0.3062  1.0865
  171SAPE   H9X19328   3.177   3.441   3.851 -1.5391  0.1405 -0.0970
  171SAPE   H9Y19329   3.046   3.557   3.853 -0.1713 -2.1528  1.5772
  171SAPE  C31019330   3.175   3.604   4.011  0.1661 -0.1581 -0.4358
  171SAPE  H10X19331   3.134   3.707   4.014 -0.9319 -0.5530 -1.3654
  171SAPE  H10Y19332   3.283   3.628   4.028 -0.7041  3.2553  1.0516
  171SAPE  C31119333   3.103   3.527   4.125 -0.6930  0.3845  0.8975
  171SAPE  H11X19334   3.139   3.424   4.144 -0.8351  0.6577  2.8059
  171SAPE  H11Y19335   2.993   3.528   4.111 -0.7867  0.7279  1.6229
  171SAPE  C31219336   3.129   3.595   4.253 -0.3480 -0.3549 -1.0810
  171SAPE  H12X19337   3.114   3.705   4.256  0.2801 -0.2736 -0.6299
  171SAPE  H12Y19338   3.233   3.568   4.284 -1.1441  0.4030  2.7574
  171SAPE  C31319339   3.033   3.540   4.364  0.5484  0.2848  0.1187
  171SAPE  H13X19340   3.038   3.429   4.357  0.9199  0.3652 -1.0013
  171SAPE  H13Y19341   2.932   3.580   4.342  1.3030  2.0781 -0.2283
  171SAPE  C31419342   3.067   3.572   4.513  0.3890 -0.0213  0.6861
  171SAPE  H14X19343   2.991   3.521   4.575 -1.8795 -2.0674 -3.4016
  171SAPE  H14Y19344   3.054   3.682   4.529 -2.4109 -0.3758  1.2857
  171SAPE  C31519345   3.209   3.519   4.546 -0.7840  0.2423  0.3746
  171SAPE  H15X19346   3.285   3.565   4.480 -0.8828  0.8886  0.7076
  171SAPE  H15Y19347   3.201   3.413   4.514  0.2569 -0.1001  1.2112
  171SAPE  C31619348   3.241   3.518   4.694  0.0841  0.5074  0.5061
  171SAPE  H16X19349   3.326   3.452   4.723  0.1782  0.6527  0.5587
  171SAPE  H16Y19350   3.148   3.497   4.751 -1.9437  2.2905 -1.8951
  171SAPE  C31719351   3.285   3.656   4.742 -0.0999 -0.1265 -0.5729
  171SAPE  H17X19352   3.219   3.729   4.689 -1.7480 -0.0443  1.4341
  171SAPE  H17Y19353   3.386   3.674   4.701 -0.6553  1.9340 -1.1975
  171SAPE  C31819354   3.257   3.675   4.889 -0.6166 -0.2273 -0.8727
  171SAPE  H18X19355   3.301   3.587   4.941 -3.5182 -0.8875  0.7129
  171SAPE  H18Y19356   3.149   3.680   4.913 -0.6606 -1.1129 -0.8509
  171SAPE  H18Z19357   3.320   3.759   4.925 -2.1711  2.3097 -3.6179
  172SAPE     N19358   3.021   5.454   2.594  0.4349 -0.0673  0.1134
  172SAPE   HN119359   2.984   5.361   2.567 -0.6517  0.8722 -1.8817
  172SAPE   HN219360   2.960   5.516   2.651 -0.2207 -0.7507  0.1757
  172SAPE   HN319361   3.042   5.499   2.502 -2.9856  0.9394 -0.3450
  172SAPE   C1219362   3.148   5.434   2.668  0.1433 -0.3812 -0.0552
  172SAPE  H12A19363   3.130   5.375   2.761 -0.0735  0.5028  0.4762
  172SAPE  H12B19364   3.204   5.529   2.680  1.9851 -1.2401 -1.2731
  172SAPE   C1119365   3.234   5.336   2.594 -0.3736 -0.1938 -0.1018
  172SAPE  H11A19366   3.329   5.321   2.649 -1.5239  0.6421  2.2409
  172SAPE  H11B19367   3.281   5.379   2.503  0.2169  0.2738  0.4241
  172SAPE     P19368   3.248   5.074   2.539  0.4476 -0.4587 -0.0183
  172SAPE   O1319369   3.145   4.975   2.519  0.0864  0.4415  0.2418
  172SAPE   O1419370   3.330   5.104   2.422 -0.0568  0.3662  0.6107
  172SAPE   O1219371   3.168   5.210   2.575 -0.6370 -0.5274  0.1764
  172SAPE   O1119372   3.344   5.043   2.660  0.6546 -0.6848 -0.0625
  172SAPE    C119373   3.290   4.971   2.763  1.0838 -0.4356 -0.6765
  172SAPE    HA19374   3.238   4.875   2.739  0.5437 -0.8466  1.8923
  172SAPE    HB19375   3.370   4.935   2.830 -1.3041 -2.5804  1.2058
  172SAPE    C219376   3.202   5.051   2.867 -0.3169 -0.2540  0.0108
  172SAPE    HS19377   3.119   5.083   2.800  0.5402 -0.3909 -1.1508
  172SAPE   O2119378   3.281   5.164   2.912 -0.0407  0.3372  0.6877
  172SAPE   C2119379   3.229   5.247   2.997 -0.3044  0.3890 -0.0243
  172SAPE   O2219380   3.108   5.255   3.022 -0.0426  0.3090 -0.4370
  172SAPE   C2219381   3.339   5.323   3.067 -0.3842 -0.4709  0.7731
  172SAPE   H2R19382   3.433   5.265   3.080 -0.3080 -0.6883 -0.5907
  172SAPE   H2S19383   3.356   5.395   2.984  1.3499  0.0911  1.5663
  172SAPE    C319384   3.144   4.968   2.984  0.2567 -0.0998  0.2736
  172SAPE    HX19385   3.096   4.880   2.936  0.4261  0.5069 -1.0682
  172SAPE    HY19386   3.056   5.028   3.018 -0.4467 -1.6678  1.3279
  172SAPE   O3119387   3.241   4.936   3.089 -0.2791 -0.2368  0.3903
  172SAPE   C3119388   3.192   4.853   3.183 -0.1063 -0.5388  0.2181
  172SAPE   O3219389   3.082   4.802   3.166 -0.2695  0.0666  0.6558
  172SAPE   C3219390   3.286   4.822   3.303 -1.0293  0.1919  0.4939
  172SAPE   H2X19391   3.339   4.914   3.335 -1.2977  1.1178 -1.5548
  172SAPE   H2Y19392   3.357   4.751   3.257  0.1334  1.6615 -0.0434
  172SAPE   C2319393   3.288   5.362   3.213 -0.2142  0.6059  0.4544
  172SAPE   H3R19394   3.265   5.265   3.262 -0.5108 -0.0752 -0.9841
  172SAPE   H3S19395   3.191   5.415   3.204 -1.3335 -1.4959 -0.6377
  172SAPE   C2419396   3.400   5.434   3.290  0.6550  0.4534 -0.8005
  172SAPE   H4R19397   3.487   5.369   3.313 -0.4140 -0.8036 -0.2152
  172SAPE   H4S19398   3.352   5.442   3.390  0.4719 -2.7852 -0.5145
  172SAPE   C2519399   3.438   5.567   3.230  0.3242 -0.0650 -0.4773
  172SAPE   H5R19400   3.443   5.563   3.120  0.9369  1.4118 -0.5287
  172SAPE   C2619401   3.465   5.679   3.292 -0.4004 -0.3920 -0.3470
  172SAPE   H6R19402   3.480   5.769   3.231  2.5080 -0.3547  0.3080
  172SAPE   C2719403   3.473   5.698   3.448  0.3956  0.6104  0.0185
  172SAPE   H7R19404   3.558   5.760   3.485  0.4987  1.6103 -1.7440
  172SAPE   H7S19405   3.477   5.602   3.503  2.8226  0.5021 -0.2198
  172SAPE   C2819406   3.342   5.750   3.494  0.5456  0.4873 -0.3818
  172SAPE   H8R19407   3.269   5.776   3.415  0.1844 -1.0348 -0.5711
  172SAPE   C2919408   3.290   5.762   3.619  0.3259 -0.1392  0.0427
  172SAPE   H9R19409   3.182   5.778   3.632  0.1057 -1.0609 -0.5789
  172SAPE  C21019410   3.361   5.730   3.743  0.9247  0.4866 -0.3206
  172SAPE  H10R19411   3.468   5.759   3.727  1.6575 -2.1193 -0.5238
  172SAPE  H10S19412   3.363   5.621   3.759  1.5655  0.7023  1.2345
  172SAPE  C21119413   3.314   5.797   3.873 -0.1178  0.7710  0.0442
  172SAPE  H11R19414   3.291   5.902   3.851 -0.4438  0.3791 -1.6483
  172SAPE  C21219415   3.305   5.737   4.000  0.0505 -0.1974 -1.1193
  172SAPE  H12R19416   3.257   5.798   4.078  0.1318 -0.8902 -0.5102
  172SAPE  C21319417   3.328   5.589   4.035 -0.5143 -0.6809 -0.3970
  172SAPE  H13R19418   3.362   5.583   4.140  0.1479 -0.5334 -0.6005
  172SAPE  H13S19419   3.421   5.561   3.980 -0.4918  1.3218 -1.4734
  172SAPE  C21419420   3.215   5.500   4.011  0.4059  0.0407 -0.0842
  172SAPE  H14R19421   3.169   5.502   3.912 -1.3991 -3.1616  0.5453
  172SAPE  C21519422   3.151   5.419   4.095  0.5618 -0.8735 -0.3562
  172SAPE  H15R19423   3.063   5.360   4.065  1.1213 -1.7315 -0.3490
  172SAPE  C21619424   3.196   5.389   4.233 -0.1671 -0.3178 -0.2363
  172SAPE  H16R19425   3.305   5.406   4.250 -0.1071 -0.2719 -0.6497
  172SAPE  H16S19426   3.176   5.284   4.262 -0.1340 -0.5476 -1.0244
  172SAPE  C21719427   3.133   5.475   4.345 -0.3315  0.2408  0.0049
  172SAPE  H17R19428   3.117   5.576   4.303 -1.3311 -0.3819 -1.1346
  172SAPE  H17S19429   3.203   5.467   4.432  1.4775 -1.6749 -1.5268
  172SAPE  C21819430   2.999   5.413   4.392  0.0774  0.1634  0.2549
  172SAPE  H18R19431   3.033   5.320   4.444  0.8725 -0.4022 -1.2002
  172SAPE  H18S19432   2.944   5.388   4.299  0.5668  2.1674 -0.6246
  172SAPE  C21919433   2.909   5.497   4.479  0.9206 -0.0256  0.4068
  172SAPE  H19R19434   2.827   5.437   4.524 -1.7074  4.1169  1.6540
  172SAPE  H19S19435   2.854   5.575   4.423  0.7607 -0.5787 -0.2139
  172SAPE  C22019436   2.978   5.552   4.598 -0.8554 -0.1049  0.1149
  172SAPE  H20R19437   3.074   5.602   4.572 -1.8600  1.5531 -0.5982
  172SAPE  H20S19438   3.001   5.465   4.662 -0.7206 -0.1059  0.0661
  172SAPE  H20T19439   2.925   5.627   4.660  0.3704  1.2395 -0.3857
  172SAPE   C3319440   3.208   4.739   3.406 -0.9911 -0.0967 -0.1350
  172SAPE   H3X19441   3.159   4.650   3.360 -2.6091 -0.8002  2.6923
  172SAPE   H3Y19442   3.131   4.800   3.458 -0.1563  1.3174 -0.5251
  172SAPE   C3419443   3.307   4.685   3.515  0.6050 -0.4057  0.1938
  172SAPE   H4X19444   3.368   4.771   3.548 -1.1713  0.9584  0.0864
  172SAPE   H4Y19445   3.369   4.608   3.464 -1.5119 -1.1617 -1.3883
  172SAPE   C3519446   3.225   4.628   3.628 -0.2995 -0.2971 -0.0729
  172SAPE   H5X19447   3.274   4.529   3.638  4.0217  1.5331 -0.9658
  172SAPE   H5Y19448   3.115   4.628   3.611 -0.2440  0.0111 -0.4396
  172SAPE   C3619449   3.243   4.700   3.761 -0.4878  0.5039  0.5408
  172SAPE   H6X19450   3.212   4.806   3.748 -1.6297  0.0901 -0.3303
  172SAPE   H6Y19451   3.353   4.698   3.779 -0.2463 -0.6032 -0.8472
  172SAPE   C3719452   3.175   4.625   3.886  0.6633  0.1119 -0.4813
  172SAPE   H7X19453   3.184   4.517   3.865  1.0046  0.2220 -0.9325
  172SAPE   H7Y19454   3.067   4.646   3.876  0.3123 -1.2493  0.3642
  172SAPE   C3819455   3.228   4.668   4.021  0.3937 -0.3761  0.3926
  172SAPE   H8X19456   3.210   4.778   4.031 -1.1115 -0.6413  0.8278
  172SAPE   H8Y19457   3.338   4.652   4.026  0.3437 -0.3092  3.1401
  172SAPE   C3919458   3.166   4.606   4.141 -0.9919  0.7861  0.2088
  172SAPE   H9X19459   3.147   4.497   4.131  2.6314 -0.0074  0.5653
  172SAPE   H9Y19460   3.063   4.648   4.144 -1.5636 -0.4121 -1.4721
  172SAPE  C31019461   3.240   4.632   4.272 -0.1982 -0.0808 -0.2187
  172SAPE  H10X19462   3.195   4.727   4.310 -0.5455  0.0689 -0.9857
  172SAPE  H10Y19463   3.345   4.660   4.249 -0.2670 -0.7509 -1.3870
  172SAPE  C31119464   3.228   4.520   4.377 -0.1997  0.1555 -0.3319
  172SAPE  H11X19465   3.257   4.424   4.329  2.2076 -0.5104  2.1655
  172SAPE  H11Y19466   3.125   4.520   4.419  0.3130  0.2390  0.9983
  172SAPE  C31219467   3.317   4.530   4.499  0.2981 -0.8356  0.3865
  172SAPE  H12X19468   3.272   4.608   4.564 -4.9206 -2.1947 -1.0787
  172SAPE  H12Y19469   3.420   4.556   4.465 -0.5263  0.3885 -1.4052
  172SAPE  C31319470   3.317   4.401   4.583  1.1797 -0.1764 -0.7592
  172SAPE  H13X19471   3.324   4.315   4.514  0.1542  0.6517 -1.9546
  172SAPE  H13Y19472   3.215   4.401   4.628  0.9693 -1.4654 -1.2132
  172SAPE  C31419473   3.421   4.401   4.700  0.7305  0.0836 -0.0609
  172SAPE  H14X19474   3.397   4.487   4.767 -0.7926  0.1184 -0.6002
  172SAPE  H14Y19475   3.508   4.424   4.636 -0.1577  0.9096 -1.0133
  172SAPE  C31519476   3.415   4.270   4.774  0.0795  0.2028  0.2751
  172SAPE  H15X19477   3.412   4.195   4.692  0.0449  0.3613  0.1316
  172SAPE  H15Y19478   3.321   4.259   4.832 -0.0477  0.9551  0.2188
  172SAPE  C31619479   3.539   4.234   4.857 -0.3811  0.0152  0.6172
  172SAPE  H16X19480   3.540   4.304   4.943  0.3355  0.4687  0.2496
  172SAPE  H16Y19481   3.622   4.232   4.783 -1.5808 -3.8644 -0.8685
  172SAPE  C31719482   3.527   4.078   4.898 -1.2106 -1.0727  0.0316
  172SAPE  H17X19483   3.432   4.063   4.953 -3.2792  0.7673 -2.7792
  172SAPE  H17Y19484   3.613   4.054   4.965 -0.4391 -1.8023 -1.1719
  172SAPE  C31819485   3.529   3.966   4.786  0.5244 -0.2818  0.9764
  172SAPE  H18X19486   3.586   4.002   4.697 -0.9377 -0.8505 -0.2352
  172SAPE  H18Y19487   3.426   3.942   4.752  0.3993  2.0948 -0.5219
  172SAPE  H18Z19488   3.582   3.882   4.837  2.5386 -0.1137 -0.6987
  173SLPC     N19489   1.094   1.513   7.509  0.4416  0.4419 -0.0008
  173SLPC   C1319490   1.226   1.436   7.537  0.0229  0.0021  0.1277
  173SLPC  H13A19491   1.261   1.368   7.461 -1.7797 -0.4043 -0.3878
  173SLPC  H13B19492   1.307   1.507   7.545  0.7625 -0.7943 -0.1358
  173SLPC  H13C19493   1.232   1.385   7.632 -1.0536 -1.8529 -0.7402
  173SLPC   C1419494   1.059   1.598   7.628 -0.0044 -0.8242  0.9383
  173SLPC  H14A19495   1.131   1.668   7.666  0.0337  0.2841 -1.0228
  173SLPC  H14B19496   0.977   1.665   7.606  1.2557  0.7684  0.9574
  173SLPC  H14C19497   1.020   1.537   7.709 -2.1241  0.2411  0.8036
  173SLPC   C1519498   0.979   1.417   7.480 -0.1794  0.1619 -0.7635
  173SLPC  H15A19499   0.889   1.476   7.476 -0.7514 -0.6303  0.1220
  173SLPC  H15B19500   0.988   1.369   7.384 -1.6343  1.6815 -1.7117
  173SLPC  H15C19501   0.963   1.365   7.573 -0.4565  0.5211 -0.6057
  173SLPC   C1219502   1.120   1.603   7.386 -0.2825 -0.1868 -0.4567
  173SLPC  H12A19503   1.203   1.671   7.396  0.5412 -0.9143 -2.0104
  173SLPC  H12B19504   1.027   1.658   7.384 -0.5077 -0.5518 -0.2672
  173SLPC   C1119505   1.146   1.543   7.247  0.0680  0.4244  0.7183
  173SLPC  H11A19506   1.148   1.626   7.173  1.4754 -1.0683 -1.0390
  173SLPC  H11B19507   1.063   1.475   7.219  1.6140 -1.0087 -0.6275
  173SLPC     P19508   1.411   1.564   7.234  0.3016 -0.3087 -0.2457
  173SLPC   O1319509   1.384   1.709   7.233  0.5086 -0.5177  0.1797
  173SLPC   O1419510   1.510   1.510   7.321 -0.2457 -0.1847  0.5469
  173SLPC   O1219511   1.280   1.480   7.258  0.1181 -0.2909 -0.3846
  173SLPC   O1119512   1.445   1.513   7.086 -0.0911 -0.6153  0.0532
  173SLPC    C119513   1.348   1.498   6.979  0.7160  0.3779 -0.5408
  173SLPC    HA19514   1.243   1.517   7.009  0.0076  1.9267 -3.5643
  173SLPC    HB19515   1.367   1.576   6.902  0.0592  1.3515  0.2483
  173SLPC    C219516   1.354   1.363   6.911  0.8065  0.1126 -0.0769
  173SLPC    HS19517   1.341   1.286   6.991 -0.3795 -0.0174 -0.3838
  173SLPC   O2119518   1.463   1.354   6.822  0.0647  0.6489 -0.5171
  173SLPC   C2119519   1.535   1.246   6.833  1.0823  0.3412 -0.3863
  173SLPC   O2219520   1.510   1.148   6.901  0.4800  0.0783  0.0172
  173SLPC   C2219521   1.655   1.259   6.737  1.4133  0.9263  0.6330
  173SLPC   H2R19522   1.638   1.354   6.683 -2.8668  1.2368  2.2042
  173SLPC   H2S19523   1.750   1.277   6.792  1.4741  0.5336  0.6619
  173SLPC    C319524   1.227   1.343   6.821 -0.2497  0.5886  0.4702
  173SLPC    HX19525   1.218   1.241   6.778  0.4442  1.9031 -3.1459
  173SLPC    HY19526   1.247   1.410   6.735 -0.5964 -0.3529 -0.3563
  173SLPC   O3119527   1.104   1.377   6.897  0.0576 -0.4020  0.6279
  173SLPC   C3119528   0.988   1.317   6.856 -0.0094  0.2593 -0.1407
  173SLPC   O3219529   0.977   1.250   6.757 -0.1191 -0.1146  0.6407
  173SLPC   C3219530   0.870   1.385   6.936 -0.2074  0.5588  0.1317
  173SLPC   H2X19531   0.894   1.493   6.936  1.9540  0.2095 -2.6774
  173SLPC   H2Y19532   0.869   1.346   7.040 -1.5438  0.4501  0.0900
  173SLPC   C2319533   1.672   1.131   6.654 -0.3232  0.5631 -0.1711
  173SLPC   H3R19534   1.587   1.122   6.583  0.7881 -2.6452 -1.2821
  173SLPC   H3S19535   1.674   1.041   6.719 -1.5976 -0.3712 -1.3703
  173SLPC   C2419536   1.797   1.130   6.574 -0.1848 -0.0216  0.1083
  173SLPC   H4R19537   1.894   1.130   6.629  0.8291 -2.8048 -1.4808
  173SLPC   H4S19538   1.794   1.215   6.502  2.4260 -1.4184 -1.8418
  173SLPC   C2519539   1.808   1.010   6.476 -0.0545 -0.5379  0.6350
  173SLPC   H5R19540   1.709   0.972   6.442  1.6949 -1.5147 -3.9685
  173SLPC   H5S19541   1.844   0.930   6.545 -0.6687 -0.6914  0.7879
  173SLPC   C2619542   1.894   1.038   6.358  0.2124 -0.4908 -0.3906
  173SLPC   H6R19543   2.000   1.044   6.391 -0.2745 -0.3644  1.2537
  173SLPC   H6S19544   1.864   1.138   6.320  2.2132  0.2224 -0.2609
  173SLPC   C2719545   1.875   0.944   6.244 -0.4703  0.6882  0.6654
  173SLPC   H7R19546   1.913   0.983   6.148 -1.6967  0.1390 -0.0659
  173SLPC   H7S19547   1.766   0.924   6.228 -0.9020  2.1819  1.5082
  173SLPC   C2819548   1.934   0.806   6.278  1.4241  0.1567  0.2947
  173SLPC   H8R19549   1.881   0.732   6.213  1.0587  0.4517  0.2546
  173SLPC   H8S19550   1.902   0.783   6.381  0.0253 -0.9053 -0.3487
  173SLPC   C2919551   2.085   0.792   6.261  0.0442  0.9728  0.1822
  173SLPC   H9R19552   2.140   0.768   6.353  0.1633 -1.2996 -0.4261
  173SLPC  C21019553   2.159   0.785   6.146 -0.0032  0.1145 -0.0258
  173SLPC  H10R19554   2.268   0.782   6.160 -0.0268 -0.3958  0.0689
  173SLPC  C21119555   2.099   0.792   6.004  0.0538  0.1601 -0.3929
  173SLPC  H11R19556   2.116   0.898   5.976  1.1879  0.3822  0.9640
  173SLPC  H11S19557   1.989   0.777   6.010  0.0181  0.8397  2.0949
  173SLPC  C21219558   2.174   0.704   5.904 -0.3011 -0.3652 -0.3118
  173SLPC  H12R19559   2.281   0.686   5.924  0.4166  1.3604 -2.2091
  173SLPC  C21319560   2.123   0.655   5.793 -0.7596 -0.5233  0.0263
  173SLPC  H13R19561   2.189   0.586   5.738  0.2063  1.5302 -1.5027
  173SLPC  C21419562   1.986   0.653   5.732 -0.0408 -0.3760  0.6590
  173SLPC  H14R19563   1.928   0.745   5.757 -3.9382 -2.7340  0.9986
  173SLPC  H14S19564   1.921   0.570   5.765 -0.6037 -0.6186 -0.9838
  173SLPC  C21519565   1.994   0.651   5.582  0.8137  0.1010 -0.3424
  173SLPC  H15R19566   1.888   0.666   5.551  2.0256  1.7590 -4.3950
  173SLPC  H15S19567   2.023   0.552   5.541  0.8397  0.7104 -1.8629
  173SLPC  C21619568   2.079   0.771   5.515 -1.1410 -0.8451  0.0505
  173SLPC  H16R19569   2.189   0.759   5.529 -0.7777  0.5889 -1.3556
  173SLPC  H16S19570   2.038   0.869   5.547  0.4746  0.3770 -1.4885
  173SLPC  C21719571   2.067   0.785   5.362  0.5391  0.3487  0.2748
  173SLPC  H17R19572   2.091   0.687   5.316  1.1356  1.2349 -1.4017
  173SLPC  H17S19573   2.137   0.856   5.313  1.0396  0.3255  0.9382
  173SLPC  C21819574   1.928   0.835   5.322  0.4044 -0.3310  0.3167
  173SLPC  H18R19575   1.923   0.941   5.355  1.2359  0.3216 -1.4830
  173SLPC  H18S19576   1.846   0.777   5.369 -0.3092  0.9045  0.6399
  173SLPC  H18T19577   1.912   0.845   5.212 -0.6352  1.4717  0.5888
  173SLPC   C3319578   0.729   1.349   6.880  0.1945 -0.1868 -0.4770
  173SLPC   H3X19579   0.652   1.395   6.945 -1.5870 -1.6397 -1.4409
  173SLPC   H3Y19580   0.723   1.238   6.876  1.0485 -0.2093 -2.8974
  173SLPC   C3419581   0.699   1.393   6.737  0.0546  0.6464 -0.4421
  173SLPC   H4X19582   0.764   1.334   6.668 -0.1117 -1.1488  0.8622
  173SLPC   H4Y19583   0.719   1.502   6.727  2.2293  0.1226 -3.4975
  173SLPC   C3519584   0.554   1.363   6.696 -0.0084  0.1071 -0.2278
  173SLPC   H5X19585   0.487   1.397   6.777 -0.5125  1.7417 -1.2779
  173SLPC   H5Y19586   0.541   1.253   6.687 -1.6122  0.3384 -1.2040
  173SLPC   C3619587   0.507   1.423   6.566 -0.1511 -0.1989  0.3887
  173SLPC   H6X19588   0.516   1.534   6.565 -1.3710 -0.0848 -0.8233
  173SLPC   H6Y19589   0.402   1.392   6.548 -0.1889 -0.1405  0.5140
  173SLPC   C3719590   0.591   1.378   6.445 -0.4601  0.3517  0.2885
  173SLPC   H7X19591   0.625   1.273   6.454  2.0884  1.1401  0.6599
  173SLPC   H7Y19592   0.684   1.439   6.450 -0.2557  0.1549 -0.9597
  173SLPC   C3819593   0.503   1.403   6.329  0.1274 -0.0820 -0.2188
  173SLPC   H8X19594   0.470   1.509   6.318  0.4986  0.2551  1.5865
  173SLPC   H8Y19595   0.404   1.352   6.331 -0.5479  1.2054 -0.0727
  173SLPC   C3919596   0.574   1.358   6.206 -0.5939  0.5575  0.3051
  173SLPC   H9X19597   0.589   1.248   6.208  1.2667  0.5484 -3.8294
  173SLPC   H9Y19598   0.677   1.399   6.196  0.8342 -3.1788 -3.4181
  173SLPC  C31019599   0.492   1.386   6.073 -0.0857 -0.5223 -0.5230
  173SLPC  H10X19600   0.458   1.490   6.097 -2.1175 -1.5808  1.6003
  173SLPC  H10Y19601   0.391   1.341   6.079 -0.6567  0.8512  1.1033
  173SLPC  C31119602   0.562   1.350   5.950 -0.4027 -0.2996 -0.4280
  173SLPC  H11X19603   0.575   1.240   5.954  3.5538 -0.1246 -2.8055
  173SLPC  H11Y19604   0.667   1.382   5.967 -0.9101 -0.1756  3.6717
  173SLPC  C31219605   0.499   1.401   5.817  0.5219  0.0953 -0.2715
  173SLPC  H12X19606   0.534   1.506   5.806  0.6908 -0.0063 -0.7303
  173SLPC  H12Y19607   0.391   1.376   5.827  1.2778 -3.3275  0.7450
  173SLPC  C31319608   0.558   1.335   5.696 -0.1526 -0.3046 -0.1173
  173SLPC  H13X19609   0.532   1.227   5.705 -2.7019  0.2417 -0.2372
  173SLPC  H13Y19610   0.665   1.356   5.674 -1.2011  2.0311 -3.9930
  173SLPC  C31419611   0.490   1.368   5.556  0.2803  0.0597  0.2807
  173SLPC  H14X19612   0.463   1.476   5.549  1.0548  0.1409 -3.3032
  173SLPC  H14Y19613   0.391   1.319   5.567  0.2520 -0.3160 -1.3268
  173SLPC  C31519614   0.572   1.310   5.438  0.1804  0.4360 -0.3833
  173SLPC  H15X19615   0.582   1.199   5.436  0.4645  0.4542 -0.0169
  173SLPC  H15Y19616   0.668   1.366   5.441 -1.3634  3.2162  0.9205
  173SLPC  C31619617   0.492   1.355   5.312 -0.1643 -0.4522  0.2473
  173SLPC  H16X19618   0.469   1.463   5.324  0.1029 -0.5174  1.4090
  173SLPC  H16Y19619   0.392   1.307   5.299  0.1789 -1.1330  0.1058
  173SLPC  C31719620   0.572   1.347   5.185 -0.3917 -0.8970  0.2996
  173SLPC  H17X19621   0.568   1.245   5.140 -0.1161 -0.1751 -1.4362
  173SLPC  H17Y19622   0.680   1.353   5.209  0.0231 -0.5213 -1.4665
  173SLPC  C31819623   0.544   1.444   5.075  0.6488 -0.1864 -0.7083
  173SLPC  H18X19624   0.434   1.448   5.062  0.5581  0.1769  0.0960
  173SLPC  H18Y19625   0.593   1.414   4.980  0.5496 -0.3671 -0.7016
  173SLPC  H18Z19626   0.572   1.548   5.101  1.2434 -0.9720  2.1610
  174SLPC     N19627   6.033   5.604   7.318 -0.5992  0.2919  0.2365
  174SLPC   C1319628   6.121   5.704   7.394  0.8327  0.1123 -0.1175
  174SLPC  H13A19629   6.062   5.779   7.446  1.2810 -0.5523  1.4081
  174SLPC  H13B19630   6.175   5.655   7.474 -0.7673 -0.7683  0.4858
  174SLPC  H13C19631   6.186   5.754   7.325  0.1600  3.3717  1.4111
  174SLPC   C1419632   5.947   5.529   7.415 -0.2201 -0.9650 -0.0497
  174SLPC  H14A19633   5.893   5.603   7.472  0.9480  1.6095 -2.0709
  174SLPC  H14B19634   5.869   5.474   7.365 -2.5997  2.0562 -0.0094
  174SLPC  H14C19635   6.009   5.471   7.481 -0.3602 -1.3350 -0.2431
  174SLPC   C1519636   6.116   5.501   7.237 -0.4932  0.3512  0.5584
  174SLPC  H15A19637   6.161   5.424   7.299 -2.5982 -1.2381  0.2441
  174SLPC  H15B19638   6.042   5.447   7.180  0.3102  0.3463 -0.4947
  174SLPC  H15C19639   6.183   5.550   7.169 -1.8437  1.2843 -0.1373
  174SLPC   C1219640   5.947   5.672   7.214 -0.4893 -0.1289  0.1745
  174SLPC  H12A19641   6.007   5.746   7.162 -0.4958  0.7231  1.3226
  174SLPC  H12B19642   5.870   5.721   7.272  0.7029  0.0721  1.6612
  174SLPC   C1119643   5.867   5.584   7.108 -1.0820 -0.5472  0.4185
  174SLPC  H11A19644   5.938   5.537   7.036  0.2786  1.6486  0.2361
  174SLPC  H11B19645   5.810   5.664   7.056  0.3258  0.0323 -0.2927
  174SLPC     P19646   5.644   5.517   7.222  0.1241 -0.0475 -0.5326
  174SLPC   O1319647   5.587   5.401   7.301  0.1118  0.0694 -0.0716
  174SLPC   O1419648   5.658   5.641   7.302 -0.0716 -0.4353  0.3258
  174SLPC   O1219649   5.791   5.482   7.166  0.6133  0.4980 -0.0564
  174SLPC   O1119650   5.561   5.539   7.089  0.0586 -0.5613 -0.0278
  174SLPC    C119651   5.506   5.429   7.013  0.2374 -0.2036 -0.2699
  174SLPC    HA19652   5.505   5.334   7.071  0.1340 -0.8918 -1.3555
  174SLPC    HB19653   5.399   5.454   6.998  0.7644  2.0375 -0.6923
  174SLPC    C219654   5.573   5.405   6.872 -0.3060  0.3112 -0.4057
  174SLPC    HS19655   5.523   5.315   6.829  0.9427 -1.1481  1.0790
  174SLPC   O2119656   5.714   5.369   6.872  0.4485 -0.3075  0.3729
  174SLPC   C2119657   5.736   5.250   6.918  0.3025 -0.4166  0.9783
  174SLPC   O2219658   5.653   5.159   6.934 -0.5389  0.3104  0.5019
  174SLPC   C2219659   5.882   5.228   6.910 -0.2116 -0.0818  0.3255
  174SLPC   H2R19660   5.941   5.319   6.934  1.5880 -1.2743  0.5858
  174SLPC   H2S19661   5.897   5.158   6.995 -2.6274  0.6429  1.4349
  174SLPC    C319662   5.529   5.517   6.771 -0.4541  0.0222  0.3373
  174SLPC    HX19663   5.609   5.594   6.776 -2.3230  2.1407 -0.4305
  174SLPC    HY19664   5.430   5.559   6.800  0.2330  1.7953  0.2209
  174SLPC   O3119665   5.520   5.445   6.643  0.3547  0.4512  0.4404
  174SLPC   C3119666   5.572   5.506   6.535  0.2831 -0.6551  0.1044
  174SLPC   O3219667   5.612   5.620   6.540  0.2124 -0.0635 -0.1094
  174SLPC   C3219668   5.570   5.423   6.411 -0.5435 -0.1098 -0.2152
  174SLPC   H2X19669   5.471   5.372   6.407 -1.0269  0.8583 -1.0508
  174SLPC   H2Y19670   5.651   5.348   6.424  1.3321  1.6325 -1.3148
  174SLPC   C2319671   5.925   5.161   6.779  0.1124 -1.2250 -0.3507
  174SLPC   H3R19672   5.859   5.078   6.745  0.9572 -1.9482 -0.2703
  174SLPC   H3S19673   6.020   5.111   6.806  0.4200 -0.0066  0.9606
  174SLPC   C2419674   5.950   5.265   6.673  0.7912 -0.3583  0.5998
  174SLPC   H4R19675   6.017   5.336   6.727 -0.0994 -0.0476  1.3186
  174SLPC   H4S19676   5.860   5.322   6.641  0.6163 -1.2442 -0.5971
  174SLPC   C2519677   6.025   5.225   6.543 -0.1157  0.0295 -0.5827
  174SLPC   H5R19678   5.949   5.175   6.480 -0.5897  0.0765 -0.0573
  174SLPC   H5S19679   6.113   5.161   6.565  1.1627  1.6340 -0.8801
  174SLPC   C2619680   6.075   5.353   6.464  0.3283  0.7074 -0.0136
  174SLPC   H6R19681   6.158   5.397   6.524  2.1803 -2.6076  0.0873
  174SLPC   H6S19682   5.985   5.417   6.460 -0.8237 -0.4722  3.5305
  174SLPC   C2719683   6.128   5.317   6.325 -0.5510 -0.4691  0.1942
  174SLPC   H7R19684   6.039   5.281   6.269 -0.4871  1.7748 -1.4930
  174SLPC   H7S19685   6.204   5.237   6.330 -0.7401 -0.5886  1.5287
  174SLPC   C2819686   6.158   5.456   6.256  0.0777  1.0655  0.2359
  174SLPC   H8R19687   6.214   5.529   6.320  2.7841  1.2813 -2.1747
  174SLPC   H8S19688   6.066   5.515   6.240 -0.2638  0.7408  0.9507
  174SLPC   C2919689   6.232   5.440   6.121  0.6234  0.8694 -0.4548
  174SLPC   H9R19690   6.340   5.422   6.124  0.6511  1.1242  2.4473
  174SLPC  C21019691   6.177   5.467   6.003  0.6007  0.7425 -0.3905
  174SLPC  H10R19692   6.230   5.438   5.910 -2.4793 -1.5970 -1.6090
  174SLPC  C21119693   6.035   5.502   5.973 -0.5997  0.7027 -0.0435
  174SLPC  H11R19694   5.974   5.522   6.064 -1.8898  0.7615 -0.8873
  174SLPC  H11S19695   5.995   5.413   5.920  2.4110 -1.1086  0.4786
  174SLPC  C21219696   6.041   5.625   5.883  0.3086  0.2104 -0.3346
  174SLPC  H12R19697   6.044   5.723   5.933 -1.7338 -0.4478  1.2242
  174SLPC  C21319698   6.026   5.613   5.750  0.5965 -0.3673 -0.3701
  174SLPC  H13R19699   6.043   5.707   5.696  0.6141  0.0162  0.2994
  174SLPC  C21419700   5.996   5.480   5.672 -0.2175  0.6282  0.4843
  174SLPC  H14R19701   5.888   5.454   5.674 -0.2641  0.8337  0.8066
  174SLPC  H14S19702   6.058   5.397   5.711  1.2512  1.5494  0.2042
  174SLPC  C21519703   6.025   5.497   5.519  0.5616  0.1420  0.2614
  174SLPC  H15R19704   5.963   5.577   5.474  1.5164 -1.0184 -3.5462
  174SLPC  H15S19705   5.993   5.404   5.466 -1.3405  1.2538 -0.6527
  174SLPC  C21619706   6.168   5.519   5.490 -0.1610  0.1344 -0.1832
  174SLPC  H16R19707   6.225   5.455   5.561 -1.2031  1.1555  1.6421
  174SLPC  H16S19708   6.199   5.616   5.535  2.3089  0.0852 -1.6067
  174SLPC  C21719709   6.206   5.497   5.340  0.1802  0.2217  0.6470
  174SLPC  H17R19710   6.151   5.564   5.270  0.5218  0.9936  1.1094
  174SLPC  H17S19711   6.171   5.397   5.307  1.1075 -0.0038  0.3281
  174SLPC  C21819712   6.353   5.506   5.313 -0.6896 -0.2081  0.5741
  174SLPC  H18R19713   6.393   5.590   5.374 -0.5200  0.0032  0.1709
  174SLPC  H18S19714   6.361   5.531   5.205 -1.6764 -3.8213 -0.4891
  174SLPC  H18T19715   6.409   5.413   5.337  0.6620 -0.0584 -1.7720
  174SLPC   C3319716   5.622   5.512   6.290  0.3302  0.2658 -0.4990
  174SLPC   H3X19717   5.724   5.555   6.300 -0.2400  1.2757  1.6974
  174SLPC   H3Y19718   5.551   5.598   6.295 -4.0865 -3.0929  2.9235
  174SLPC   C3419719   5.613   5.431   6.157 -0.1622  0.3322  0.0451
  174SLPC   H4X19720   5.517   5.376   6.152 -0.1323  0.3385 -0.7640
  174SLPC   H4Y19721   5.676   5.339   6.157 -1.2439 -0.4251  0.0724
  174SLPC   C3519722   5.628   5.519   6.028 -0.4435 -0.6980  0.4359
  174SLPC   H5X19723   5.728   5.566   6.034 -0.2676 -1.1300  1.0310
  174SLPC   H5Y19724   5.553   5.601   6.032  0.9026  0.6913 -1.4042
  174SLPC   C3619725   5.626   5.440   5.903  0.6133 -0.3823  0.2213
  174SLPC   H6X19726   5.700   5.358   5.912  0.1938 -0.9055 -0.9384
  174SLPC   H6Y19727   5.660   5.507   5.820 -2.2237 -0.7816 -1.3815
  174SLPC   C3719728   5.487   5.392   5.856 -0.3599 -0.2815 -0.1381
  174SLPC   H7X19729   5.420   5.480   5.838 -1.4531 -1.1970 -0.6898
  174SLPC   H7Y19730   5.446   5.340   5.945  0.2588  0.2361  0.4655
  174SLPC   C3819731   5.502   5.305   5.731 -0.4632  0.2132 -0.7180
  174SLPC   H8X19732   5.561   5.212   5.746 -2.3613 -0.7800  1.1032
  174SLPC   H8Y19733   5.564   5.372   5.668  1.2382  0.1723  0.8430
  174SLPC   C3919734   5.364   5.277   5.670  0.5074 -0.4039 -0.4372
  174SLPC   H9X19735   5.319   5.374   5.637  0.0978 -0.7834 -1.0256
  174SLPC   H9Y19736   5.294   5.230   5.742  0.2055  0.0478 -0.4299
  174SLPC  C31019737   5.372   5.187   5.546 -0.4580 -0.3404 -0.0351
  174SLPC  H10X19738   5.414   5.087   5.572  1.4739 -0.3420 -2.7188
  174SLPC  H10Y19739   5.437   5.228   5.467  2.2528  0.8650  2.6235
  174SLPC  C31119740   5.228   5.143   5.491 -0.4695 -1.0485  0.3863
  174SLPC  H11X19741   5.160   5.137   5.578 -1.0330  1.9858  0.2398
  174SLPC  H11Y19742   5.244   5.047   5.437 -1.7227  0.8038 -3.6657
  174SLPC  C31219743   5.179   5.240   5.383 -0.0516 -0.3105  0.2578
  174SLPC  H12X19744   5.180   5.344   5.423  0.7173 -0.4304  0.5713
  174SLPC  H12Y19745   5.073   5.214   5.362  0.1717 -0.8559 -0.2241
  174SLPC  C31319746   5.238   5.230   5.244  0.2661  0.3571  0.5147
  174SLPC  H13X19747   5.284   5.131   5.226 -2.2622 -0.7255 -0.4757
  174SLPC  H13Y19748   5.328   5.294   5.233  0.7773 -0.5566 -0.9219
  174SLPC  C31419749   5.141   5.266   5.133  0.2906 -0.3454 -0.1499
  174SLPC  H14X19750   5.100   5.369   5.137  0.2683 -0.3686  2.6593
  174SLPC  H14Y19751   5.055   5.196   5.135  0.0960 -0.1060 -0.1006
  174SLPC  C31519752   5.195   5.240   4.994  0.2192 -0.1177 -0.0093
  174SLPC  H15X19753   5.231   5.135   4.997  0.0606 -0.1635  0.3346
  174SLPC  H15Y19754   5.286   5.299   4.970 -0.7085  0.9884 -0.9264
  174SLPC  C31619755   5.099   5.254   4.881 -0.6620  0.1590 -0.1530
  174SLPC  H16X19756   5.069   5.360   4.893 -0.0928  0.3994 -0.8114
  174SLPC  H16Y19757   5.019   5.180   4.904 -0.3040  0.2387  1.4221
  174SLPC  C31719758   5.161   5.220   4.742 -0.4797 -0.0438 -0.4837
  174SLPC  H17X19759   5.255   5.279   4.731  0.4991 -1.3743  0.4154
  174SLPC  H17Y19760   5.087   5.246   4.664 -0.5971 -0.3751 -0.4848
  174SLPC  C31819761   5.187   5.074   4.715  0.5433 -0.0586 -0.6997
  174SLPC  H18X19762   5.101   5.016   4.757 -0.8299  0.2324 -2.9260
  174SLPC  H18Y19763   5.278   5.031   4.761 -1.1746 -2.5519  0.6500
  174SLPC  H18Z19764   5.204   5.058   4.607  2.7591  1.4942 -0.6300
  175SLPC     N19765   6.451   3.438   7.541 -0.1076  0.7747 -0.3333
  175SLPC   C1319766   6.303   3.446   7.542 -0.0476 -0.7622  0.2233
  175SLPC  H13A19767   6.249   3.370   7.596  2.2251 -0.9733  2.4057
  175SLPC  H13B19768   6.288   3.544   7.585 -0.4206 -0.5372 -0.4114
  175SLPC  H13C19769   6.272   3.450   7.439  1.1612  0.3898 -0.1304
  175SLPC   C1419770   6.482   3.301   7.489 -1.2268  0.5899 -0.2686
  175SLPC  H14A19771   6.455   3.222   7.558  0.9236  0.0107 -0.0150
  175SLPC  H14B19772   6.431   3.279   7.397 -1.6824 -0.6434  0.2584
  175SLPC  H14C19773   6.587   3.291   7.464 -1.3657 -2.7204 -0.0303
  175SLPC   C1519774   6.518   3.476   7.664  1.0076  0.3135 -0.3826
  175SLPC  H15A19775   6.491   3.407   7.743 -0.4530 -0.4957 -1.5360
  175SLPC  H15B19776   6.625   3.492   7.661  0.7460  3.4918  1.8399
  175SLPC  H15C19777   6.490   3.576   7.691  0.0076  0.2117 -1.0199
  175SLPC   C1219778   6.504   3.537   7.428 -0.4380  0.3860 -0.6667
  175SLPC  H12A19779   6.612   3.528   7.421 -0.4464 -0.8157  0.4406
  175SLPC  H12B19780   6.484   3.639   7.459  0.7082  0.0796  1.2273
  175SLPC   C1119781   6.449   3.519   7.281 -0.6716 -0.3608  0.1422
  175SLPC  H11A19782   6.457   3.415   7.244 -0.5384 -0.5231  0.6219
  175SLPC  H11B19783   6.512   3.587   7.220 -1.7988  1.1833  0.6232
  175SLPC     P19784   6.262   3.696   7.221 -0.3452  0.1511  0.2312
  175SLPC   O1319785   6.137   3.726   7.290  0.0449  0.0550 -0.0861
  175SLPC   O1419786   6.365   3.803   7.220 -0.0457 -1.0687 -0.0217
  175SLPC   O1219787   6.312   3.558   7.275 -0.6218  0.1749 -0.4428
  175SLPC   O1119788   6.215   3.662   7.072 -1.0733 -0.3470  0.1138
  175SLPC    C119789   6.183   3.532   7.044  0.1044  0.2003 -0.1058
  175SLPC    HA19790   6.274   3.468   7.045 -2.3260 -3.6130  0.8308
  175SLPC    HB19791   6.108   3.493   7.116 -0.3176 -0.8721 -1.1007
  175SLPC    C219792   6.132   3.508   6.894  0.6057 -0.1266 -0.1033
  175SLPC    HS19793   6.108   3.400   6.878 -1.0300  0.2734 -0.5518
  175SLPC   O2119794   6.232   3.555   6.800  0.2070 -0.4403  0.4241
  175SLPC   C2119795   6.324   3.461   6.778 -0.6411  0.7093  0.5432
  175SLPC   O2219796   6.321   3.348   6.816 -0.6275 -0.0856 -0.3477
  175SLPC   C2219797   6.430   3.513   6.688  0.6867 -0.0044  0.4258
  175SLPC   H2R19798   6.405   3.620   6.672 -0.6804 -0.3711  0.0222
  175SLPC   H2S19799   6.531   3.502   6.732  0.0643 -0.8604  1.7097
  175SLPC    C319800   5.992   3.583   6.866 -0.0849  0.2336 -0.2260
  175SLPC    HX19801   6.011   3.689   6.893  3.1443  0.2457 -2.0457
  175SLPC    HY19802   5.923   3.540   6.942  0.5393 -3.2769 -1.4272
  175SLPC   O3119803   5.947   3.581   6.731 -0.3573 -0.2677 -0.7566
  175SLPC   C3119804   5.886   3.472   6.690 -0.4185  0.5585 -0.5756
  175SLPC   O3219805   5.870   3.374   6.759  0.3159  0.8078 -0.0266
  175SLPC   C3219806   5.875   3.489   6.534 -0.2320  0.2012  0.3254
  175SLPC   H2X19807   5.970   3.444   6.497 -0.3761 -0.6952  1.0091
  175SLPC   H2Y19808   5.867   3.595   6.505 -2.6193 -0.1650 -0.5825
  175SLPC   C2319809   6.441   3.441   6.546 -0.0320  0.3363  0.2450
  175SLPC   H3R19810   6.438   3.333   6.574 -0.4799  0.7402  1.8559
  175SLPC   H3S19811   6.538   3.465   6.497  1.0182 -3.6759 -0.0213
  175SLPC   C2419812   6.338   3.483   6.443  0.7633 -0.2299 -0.3379
  175SLPC   H4R19813   6.376   3.584   6.419 -0.7986  0.6161  0.5709
  175SLPC   H4S19814   6.238   3.510   6.484 -0.3322 -1.4465 -2.1054
  175SLPC   C2519815   6.334   3.390   6.326  1.3601  0.3800 -0.2816
  175SLPC   H5R19816   6.280   3.303   6.367  0.5894  1.5635  1.3495
  175SLPC   H5S19817   6.441   3.376   6.300  1.9807 -0.9757  2.6093
  175SLPC   C2619818   6.251   3.449   6.210 -1.1761  0.0496 -0.1836
  175SLPC   H6R19819   6.304   3.541   6.176 -0.0738 -0.4884  0.0508
  175SLPC   H6S19820   6.156   3.480   6.259 -0.1010  0.7754  1.5364
  175SLPC   C2719821   6.219   3.363   6.087 -0.5413  0.2568  0.6556
  175SLPC   H7R19822   6.137   3.402   6.023 -1.5461  0.8874  2.2714
  175SLPC   H7S19823   6.181   3.270   6.133 -1.3655  0.8940  1.2869
  175SLPC   C2819824   6.354   3.333   6.008  0.2031  0.7529  0.8674
  175SLPC   H8R19825   6.429   3.280   6.069 -1.7654 -2.5971  0.6534
  175SLPC   H8S19826   6.392   3.435   5.988 -0.6264  0.7043 -1.3459
  175SLPC   C2919827   6.311   3.251   5.889 -0.4556 -0.1668 -0.5846
  175SLPC   H9R19828   6.309   3.142   5.907 -1.3924 -0.1130 -0.3132
  175SLPC  C21019829   6.269   3.300   5.773  0.2853  0.1913  0.9958
  175SLPC  H10R19830   6.225   3.235   5.696  0.4475 -2.1323  2.7358
  175SLPC  C21119831   6.275   3.450   5.739 -0.2921 -0.0740  0.5058
  175SLPC  H11R19832   6.245   3.500   5.833  1.2813  1.0529  0.4410
  175SLPC  H11S19833   6.202   3.487   5.664  1.9586  2.1016 -0.7929
  175SLPC  C21219834   6.417   3.496   5.709 -0.0491  0.2467 -0.0562
  175SLPC  H12R19835   6.485   3.473   5.793 -1.3169 -0.1251  0.8995
  175SLPC  C21319836   6.460   3.563   5.598 -0.1649 -0.4065 -0.1377
  175SLPC  H13R19837   6.565   3.590   5.583 -0.7680  2.0943 -0.3539
  175SLPC  C21419838   6.372   3.586   5.475 -0.0466  0.6021 -0.9015
  175SLPC  H14R19839   6.355   3.695   5.469  1.7782  0.8631 -2.1910
  175SLPC  H14S19840   6.274   3.533   5.479 -0.7992  2.0244  0.3162
  175SLPC  C21519841   6.460   3.542   5.350  1.0334 -0.9024  0.5384
  175SLPC  H15R19842   6.547   3.611   5.344 -0.8831  1.7473  1.4292
  175SLPC  H15S19843   6.402   3.560   5.257  0.1041  0.3751  1.3358
  175SLPC  C21619844   6.496   3.394   5.356 -0.3653  0.5785  0.6427
  175SLPC  H16R19845   6.399   3.345   5.377 -0.3871 -1.2636 -2.9291
  175SLPC  H16S19846   6.571   3.378   5.436  0.0396 -0.6166  0.0487
  175SLPC  C21719847   6.535   3.320   5.216 -0.1289 -0.4274 -0.4452
  175SLPC  H17R19848   6.643   3.336   5.197 -0.4242  0.7662 -1.2728
  175SLPC  H17S19849   6.476   3.369   5.135  0.1893  0.7629  0.0215
  175SLPC  C21819850   6.505   3.164   5.218  0.0282  0.1998 -0.4854
  175SLPC  H18R19851   6.521   3.122   5.117  0.0217 -0.6720 -0.1358
  175SLPC  H18S19852   6.400   3.143   5.247  0.0766  0.9331  0.2381
  175SLPC  H18T19853   6.557   3.104   5.296  0.9007  0.7555 -0.6314
  175SLPC   C3319854   5.750   3.424   6.483  0.6923  1.3405 -0.3897
  175SLPC   H3X19855   5.655   3.455   6.532  0.5830  1.7085 -0.8254
  175SLPC   H3Y19856   5.750   3.315   6.502  1.7845  1.6026  1.3736
  175SLPC   C3419857   5.735   3.470   6.337 -0.1153  0.1698 -0.4728
  175SLPC   H4X19858   5.746   3.580   6.327  1.3656  0.0166 -0.7171
  175SLPC   H4Y19859   5.628   3.462   6.308 -0.0012 -0.8544 -0.6340
  175SLPC   C3519860   5.811   3.386   6.232  0.3335  0.3224 -0.2078
  175SLPC   H5X19861   5.773   3.284   6.252  0.9549 -0.1595 -1.3623
  175SLPC   H5Y19862   5.917   3.378   6.265 -0.0093  0.5801  1.0205
  175SLPC   C3619863   5.791   3.400   6.080  0.2948 -0.2907 -0.2266
  175SLPC   H6X19864   5.684   3.386   6.054 -0.1426  0.4001  1.0830
  175SLPC   H6Y19865   5.847   3.311   6.046 -0.6335  0.5046 -4.4070
  175SLPC   C3719866   5.840   3.526   6.017 -0.2534  0.0109 -0.1391
  175SLPC   H7X19867   5.942   3.550   6.056 -0.1116 -1.9708  0.8414
  175SLPC   H7Y19868   5.773   3.609   6.048 -1.2874 -1.4980  1.9780
  175SLPC   C3819869   5.846   3.518   5.860  0.0174  0.2203  0.5504
  175SLPC   H8X19870   5.756   3.470   5.817 -0.5763  2.0479 -0.3399
  175SLPC   H8Y19871   5.937   3.457   5.840  0.5978  0.8158  1.2718
  175SLPC   C3919872   5.838   3.656   5.798 -0.5246 -0.2885 -0.4433
  175SLPC   H9X19873   5.936   3.708   5.810 -0.7135 -0.0587  0.0888
  175SLPC   H9Y19874   5.765   3.719   5.853 -0.4150 -1.8590  1.5774
  175SLPC  C31019875   5.817   3.666   5.647  0.1769  0.1809  0.2857
  175SLPC  H10X19876   5.826   3.771   5.613 -2.1711  1.3221  2.8319
  175SLPC  H10Y19877   5.713   3.634   5.624  0.4036  0.5771 -1.4292
  175SLPC  C31119878   5.920   3.585   5.570 -0.2690  0.2813 -0.6877
  175SLPC  H11X19879   5.909   3.477   5.592 -0.7740 -0.1997 -3.1031
  175SLPC  H11Y19880   6.025   3.616   5.590 -0.2893  0.8754 -1.4698
  175SLPC  C31219881   5.896   3.587   5.421 -0.6125 -0.3877  0.0246
  175SLPC  H12X19882   5.856   3.685   5.388  2.1270  0.8191  0.0781
  175SLPC  H12Y19883   5.823   3.505   5.400 -0.7707 -0.4467  0.7851
  175SLPC  C31319884   6.014   3.564   5.323 -0.3546  0.0421 -0.5710
  175SLPC  H13X19885   6.044   3.457   5.331 -0.3132  0.0667 -0.4002
  175SLPC  H13Y19886   6.089   3.639   5.355  0.7310 -1.0869 -0.3965
  175SLPC  C31419887   5.966   3.590   5.177 -0.5620 -0.9147  0.0673
  175SLPC  H14X19888   5.920   3.691   5.181 -0.0160 -0.4500 -2.9556
  175SLPC  H14Y19889   5.889   3.514   5.153  1.2168 -1.9968 -2.7165
  175SLPC  C31519890   6.081   3.591   5.077  0.4920 -0.6640  0.1461
  175SLPC  H15X19891   6.152   3.660   5.127  4.7754 -3.8804 -0.9131
  175SLPC  H15Y19892   6.052   3.621   4.974 -0.7143 -0.0409  0.6416
  175SLPC  C31619893   6.149   3.457   5.066  0.3779 -0.6657 -0.6484
  175SLPC  H16X19894   6.171   3.415   5.166 -1.3564 -0.6819 -0.2335
  175SLPC  H16Y19895   6.248   3.483   5.022 -0.1825  1.5802 -0.7196
  175SLPC  C31719896   6.070   3.353   4.985 -0.1273 -0.6577  0.0232
  175SLPC  H17X19897   6.081   3.367   4.876  2.3097 -0.8240  0.1912
  175SLPC  H17Y19898   5.966   3.342   5.024 -0.7458  0.6516 -1.1725
  175SLPC  C31819899   6.144   3.225   5.009 -0.2520 -0.2925  0.1510
  175SLPC  H18X19900   6.200   3.196   4.917  0.3225  0.4587  0.2566
  175SLPC  H18Y19901   6.066   3.151   5.038 -0.7221  0.2626  0.3260
  175SLPC  H18Z19902   6.205   3.227   5.102 -2.1913  0.5505  1.4804
  176SLPC     N19903   0.518   0.799   7.428  0.2453  0.3349 -0.0904
  176SLPC   C1319904   0.431   0.923   7.416 -0.7368 -0.1004 -0.1577
  176SLPC  H13A19905   0.484   0.998   7.360 -0.4896 -0.6725 -0.6982
  176SLPC  H13B19906   0.343   0.885   7.367 -0.7547  1.3330 -1.3122
  176SLPC  H13C19907   0.407   0.965   7.513  0.9421  1.9780 -0.5678
  176SLPC   C1419908   0.459   0.700   7.522 -0.1386 -0.1620 -0.3313
  176SLPC  H14A19909   0.434   0.760   7.608  1.2300  0.3948 -0.2919
  176SLPC  H14B19910   0.365   0.660   7.487  0.0982 -0.6820 -0.3833
  176SLPC  H14C19911   0.529   0.622   7.547  1.4150  1.6666  1.3137
  176SLPC   C1519912   0.648   0.839   7.507 -0.4665 -1.1377  0.6909
  176SLPC  H15A19913   0.700   0.905   7.439 -1.4030 -1.7728 -0.6717
  176SLPC  H15B19914   0.621   0.905   7.588  2.5236  2.1740 -0.7596
  176SLPC  H15C19915   0.711   0.755   7.534  1.4107 -0.3159 -0.9386
  176SLPC   C1219916   0.552   0.730   7.294  0.2284  0.0802 -0.0003
  176SLPC  H12A19917   0.470   0.666   7.267  1.6903 -1.3511 -1.1932
  176SLPC  H12B19918   0.638   0.667   7.307 -0.6593 -1.0407  0.6316
  176SLPC   C1119919   0.594   0.827   7.175  0.0653 -0.2194  0.7183
  176SLPC  H11A19920   0.526   0.914   7.163 -0.7315 -1.0535 -1.1720
  176SLPC  H11B19921   0.594   0.766   7.082  0.6806 -2.7691  2.2728
  176SLPC     P19922   0.850   0.795   7.148 -0.1664 -0.0015  0.2692
  176SLPC   O1319923   0.971   0.866   7.173 -0.5547 -0.1277  0.2355
  176SLPC   O1419924   0.832   0.659   7.199 -0.1580  0.4059 -1.0797
  176SLPC   O1219925   0.726   0.888   7.197 -0.1257 -0.0094 -0.1512
  176SLPC   O1119926   0.825   0.798   6.990  0.5888  0.2591 -0.0945
  176SLPC    C119927   0.811   0.913   6.909  0.1683 -0.5119  0.3227
  176SLPC    HA19928   0.735   0.983   6.950 -0.2236  1.0255 -2.6766
  176SLPC    HB19929   0.910   0.962   6.899  0.2063 -0.7346 -0.4509
  176SLPC    C219930   0.764   0.882   6.773 -0.0215 -0.1475  0.8302
  176SLPC    HS19931   0.675   0.818   6.794 -1.1843  0.9498 -0.5515
  176SLPC   O2119932   0.867   0.817   6.713 -0.3110  0.7904 -0.1420
  176SLPC   C2119933   0.835   0.714   6.636  0.2501 -0.4484  0.2788
  176SLPC   O2219934   0.722   0.680   6.608  0.2996 -0.1675  0.5740
  176SLPC   C2219935   0.968   0.660   6.573 -0.0751 -0.9434  0.2378
  176SLPC   H2R19936   1.034   0.750   6.571 -3.0228  1.3647 -0.7747
  176SLPC   H2S19937   1.017   0.594   6.648 -0.5602 -3.8124 -1.8119
  176SLPC    C319938   0.721   1.008   6.695 -1.0212 -0.0940  0.4923
  176SLPC    HX19939   0.811   1.071   6.677 -1.3751 -0.6475 -4.5916
  176SLPC    HY19940   0.644   1.064   6.753 -3.9749 -1.1840 -2.0828
  176SLPC   O3119941   0.667   0.972   6.566 -0.0128 -0.2879 -0.1689
  176SLPC   C3119942   0.538   0.938   6.561  0.0565  0.5986 -0.2180
  176SLPC   O3219943   0.457   0.955   6.649 -0.0843 -0.7664  0.2085
  176SLPC   C3219944   0.503   0.876   6.426  0.0806  0.2861 -0.0025
  176SLPC   H2X19945   0.407   0.825   6.449  0.1045  1.4117  3.0391
  176SLPC   H2Y19946   0.578   0.796   6.409  0.8610  1.2291 -1.2882
  176SLPC   C2319947   0.959   0.591   6.436 -0.6707  1.1421 -0.5485
  176SLPC   H3R19948   0.896   0.651   6.367 -0.2214  1.3643 -0.7681
  176SLPC   H3S19949   0.907   0.494   6.456  1.7571  0.2665  2.0525
  176SLPC   C2419950   1.097   0.562   6.379 -0.8854 -0.8878  0.3932
  176SLPC   H4R19951   1.162   0.521   6.459 -0.5643 -0.4862  0.3416
  176SLPC   H4S19952   1.134   0.661   6.345  0.4055 -0.4572  2.8308
  176SLPC   C2519953   1.104   0.466   6.264 -0.1937  0.4599 -0.3865
  176SLPC   H5R19954   1.071   0.370   6.310 -0.5443  0.9996  0.5002
  176SLPC   H5S19955   1.208   0.466   6.225  1.0236 -2.0016  2.4856
  176SLPC   C2619956   1.019   0.494   6.143  0.6160  0.3338  0.0997
  176SLPC   H6R19957   1.008   0.604   6.128 -0.7734  0.1919  0.0242
  176SLPC   H6S19958   0.920   0.460   6.179  0.9684 -1.5739 -0.6171
  176SLPC   C2719959   1.059   0.415   6.012  0.5894  0.0940 -0.0005
  176SLPC   H7R19960   0.970   0.401   5.947  0.3750  0.6322  0.1719
  176SLPC   H7S19961   1.095   0.312   6.032  0.1193 -0.5025 -2.0020
  176SLPC   C2819962   1.164   0.480   5.917  0.3768  0.0383 -0.6267
  176SLPC   H8R19963   1.265   0.485   5.963  0.9614  1.4184 -1.9860
  176SLPC   H8S19964   1.129   0.584   5.905 -0.3024  0.1495  1.8664
  176SLPC   C2919965   1.169   0.409   5.787 -0.5192  0.0213  0.3572
  176SLPC   H9R19966   1.213   0.308   5.788  0.4438  0.4180 -0.0369
  176SLPC  C21019967   1.141   0.470   5.667 -0.1157  0.3938  0.1320
  176SLPC  H10R19968   1.155   0.415   5.573  1.6800  0.1505  0.5106
  176SLPC  C21119969   1.088   0.610   5.651 -0.2168  0.3319 -0.4246
  176SLPC  H11R19970   1.007   0.634   5.723 -0.3208  2.9161 -1.2988
  176SLPC  H11S19971   1.038   0.617   5.552  0.4163 -2.3542 -1.0137
  176SLPC  C21219972   1.193   0.712   5.651  0.1031  0.3010 -0.0953
  176SLPC  H12R19973   1.231   0.728   5.753  3.0304  0.4375 -1.1047
  176SLPC  C21319974   1.248   0.779   5.549  0.0498 -0.6382  0.5552
  176SLPC  H13R19975   1.316   0.861   5.576 -0.2279 -0.1687 -0.1475
  176SLPC  C21419976   1.224   0.760   5.399  0.0617 -0.2982  0.2868
  176SLPC  H14R19977   1.197   0.857   5.353  0.7668  0.8022  2.1080
  176SLPC  H14S19978   1.150   0.682   5.371  0.5800 -1.4230  1.9036
  176SLPC  C21519979   1.357   0.712   5.333 -0.3495  0.3035  0.1447
  176SLPC  H15R19980   1.324   0.676   5.233 -2.6750 -1.4513  1.4438
  176SLPC  H15S19981   1.401   0.626   5.389 -1.9862 -0.1236  0.8226
  176SLPC  C21619982   1.451   0.835   5.325 -0.0453  0.7190 -0.1766
  176SLPC  H16R19983   1.499   0.871   5.418 -0.1205  2.0960 -0.6477
  176SLPC  H16S19984   1.390   0.921   5.291  0.9752  1.3367 -0.5019
  176SLPC  C21719985   1.571   0.804   5.226 -0.3504 -0.3098 -0.2760
  176SLPC  H17R19986   1.606   0.700   5.240 -0.7696 -0.5017 -0.6724
  176SLPC  H17S19987   1.653   0.873   5.255  1.1507 -2.5552  1.1708
  176SLPC  C21819988   1.534   0.825   5.092 -0.2943  0.8113 -0.6416
  176SLPC  H18R19989   1.621   0.825   5.023  0.6129  1.1269  0.4618
  176SLPC  H18S19990   1.473   0.917   5.088 -0.6851  0.9274  3.5241
  176SLPC  H18T19991   1.469   0.744   5.052 -1.0996  1.5532 -0.8500
  176SLPC   C3319992   0.493   0.972   6.300 -0.5890 -0.6259  0.8477
  176SLPC   H3X19993   0.591   0.979   6.248 -1.0597 -1.8003 -0.2643
  176SLPC   H3Y19994   0.469   1.077   6.328 -1.5903 -0.7090  0.3158
  176SLPC   C3419995   0.389   0.931   6.204 -0.4929 -0.0040  0.0241
  176SLPC   H4X19996   0.286   0.942   6.244 -0.1594 -0.0291  0.9237
  176SLPC   H4Y19997   0.409   0.823   6.186  1.0201  0.4492 -1.1800
  176SLPC   C3519998   0.413   1.003   6.073  0.3244  0.3225  0.0363
  176SLPC   H5X19999   0.523   0.999   6.058  0.4253 -0.9779  0.9618
  176SLPC   H5Y20000   0.380   1.109   6.078  0.6451  0.4637 -0.6771
  176SLPC   C3620001   0.343   0.933   5.954 -0.1321 -0.8232 -0.8117
  176SLPC   H6X20002   0.239   0.908   5.985  0.2262 -1.3269  0.0196
  176SLPC   H6Y20003   0.391   0.840   5.915  1.9605  0.7628 -2.2612
  176SLPC   C3720004   0.342   1.014   5.822 -0.4167  0.1616 -0.0279
  176SLPC   H7X20005   0.447   1.019   5.784 -0.6779 -1.3215 -1.0535
  176SLPC   H7Y20006   0.294   1.114   5.828 -3.0678 -0.9372 -1.3580
  176SLPC   C3820007   0.246   0.945   5.725  0.4284 -0.5156  0.6215
  176SLPC   H8X20008   0.147   0.943   5.774  0.8554  1.6018  1.6706
  176SLPC   H8Y20009   0.277   0.842   5.697  0.5188 -0.7316  1.4828
  176SLPC   C3920010   0.243   1.015   5.587 -0.4336 -0.4660  0.4948
  176SLPC   H9X20011   0.345   1.039   5.550 -0.2328 -2.2875 -0.2237
  176SLPC   H9Y20012   0.189   1.111   5.602 -2.3173 -1.0474 -1.9022
  176SLPC  C31020013   0.176   0.932   5.482  0.4652 -0.6829  0.4154
  176SLPC  H10X20014   0.073   0.906   5.515  0.3463 -0.0313  0.5588
  176SLPC  H10Y20015   0.229   0.842   5.444  0.1426 -0.3356 -0.9141
  176SLPC  C31120016   0.142   1.002   5.349  0.3667 -0.5497  0.0267
  176SLPC  H11X20017   0.092   1.100   5.367 -1.9951 -1.8387  0.9894
  176SLPC  H11Y20018   0.074   0.938   5.289  0.9623 -1.3498  0.1890
  176SLPC  C31220019   0.271   1.031   5.268  0.5472  0.8166 -0.0114
  176SLPC  H12X20020   0.361   0.986   5.316 -0.5023 -1.1982  0.1966
  176SLPC  H12Y20021   0.275   1.140   5.252  2.3975  0.4817 -2.5472
  176SLPC  C31320022   0.269   0.957   5.131 -0.3648  0.6847 -0.7409
  176SLPC  H13X20023   0.174   0.986   5.081 -1.1187 -1.1458 -0.4361
  176SLPC  H13Y20024   0.252   0.849   5.146  1.7789 -0.2716 -4.2356
  176SLPC  C31420025   0.403   0.975   5.055 -0.3179 -0.3289  0.2366
  176SLPC  H14X20026   0.496   0.946   5.109  0.8012 -1.4602 -2.1374
  176SLPC  H14Y20027   0.410   1.084   5.033  0.2516 -0.4981 -0.4671
  176SLPC  C31520028   0.412   0.897   4.922 -0.2332 -0.1258  0.1946
  176SLPC  H15X20029   0.498   0.929   4.859  0.9978 -1.1566  1.2750
  176SLPC  H15Y20030   0.321   0.922   4.865  0.4738 -0.4637 -1.1221
  176SLPC  C31620031   0.416   0.741   4.934  0.2136  0.2273 -0.5157
  176SLPC  H16X20032   0.317   0.714   4.977  0.9031 -3.0093 -0.7004
  176SLPC  H16Y20033   0.503   0.702   4.991 -0.8742  1.7372  2.3611
  176SLPC  C31720034   0.411   0.683   4.785 -0.2356  0.3096 -0.1890
  176SLPC  H17X20035   0.514   0.691   4.745 -0.2511  0.7931 -0.1298
  176SLPC  H17Y20036   0.350   0.762   4.738 -0.7647  1.5152  2.3906
  176SLPC  C31820037   0.351   0.550   4.750  0.1630  0.0771 -0.4671
  176SLPC  H18X20038   0.323   0.538   4.643  0.5130  1.2915 -0.7102
  176SLPC  H18Y20039   0.252   0.547   4.800  0.6140 -0.0543  0.4424
  176SLPC  H18Z20040   0.414   0.464   4.781 -0.2791 -0.3443 -0.7186
  177SLPC     N20041   6.514   2.760   7.632  0.0488  0.0466  0.1412
  177SLPC   C1320042   6.465   2.904   7.648  0.2380  0.2689  0.0877
  177SLPC  H13A20043   6.552   2.963   7.669  1.1294 -1.1196  0.4255
  177SLPC  H13B20044   6.420   2.948   7.559 -0.1810  1.4306  0.8509
  177SLPC  H13C20045   6.401   2.924   7.733  0.5643 -0.9761  0.6459
  177SLPC   C1420046   6.628   2.762   7.530 -0.3368 -0.1755 -0.3150
  177SLPC  H14A20047   6.706   2.827   7.567 -1.7423  1.0223  0.6872
  177SLPC  H14B20048   6.668   2.662   7.536 -0.5472 -0.1910  1.5073
  177SLPC  H14C20049   6.584   2.782   7.433 -1.1291 -0.5676 -0.0487
  177SLPC   C1520050   6.400   2.682   7.574 -0.3106 -0.1664 -0.4931
  177SLPC  H15A20051   6.317   2.692   7.641 -0.5746  0.7558 -0.9391
  177SLPC  H15B20052   6.373   2.714   7.475  0.4219 -0.3909 -0.7763
  177SLPC  H15C20053   6.419   2.577   7.561  2.4654  0.3222 -1.0177
  177SLPC   C1220054   6.551   2.699   7.764 -0.3594 -0.6318 -0.2306
  177SLPC  H12A20055   6.455   2.670   7.805  0.1119 -1.5308  0.2658
  177SLPC  H12B20056   6.590   2.769   7.835  0.3944 -1.6993  0.4367
  177SLPC   C1120057   6.644   2.575   7.769  0.0991 -0.5463  0.4333
  177SLPC  H11A20058   6.645   2.563   7.880 -1.3368  0.1542  0.5440
  177SLPC  H11B20059   6.746   2.603   7.738 -1.1484  2.7131 -1.1252
  177SLPC     P20060   6.644   2.370   7.604  0.3039  0.0327  0.1006
  177SLPC   O1320061   6.743   2.275   7.658  0.2744  0.2898 -0.1767
  177SLPC   O1420062   6.529   2.309   7.532  0.1693 -0.1234 -0.6045
  177SLPC   O1220063   6.585   2.460   7.719 -0.3192 -0.6795 -0.4209
  177SLPC   O1120064   6.720   2.473   7.505  0.2647  0.0362 -0.2333
  177SLPC    C120065   6.798   2.420   7.401  0.0185 -0.7713  0.2968
  177SLPC    HA20066   6.862   2.502   7.361 -2.3935  1.4817  0.7876
  177SLPC    HB20067   6.871   2.345   7.436 -0.9555 -1.3149  1.1976
  177SLPC    C220068   6.715   2.370   7.272  1.4353 -0.0952  0.2172
  177SLPC    HS20069   6.654   2.278   7.287 -2.2426  1.9276 -1.0448
  177SLPC   O2120070   6.811   2.349   7.169 -0.0282 -0.2018 -0.0321
  177SLPC   C2120071   6.868   2.234   7.166 -0.6121 -0.3867 -0.9820
  177SLPC   O2220072   6.853   2.144   7.244 -0.4789 -0.3834 -0.0712
  177SLPC   C2220073   6.960   2.228   7.043  0.2770  0.0918  0.1692
  177SLPC   H2R20074   6.954   2.123   7.008 -0.1125  0.3005 -0.3932
  177SLPC   H2S20075   6.919   2.305   6.975 -2.0371 -0.9570  0.2997
  177SLPC    C320076   6.619   2.479   7.217  0.2643 -0.2615  0.3939
  177SLPC    HX20077   6.536   2.509   7.285 -0.2475  0.0763 -0.3557
  177SLPC    HY20078   6.570   2.438   7.126  0.9831  0.6220 -0.4018
  177SLPC   O3120079   6.698   2.598   7.186  0.4568  0.0183 -0.0801
  177SLPC   C3120080   6.738   2.605   7.055 -0.2448 -0.3978  0.1615
  177SLPC   O3220081   6.717   2.522   6.967  0.2868 -0.1997  0.3334
  177SLPC   C3220082   6.827   2.727   7.036 -0.0884 -0.4692 -0.0533
  177SLPC   H2X20083   6.925   2.712   7.086  0.0740 -2.4435 -0.8895
  177SLPC   H2Y20084   6.788   2.819   7.086  0.1907  1.0995 -2.5503
  177SLPC   C2320085   7.109   2.272   7.069 -0.0164  0.2399  0.8537
  177SLPC   H3R20086   7.145   2.214   7.157 -0.1640 -2.2450 -0.6199
  177SLPC   H3S20087   7.111   2.379   7.098 -1.1390  0.7918 -0.9824
  177SLPC   C2420088   7.207   2.236   6.952  0.6893 -0.4732 -0.5833
  177SLPC   H4R20089   7.208   2.127   6.930 -1.1205 -0.5265 -0.5601
  177SLPC   H4S20090   7.309   2.269   6.982 -0.3856  2.4996  0.0947
  177SLPC   C2520091   7.157   2.299   6.822 -0.2299  0.3628  0.0088
  177SLPC   H5R20092   7.126   2.404   6.842 -0.0627 -0.3900  5.9486
  177SLPC   H5S20093   7.066   2.243   6.795  0.6286 -0.2332 -1.8126
  177SLPC   C2620094   7.260   2.301   6.707  0.3319 -0.1034 -0.1871
  177SLPC   H6R20095   7.313   2.205   6.692  0.5594  0.0070 -0.0910
  177SLPC   H6S20096   7.336   2.368   6.754 -0.3428 -0.0504  0.8564
  177SLPC   C2720097   7.212   2.354   6.571 -0.0955  0.4980  0.3772
  177SLPC   H7R20098   7.184   2.461   6.587  1.3103  0.5950  2.5998
  177SLPC   H7S20099   7.120   2.303   6.536 -0.8295  1.0543  1.4309
  177SLPC   C2820100   7.310   2.340   6.451 -0.2053 -0.0492 -0.3875
  177SLPC   H8R20101   7.302   2.231   6.427  2.7718 -0.1722 -1.2370
  177SLPC   H8S20102   7.405   2.372   6.499 -0.6101 -0.3649  0.6539
  177SLPC   C2920103   7.258   2.435   6.345 -0.3174 -0.9468 -0.3244
  177SLPC   H9R20104   7.206   2.523   6.387 -1.7691 -0.7500 -2.3690
  177SLPC  C21020105   7.264   2.428   6.212  0.2762  0.3096 -0.2676
  177SLPC  H10R20106   7.224   2.512   6.152 -0.1631 -0.2818 -0.8225
  177SLPC  C21120107   7.312   2.325   6.120 -0.2895 -0.5029  0.5237
  177SLPC  H11R20108   7.392   2.264   6.166  0.5290 -1.2853 -1.8017
  177SLPC  H11S20109   7.356   2.377   6.031  0.7093 -0.4060  1.0597
  177SLPC  C21220110   7.197   2.232   6.080  0.4871  0.0286 -0.3164
  177SLPC  H12R20111   7.151   2.171   6.160 -1.1716  0.4314 -0.9235
  177SLPC  C21320112   7.156   2.210   5.955  0.4574  0.0266  0.6601
  177SLPC  H13R20113   7.078   2.136   5.934  2.5121 -2.0425 -0.1376
  177SLPC  C21420114   7.208   2.278   5.829  0.4084  0.1923 -0.5991
  177SLPC  H14R20115   7.316   2.297   5.839 -0.0775  2.1334  1.8558
  177SLPC  H14S20116   7.158   2.377   5.820 -1.5721 -0.4738  1.8367
  177SLPC  C21520117   7.179   2.200   5.699  0.8080 -0.7009  0.3467
  177SLPC  H15R20118   7.196   2.090   5.707 -1.3394 -1.0508  0.9103
  177SLPC  H15S20119   7.246   2.247   5.624  1.3217 -2.4658 -0.3552
  177SLPC  C21620120   7.041   2.225   5.632  0.1595  0.1187 -0.1435
  177SLPC  H16R20121   7.044   2.336   5.633  0.5297  0.1274 -1.2503
  177SLPC  H16S20122   6.957   2.190   5.696 -1.0854  1.0915 -1.1795
  177SLPC  C21720123   7.045   2.180   5.483 -0.7168  0.2319  0.1877
  177SLPC  H17R20124   7.032   2.070   5.471  0.9152  0.1466 -1.1185
  177SLPC  H17S20125   7.137   2.221   5.437 -1.2080  1.5699  0.3485
  177SLPC  C21820126   6.924   2.243   5.412  1.3576 -0.2117  0.0950
  177SLPC  H18R20127   6.906   2.194   5.314  1.5829 -3.3069  1.4741
  177SLPC  H18S20128   6.928   2.353   5.393 -1.2187  0.0093  0.4266
  177SLPC  H18T20129   6.828   2.237   5.468 -0.2108 -0.2939 -2.4143
  177SLPC   C3320130   6.851   2.763   6.881  0.2383  0.5169  0.0180
  177SLPC   H3X20131   6.914   2.855   6.882 -1.0010  1.3957  0.9542
  177SLPC   H3Y20132   6.753   2.768   6.829  0.9252 -0.2531 -1.3935
  177SLPC   C3420133   6.949   2.662   6.819 -0.6300 -0.2289  0.3693
  177SLPC   H4X20134   6.901   2.567   6.788  1.7701 -0.7182 -2.2082
  177SLPC   H4Y20135   7.020   2.646   6.902 -0.1420 -1.0863 -0.1971
  177SLPC   C3520136   7.046   2.714   6.713  0.0014  0.1032 -0.2427
  177SLPC   H5X20137   7.127   2.638   6.714 -0.0116  0.0974  0.6606
  177SLPC   H5Y20138   7.091   2.809   6.746 -0.4902 -0.2887  1.6640
  177SLPC   C3620139   6.974   2.726   6.576 -0.1396  0.6638  0.7593
  177SLPC   H6X20140   6.881   2.787   6.584 -1.4485 -1.1766  0.3564
  177SLPC   H6Y20141   6.937   2.622   6.559 -2.1042  1.4228  0.1488
  177SLPC   C3720142   7.059   2.785   6.462 -0.0410  0.3039 -0.6193
  177SLPC   H7X20143   7.145   2.716   6.457  0.7340  1.1760  0.2789
  177SLPC   H7Y20144   7.105   2.881   6.494  4.2654 -1.6107 -0.4671
  177SLPC   C3820145   6.985   2.799   6.328 -0.4943  0.1270 -0.2953
  177SLPC   H8X20146   6.915   2.885   6.332 -0.5524  0.0656  2.7508
  177SLPC   H8Y20147   6.926   2.708   6.307  2.2148 -1.4307 -1.7722
  177SLPC   C3920148   7.086   2.804   6.208  0.3420 -0.0761  0.5963
  177SLPC   H9X20149   7.140   2.706   6.212 -0.3408 -0.4767  0.1503
  177SLPC   H9Y20150   7.160   2.884   6.229  1.5246 -1.4635  1.9784
  177SLPC  C31020151   7.025   2.822   6.068 -0.8613 -0.1057  0.1333
  177SLPC  H10X20152   6.997   2.929   6.070 -0.6558 -0.0482 -0.0992
  177SLPC  H10Y20153   6.938   2.753   6.061 -1.3029  0.4907 -0.4475
  177SLPC  C31120154   7.117   2.773   5.952  0.3419  0.3079 -0.3454
  177SLPC  H11X20155   7.152   2.671   5.978 -1.2070 -0.1514  0.0314
  177SLPC  H11Y20156   7.201   2.845   5.940 -0.6395  1.3612 -1.2315
  177SLPC  C31220157   7.048   2.764   5.818 -0.1711 -0.2033 -0.1576
  177SLPC  H12X20158   7.027   2.871   5.797  1.7811  0.0851 -0.8370
  177SLPC  H12Y20159   6.951   2.709   5.816  0.8761 -2.1195 -1.3306
  177SLPC  C31320160   7.137   2.714   5.707  0.1734 -0.0132 -0.0589
  177SLPC  H13X20161   7.182   2.616   5.733 -1.6719 -0.9906 -0.3789
  177SLPC  H13Y20162   7.215   2.793   5.699 -0.2807  0.5245  0.6732
  177SLPC  C31420163   7.058   2.688   5.576 -0.4003 -1.0711  0.1194
  177SLPC  H14X20164   7.019   2.787   5.544  4.2772  0.7784 -0.6144
  177SLPC  H14Y20165   6.970   2.629   5.609 -1.0687 -0.5663 -0.7249
  177SLPC  C31520166   7.153   2.625   5.474 -1.1326  0.2378 -0.2419
  177SLPC  H15X20167   7.141   2.515   5.478  0.4533  0.0524  0.1597
  177SLPC  H15Y20168   7.260   2.654   5.485 -0.9322 -0.1932 -0.9532
  177SLPC  C31620169   7.133   2.669   5.323  0.1888  0.1823  0.0512
  177SLPC  H16X20170   7.143   2.779   5.332 -2.2788  0.3094  2.5821
  177SLPC  H16Y20171   7.029   2.653   5.287  0.4840  0.3014 -0.8792
  177SLPC  C31720172   7.231   2.605   5.220 -0.2003  0.3749 -0.3052
  177SLPC  H17X20173   7.331   2.634   5.260  0.7526 -1.9241 -0.8869
  177SLPC  H17Y20174   7.214   2.664   5.128  1.3891 -1.4768 -1.8669
  177SLPC  C31820175   7.222   2.459   5.206 -0.1045  0.0551 -0.3718
  177SLPC  H18X20176   7.233   2.398   5.299  0.8276 -0.1347 -0.5911
  177SLPC  H18Y20177   7.303   2.429   5.135  0.1347 -0.2627  0.0309
  177SLPC  H18Z20178   7.127   2.423   5.161  1.3834 -2.1595 -1.9671
  178SLPC     N20179   4.720   5.694   8.182  0.1882  0.0353 -0.4525
  178SLPC   C1320180   4.779   5.825   8.230  0.0527 -0.6463 -0.2941
  178SLPC  H13A20181   4.779   5.895   8.147 -0.4608 -1.0768 -0.6606
  178SLPC  H13B20182   4.723   5.878   8.305 -0.1306  2.5931 -2.4837
  178SLPC  H13C20183   4.884   5.815   8.255  0.6970  0.5337 -2.2233
  178SLPC   C1420184   4.570   5.715   8.164 -0.1004 -0.6299  0.3867
  178SLPC  H14A20185   4.526   5.620   8.137  0.4048 -0.3124 -1.7290
  178SLPC  H14B20186   4.528   5.747   8.258 -0.5324 -0.4382  0.1316
  178SLPC  H14C20187   4.549   5.784   8.083 -0.4004 -0.0558  0.9422
  178SLPC   C1520188   4.740   5.615   8.305  0.5603 -0.1112  0.2083
  178SLPC  H15A20189   4.710   5.513   8.292  0.9557 -0.0895 -0.9784
  178SLPC  H15B20190   4.843   5.603   8.334  1.2186 -0.7758 -2.1562
  178SLPC  H15C20191   4.688   5.657   8.390  2.5058  1.0699  0.8800
  178SLPC   C1220192   4.784   5.634   8.065 -0.8529 -0.5952  0.6405
  178SLPC  H12A20193   4.881   5.601   8.096 -1.1854 -1.3110  0.9353
  178SLPC  H12B20194   4.792   5.706   7.985 -2.2118 -1.5297 -0.3903
  178SLPC   C1120195   4.710   5.515   8.015 -0.3094 -0.1094  0.0790
  178SLPC  H11A20196   4.643   5.460   8.085  3.0785 -2.0908  2.0618
  178SLPC  H11B20197   4.792   5.440   8.008 -3.8608 -4.3907  0.1706
  178SLPC     P20198   4.575   5.453   7.806  0.2173 -0.0052  0.2277
  178SLPC   O1320199   4.666   5.353   7.745 -0.6080  0.4005 -0.1846
  178SLPC   O1420200   4.466   5.399   7.888  0.1781  0.5082  0.3920
  178SLPC   O1220201   4.660   5.554   7.887 -0.3133 -0.1996  0.5655
  178SLPC   O1120202   4.520   5.550   7.689 -0.4186  0.1690 -0.1888
  178SLPC    C120203   4.610   5.567   7.578 -0.6496 -0.6183  0.2076
  178SLPC    HA20204   4.688   5.639   7.608 -0.5623  1.0392 -3.4729
  178SLPC    HB20205   4.652   5.471   7.540  2.2743 -0.5800  2.9560
  178SLPC    C220206   4.534   5.636   7.465  0.2385  0.5365  0.0590
  178SLPC    HS20207   4.498   5.734   7.505 -1.1286  0.7672 -1.6322
  178SLPC   O2120208   4.430   5.550   7.419  0.7716 -0.0524  0.1630
  178SLPC   C2120209   4.331   5.609   7.356 -0.1856  0.8594  0.2168
  178SLPC   O2220210   4.324   5.732   7.351 -0.0433 -0.7734 -0.4396
  178SLPC   C2220211   4.253   5.519   7.273  0.2660  0.5069  0.4341
  178SLPC   H2R20212   4.223   5.432   7.336 -1.6821 -1.3474 -2.7669
  178SLPC   H2S20213   4.165   5.576   7.234  1.8208  1.1898 -2.3484
  178SLPC    C320214   4.635   5.681   7.356 -0.7049  0.3933  0.0541
  178SLPC    HX20215   4.708   5.750   7.404  1.2681 -0.8198 -1.0684
  178SLPC    HY20216   4.584   5.754   7.289  2.2145  2.1651 -0.4173
  178SLPC   O3120217   4.709   5.578   7.285 -0.1848 -0.1941  0.0725
  178SLPC   C3120218   4.750   5.613   7.166 -0.3516  0.0963 -0.3022
  178SLPC   O3220219   4.724   5.718   7.111 -0.6747 -0.3288 -0.5719
  178SLPC   C3220220   4.827   5.505   7.111 -0.4420  1.0477  0.8140
  178SLPC   H2X20221   4.761   5.417   7.127 -0.4799  1.1234  1.0793
  178SLPC   H2Y20222   4.917   5.497   7.176 -0.8935 -0.8879  1.2750
  178SLPC   C2320223   4.344   5.462   7.161 -0.3516 -0.0495  0.0213
  178SLPC   H3R20224   4.291   5.382   7.106 -0.7471  0.7859 -0.8292
  178SLPC   H3S20225   4.440   5.419   7.197 -0.7964 -1.3808 -0.3352
  178SLPC   C2420226   4.385   5.560   7.047  0.1343  0.5486 -0.3595
  178SLPC   H4R20227   4.442   5.641   7.098  1.2150  1.2175 -2.5036
  178SLPC   H4S20228   4.298   5.612   7.002 -0.4028  1.4375  1.5820
  178SLPC   C2520229   4.471   5.494   6.934  0.1740  0.4269  0.3789
  178SLPC   H5R20230   4.418   5.418   6.873  0.6954  0.0911  0.3398
  178SLPC   H5S20231   4.565   5.444   6.963 -0.5851 -2.8114 -2.1484
  178SLPC   C2620232   4.507   5.618   6.845 -0.0828  0.4124 -0.0485
  178SLPC   H6R20233   4.586   5.678   6.896 -1.1241  2.9114 -1.2004
  178SLPC   H6S20234   4.414   5.676   6.829  0.1527  0.8756  0.2266
  178SLPC   C2720235   4.575   5.569   6.708  0.3733 -0.4562  0.1691
  178SLPC   H7R20236   4.497   5.505   6.661  1.2625 -0.6777 -1.0744
  178SLPC   H7S20237   4.664   5.509   6.737  1.2075  0.7395  0.1760
  178SLPC   C2820238   4.624   5.685   6.614 -0.7743  0.4465  0.2829
  178SLPC   H8R20239   4.691   5.743   6.681 -0.1866  0.7415 -0.5450
  178SLPC   H8S20240   4.541   5.756   6.598  0.5219  2.3576  1.5786
  178SLPC   C2920241   4.690   5.634   6.487  0.3208  0.3876  0.1507
  178SLPC   H9R20242   4.793   5.594   6.495 -0.1868 -0.8953  0.4761
  178SLPC  C21020243   4.636   5.627   6.363 -0.1729 -0.4051  0.4479
  178SLPC  H10R20244   4.706   5.596   6.284 -1.4354 -0.3696 -0.7235
  178SLPC  C21120245   4.506   5.674   6.317 -0.0145  0.4125 -0.3726
  178SLPC  H11R20246   4.519   5.784   6.307 -1.6201  0.5669 -1.0502
  178SLPC  H11S20247   4.431   5.662   6.398  0.8120 -0.0931  0.3359
  178SLPC  C21220248   4.455   5.593   6.199  0.2367  0.3324 -0.2906
  178SLPC  H12R20249   4.417   5.492   6.220  0.2242  0.5078  0.5733
  178SLPC  C21320250   4.453   5.634   6.075 -0.1798  0.2147 -0.0815
  178SLPC  H13R20251   4.420   5.557   6.004  0.6384  1.1991 -1.5706
  178SLPC  C21420252   4.526   5.745   6.015 -0.2509  0.7620 -0.1115
  178SLPC  H14R20253   4.582   5.699   5.931  1.6384  0.7045  1.1077
  178SLPC  H14S20254   4.604   5.789   6.081 -0.1578  0.6616 -0.1540
  178SLPC  C21520255   4.447   5.856   5.950 -0.3488  0.5548  0.2070
  178SLPC  H15R20256   4.400   5.920   6.028 -0.0775  1.0353 -0.0178
  178SLPC  H15S20257   4.367   5.803   5.894 -0.7595 -1.3340  2.4288
  178SLPC  C21620258   4.517   5.943   5.849 -0.6522 -0.6797  0.9873
  178SLPC  H16R20259   4.561   5.881   5.768  0.1998  2.1980 -0.9260
  178SLPC  H16S20260   4.598   5.990   5.908 -0.1759  0.0319 -0.1814
  178SLPC  C21720261   4.420   6.041   5.777 -0.4381 -0.5850 -0.5258
  178SLPC  H17R20262   4.383   6.118   5.847 -1.1333 -0.3805 -1.1001
  178SLPC  H17S20263   4.336   5.992   5.724 -1.1939  0.6976 -0.5406
  178SLPC  C21820264   4.488   6.119   5.669 -0.3756 -0.1492  0.9679
  178SLPC  H18R20265   4.550   6.203   5.706  0.4394 -0.0840 -0.4601
  178SLPC  H18S20266   4.417   6.155   5.590 -0.5806 -1.2405  0.6327
  178SLPC  H18T20267   4.553   6.050   5.610  2.1100  2.4749  0.4118
  178SLPC   C3320268   4.857   5.508   6.970  0.2891  0.2592 -0.2644
  178SLPC   H3X20269   4.764   5.534   6.915 -1.0082 -0.2068  1.5836
  178SLPC   H3Y20270   4.894   5.417   6.918 -1.7650 -0.9376  0.2570
  178SLPC   C3420271   4.959   5.622   6.926 -0.1043 -0.6838 -0.2260
  178SLPC   H4X20272   5.054   5.620   6.984  0.3232  2.5490 -0.6476
  178SLPC   H4Y20273   4.913   5.719   6.955  0.7175 -0.5666  0.7670
  178SLPC   C3520274   5.016   5.623   6.780 -0.1277  0.4176  0.7886
  178SLPC   H5X20275   5.065   5.722   6.768  2.0759 -0.5559  1.2083
  178SLPC   H5Y20276   4.932   5.612   6.709  2.0679  1.4723 -2.1886
  178SLPC   C3620277   5.125   5.518   6.747 -0.5777  0.2979  0.4197
  178SLPC   H6X20278   5.086   5.414   6.743  0.8339 -0.2158 -2.4954
  178SLPC   H6Y20279   5.202   5.512   6.826 -0.1688  2.2529  0.2200
  178SLPC   C3720280   5.189   5.549   6.607  0.0776  0.2363  0.5844
  178SLPC   H7X20281   5.273   5.476   6.608  0.3991  0.6033  0.7592
  178SLPC   H7Y20282   5.232   5.651   6.617  2.9197 -0.8667  0.5096
  178SLPC   C3820283   5.105   5.538   6.488 -0.1471 -0.6635 -0.5590
  178SLPC   H8X20284   5.017   5.607   6.492 -0.4517 -1.0931  0.5524
  178SLPC   H8Y20285   5.063   5.435   6.490  0.0536 -0.7339  1.3289
  178SLPC   C3920286   5.171   5.586   6.360 -0.6860 -0.2570  0.8714
  178SLPC   H9X20287   5.268   5.536   6.337 -0.3042  0.6458  0.4895
  178SLPC   H9Y20288   5.198   5.694   6.362  1.5986 -0.7528  0.4858
  178SLPC  C31020289   5.090   5.550   6.236 -0.7235  0.3417  0.3304
  178SLPC  H10X20290   4.999   5.613   6.232 -1.2042 -0.4045 -2.2487
  178SLPC  H10Y20291   5.055   5.445   6.242 -2.0199  0.8154  1.6594
  178SLPC  C31120292   5.171   5.564   6.102  0.8212  0.1305 -0.4700
  178SLPC  H11X20293   5.277   5.532   6.110  0.4343 -0.7812  1.8053
  178SLPC  H11Y20294   5.163   5.674   6.086 -2.2665  0.3339  1.6787
  178SLPC  C31220295   5.100   5.513   5.978 -0.0919  0.0854  0.0196
  178SLPC  H12X20296   4.993   5.508   6.006  0.3272 -1.1294  1.5447
  178SLPC  H12Y20297   5.135   5.408   5.965  0.6170  0.2021  0.9290
  178SLPC  C31320298   5.132   5.587   5.839  0.2868 -0.1170 -0.2356
  178SLPC  H13X20299   5.131   5.520   5.750  0.4076  2.6304 -2.4454
  178SLPC  H13Y20300   5.236   5.625   5.832  0.4463 -0.7673 -1.7589
  178SLPC  C31420301   5.030   5.701   5.817 -0.2646  0.3544  0.1356
  178SLPC  H14X20302   5.044   5.781   5.893  0.9393  1.7126 -1.4404
  178SLPC  H14Y20303   4.930   5.656   5.828 -0.4533  0.2922 -1.5928
  178SLPC  C31520304   5.044   5.770   5.683  0.1676  0.0027 -0.3694
  178SLPC  H15X20305   5.037   5.685   5.612 -1.1769 -0.7669  0.6358
  178SLPC  H15Y20306   5.143   5.820   5.672  1.2504 -1.3860  2.2607
  178SLPC  C31620307   4.929   5.869   5.656  0.9080 -0.9770  0.0379
  178SLPC  H16X20308   4.831   5.827   5.687  0.3299  1.3311  1.6782
  178SLPC  H16Y20309   4.924   5.892   5.548  1.6055  0.7034  0.3275
  178SLPC  C31720310   4.944   5.995   5.752  0.1457  0.3714  0.3251
  178SLPC  H17X20311   5.038   6.043   5.719  0.9283 -1.8229 -0.8705
  178SLPC  H17Y20312   4.953   5.980   5.862 -0.4589 -0.9223  0.2235
  178SLPC  C31820313   4.837   6.098   5.730  0.4133  0.1053 -0.2725
  178SLPC  H18X20314   4.740   6.066   5.773  0.7845 -0.4187  0.1878
  178SLPC  H18Y20315   4.827   6.124   5.623  1.3788 -0.7592 -0.5885
  178SLPC  H18Z20316   4.868   6.193   5.779 -0.7223 -0.1770  1.0749
  179SLPC     N20317   4.494   0.978   2.549 -0.0551 -0.1525  0.2139
  179SLPC   C1320318   4.576   0.893   2.642  0.0617 -0.0380  0.4665
  179SLPC  H13A20319   4.577   0.937   2.740  0.7365  1.6581 -0.2592
  179SLPC  H13B20320   4.521   0.801   2.648 -1.6044  0.7422 -1.4265
  179SLPC  H13C20321   4.680   0.882   2.612  0.2796  0.8561  0.8613
  179SLPC   C1420322   4.355   0.945   2.590 -0.0570 -0.1332  0.2614
  179SLPC  H14A20323   4.340   0.959   2.696 -0.5517 -0.2022  0.2010
  179SLPC  H14B20324   4.287   0.999   2.526 -1.4563 -1.3228  0.6845
  179SLPC  H14C20325   4.337   0.839   2.577 -1.3613  0.4249 -4.4002
  179SLPC   C1520326   4.522   0.936   2.408 -0.5897  0.5004 -0.4039
  179SLPC  H15A20327   4.626   0.926   2.381 -0.6737  1.2074 -1.0440
  179SLPC  H15B20328   4.483   0.840   2.377  3.2522 -0.3466 -3.4388
  179SLPC  H15C20329   4.479   1.007   2.339  0.2161  0.6274 -0.7934
  179SLPC   C1220330   4.527   1.128   2.561 -0.6504  1.0482 -0.4445
  179SLPC  H12A20331   4.514   1.166   2.661 -1.4176 -0.2220 -0.0382
  179SLPC  H12B20332   4.459   1.187   2.503 -2.3458 -0.7564 -0.4033
  179SLPC   C1120333   4.672   1.155   2.515  0.0970 -0.0317 -0.0067
  179SLPC  H11A20334   4.707   1.100   2.425 -0.1944  0.0752 -0.1862
  179SLPC  H11B20335   4.739   1.115   2.594 -0.8369  0.4153  1.0530
  179SLPC     P20336   4.708   1.402   2.610  0.5776 -0.3367 -0.1641
  179SLPC   O1320337   4.856   1.395   2.631  0.1074 -0.2705 -0.4678
  179SLPC   O1420338   4.647   1.529   2.572 -0.0907 -0.1411  0.0262
  179SLPC   O1220339   4.682   1.298   2.496  0.1415 -0.0037 -0.3704
  179SLPC   O1120340   4.634   1.338   2.741  0.1125 -0.9123 -0.3549
  179SLPC    C120341   4.646   1.404   2.868  0.9021  0.5764 -0.8183
  179SLPC    HA20342   4.748   1.443   2.889  1.0431 -0.2105  0.0118
  179SLPC    HB20343   4.581   1.493   2.858 -1.3977 -0.7559  1.2254
  179SLPC    C220344   4.592   1.316   2.983  0.2225 -0.0630  0.3923
  179SLPC    HS20345   4.653   1.224   2.971  2.0542  1.2201 -0.5719
  179SLPC   O2120346   4.453   1.283   2.953 -0.2391 -0.1333 -0.7406
  179SLPC   C2120347   4.406   1.180   3.023  0.8179 -1.1749  0.2997
  179SLPC   O2220348   4.470   1.104   3.087  0.1660  0.1510  0.1746
  179SLPC   C2220349   4.251   1.186   3.015  0.5533 -0.1565 -0.5066
  179SLPC   H2R20350   4.214   1.285   3.052 -0.5839 -0.2476 -1.3552
  179SLPC   H2S20351   4.227   1.173   2.907  0.4112  3.1782 -0.9901
  179SLPC    C320352   4.610   1.366   3.130  0.1157 -0.5533 -0.2867
  179SLPC    HX20353   4.569   1.290   3.199 -1.5718  0.3475 -0.2305
  179SLPC    HY20354   4.535   1.447   3.147  0.1867  0.1172 -2.7498
  179SLPC   O3120355   4.743   1.402   3.175 -0.4375  0.5006 -0.2936
  179SLPC   C3120356   4.779   1.531   3.196  0.8143 -0.6766  0.3107
  179SLPC   O3220357   4.701   1.624   3.190  0.0374 -0.1589 -0.4322
  179SLPC   C3220358   4.917   1.528   3.253  0.0338  0.3931 -0.0238
  179SLPC   H2X20359   4.937   1.626   3.301 -0.6536  0.9757 -0.9009
  179SLPC   H2Y20360   4.991   1.517   3.171 -0.3998  1.1680 -0.5307
  179SLPC   C2320361   4.188   1.064   3.101  0.0982 -0.1163 -0.0569
  179SLPC   H3R20362   4.231   0.967   3.068  0.8605  0.0695  0.3887
  179SLPC   H3S20363   4.087   1.051   3.056  0.2181  3.3781 -1.6523
  179SLPC   C2420364   4.203   1.096   3.246  0.0534  0.0268  0.4698
  179SLPC   H4R20365   4.297   1.155   3.254  1.1538 -1.5730 -0.2327
  179SLPC   H4S20366   4.222   1.003   3.304 -1.6487 -0.0953  0.8985
  179SLPC   C2520367   4.088   1.180   3.294 -0.0481  0.0226 -0.8606
  179SLPC   H5R20368   3.996   1.121   3.271  0.4382 -0.6853 -1.0415
  179SLPC   H5S20369   4.069   1.265   3.225 -1.2691 -0.5347 -1.2480
  179SLPC   C2620370   4.090   1.233   3.437  0.9799 -0.2205  0.1385
  179SLPC   H6R20371   4.199   1.254   3.446  1.4972 -0.5100 -3.7462
  179SLPC   H6S20372   4.048   1.169   3.517 -0.9648  1.0868  0.2224
  179SLPC   C2720373   4.009   1.360   3.444  0.7606  0.6977  0.1300
  179SLPC   H7R20374   3.909   1.342   3.399 -0.1873  1.6049  1.7894
  179SLPC   H7S20375   4.063   1.433   3.381  2.1549 -0.0226  0.4450
  179SLPC   C2820376   3.987   1.416   3.588  0.2786 -0.0365  0.1513
  179SLPC   H8R20377   3.913   1.351   3.639 -0.8213 -0.0281 -1.3415
  179SLPC   H8S20378   3.953   1.521   3.587  2.9313  0.8961  0.7843
  179SLPC   C2920379   4.117   1.415   3.667 -0.0329 -0.4017 -0.8657
  179SLPC   H9R20380   4.192   1.488   3.632  0.6687 -0.2046  0.9196
  179SLPC  C21020381   4.151   1.345   3.780 -0.2701 -0.4794 -0.2818
  179SLPC  H10R20382   4.246   1.373   3.828  0.4656 -0.8981 -1.4761
  179SLPC  C21120383   4.045   1.262   3.851 -0.2483 -0.8403 -0.3318
  179SLPC  H11R20384   4.104   1.204   3.926 -0.2482  0.3567  0.6188
  179SLPC  H11S20385   4.000   1.182   3.788 -1.2895 -1.2974  0.9546
  179SLPC  C21220386   3.941   1.345   3.931  0.0497  0.3599  0.6581
  179SLPC  H12R20387   3.838   1.323   3.900  0.4619 -1.6078  0.5447
  179SLPC  C21320388   3.961   1.436   4.024 -0.5827  0.2710 -0.0149
  179SLPC  H13R20389   3.874   1.492   4.059  0.5843  1.5944  0.8558
  179SLPC  C21420390   4.101   1.464   4.091  1.3066  0.0250  0.6295
  179SLPC  H14R20391   4.117   1.572   4.073 -3.5611  0.3228 -4.8891
  179SLPC  H14S20392   4.183   1.405   4.044  0.5402 -1.2382  0.8050
  179SLPC  C21520393   4.114   1.417   4.241 -0.4753  0.0379 -0.2404
  179SLPC  H15R20394   4.060   1.492   4.302 -0.3127  1.5833 -1.8680
  179SLPC  H15S20395   4.222   1.423   4.268  0.0785  0.5431 -2.3247
  179SLPC  C21620396   4.064   1.273   4.271  0.5644 -0.5512  0.0631
  179SLPC  H16R20397   4.073   1.207   4.183  0.7295  0.8188 -0.9771
  179SLPC  H16S20398   3.954   1.284   4.283  0.5575  0.4926 -0.8952
  179SLPC  C21720399   4.109   1.216   4.404  0.1015  0.4045  0.3958
  179SLPC  H17R20400   4.218   1.196   4.398  0.0249  0.3959 -1.6146
  179SLPC  H17S20401   4.057   1.118   4.401 -1.6145  1.3057 -0.3300
  179SLPC  C21820402   4.087   1.291   4.529 -0.2137 -0.0450  0.0812
  179SLPC  H18R20403   3.976   1.303   4.531 -0.2168 -0.1598  0.7097
  179SLPC  H18S20404   4.136   1.391   4.526  0.1355 -0.1638  1.4311
  179SLPC  H18T20405   4.113   1.230   4.618 -0.8268  0.0975  0.3646
  179SLPC   C3320406   4.940   1.421   3.372 -0.4781  0.3894  0.5107
  179SLPC   H3X20407   5.048   1.415   3.398 -0.8756  0.6374  2.3287
  179SLPC   H3Y20408   4.907   1.318   3.349  3.6228 -0.8112 -0.8691
  179SLPC   C3420409   4.895   1.475   3.504 -0.0359  0.1456 -0.0681
  179SLPC   H4X20410   4.784   1.465   3.500 -0.0768  0.0448  1.0498
  179SLPC   H4Y20411   4.935   1.577   3.518 -2.4813  1.3255 -1.1220
  179SLPC   C3520412   4.941   1.390   3.625  0.3092 -0.8999  0.2789
  179SLPC   H5X20413   4.897   1.289   3.610 -1.3048 -0.1778 -0.0145
  179SLPC   H5Y20414   5.052   1.394   3.622  0.2993  1.7748  0.7254
  179SLPC   C3620415   4.893   1.448   3.760 -0.1273  0.5757  0.6499
  179SLPC   H6X20416   4.785   1.426   3.770 -0.5097  2.1059  0.1799
  179SLPC   H6Y20417   4.912   1.557   3.745  2.6674  0.1036  0.2087
  179SLPC   C3720418   4.968   1.405   3.882  0.7884  0.5542  0.1960
  179SLPC   H7X20419   5.062   1.462   3.865 -0.0336  1.1680 -3.0068
  179SLPC   H7Y20420   4.987   1.297   3.899  0.0702  0.6704  1.9520
  179SLPC   C3820421   4.888   1.471   4.006 -0.6696  0.1903 -0.2445
  179SLPC   H8X20422   4.781   1.448   3.992 -0.9317  1.7984 -1.0631
  179SLPC   H8Y20423   4.908   1.579   3.989  3.7514 -0.2221  0.9151
  179SLPC   C3920424   4.940   1.420   4.139 -0.4877  0.8826 -0.4371
  179SLPC   H9X20425   4.938   1.309   4.138 -0.0848  0.8523  0.9525
  179SLPC   H9Y20426   4.871   1.457   4.218 -0.6539  0.0238 -0.1703
  179SLPC  C31020427   5.081   1.458   4.171  0.3460  0.5467  0.2039
  179SLPC  H10X20428   5.083   1.569   4.176  1.6289  0.5593 -0.2183
  179SLPC  H10Y20429   5.154   1.425   4.094 -0.0868  1.0251 -0.4179
  179SLPC  C31120430   5.117   1.416   4.325  0.5205 -0.2516  0.2004
  179SLPC  H11X20431   5.108   1.306   4.337 -1.4972  0.0023  1.5712
  179SLPC  H11Y20432   5.042   1.454   4.397 -0.4270 -2.0357  0.2139
  179SLPC  C31220433   5.253   1.482   4.373 -0.2286  0.2702  0.4576
  179SLPC  H12X20434   5.250   1.591   4.351  0.6727  0.0174 -1.0929
  179SLPC  H12Y20435   5.340   1.447   4.313 -0.2052  1.3407 -0.1751
  179SLPC  C31320436   5.277   1.471   4.525 -0.1909 -0.3809  0.6493
  179SLPC  H13X20437   5.243   1.367   4.544 -1.6536  0.0951  0.7051
  179SLPC  H13Y20438   5.226   1.549   4.587 -1.2328 -1.4982  1.2354
  179SLPC  C31420439   5.427   1.480   4.557 -0.2009  0.0512  0.4095
  179SLPC  H14X20440   5.455   1.573   4.503 -1.8467  0.0961 -0.4303
  179SLPC  H14Y20441   5.481   1.390   4.519  2.0643  0.9312  1.3485
  179SLPC  C31520442   5.467   1.472   4.710  0.3888  0.0546 -0.5750
  179SLPC  H15X20443   5.422   1.378   4.749  0.9764  0.0910  0.2058
  179SLPC  H15Y20444   5.411   1.549   4.767 -1.8907 -1.2665 -0.8567
  179SLPC  C31620445   5.616   1.488   4.740 -0.7285 -0.1231 -0.5726
  179SLPC  H16X20446   5.656   1.576   4.684  0.1099 -0.6535 -0.8118
  179SLPC  H16Y20447   5.681   1.399   4.728 -1.5756 -0.7147 -0.8361
  179SLPC  C31720448   5.633   1.527   4.894  0.1372 -0.2105  0.0502
  179SLPC  H17X20449   5.570   1.456   4.951 -0.4184  0.2178 -0.0290
  179SLPC  H17Y20450   5.583   1.624   4.913 -0.1087 -0.1353 -0.9237
  179SLPC  C31820451   5.780   1.548   4.948 -0.7161 -0.4480  0.0198
  179SLPC  H18X20452   5.838   1.453   4.946  1.9201  1.0683 -0.0216
  179SLPC  H18Y20453   5.781   1.589   5.051  2.2410 -1.1900  0.3802
  179SLPC  H18Z20454   5.834   1.627   4.892 -1.2807  0.0819  0.2138
  180SLPC     N20455   3.801   0.536   2.898  0.2490 -0.2348  0.6970
  180SLPC   C1320456   3.943   0.525   2.948  0.0375  0.5523  0.8632
  180SLPC  H13A20457   3.968   0.605   3.016 -2.6527  0.3766  2.2182
  180SLPC  H13B20458   3.962   0.430   2.995 -0.7205  1.3396  2.9141
  180SLPC  H13C20459   4.010   0.518   2.864  0.2310 -1.6045  1.1383
  180SLPC   C1420460   3.779   0.650   2.807 -0.1234  0.2317 -0.0692
  180SLPC  H14A20461   3.684   0.631   2.759  0.0240  0.2532 -0.3740
  180SLPC  H14B20462   3.776   0.749   2.850  0.6516 -0.0342  0.6215
  180SLPC  H14C20463   3.855   0.653   2.730 -0.6443  1.4394 -0.5727
  180SLPC   C1520464   3.708   0.555   3.014 -0.3224  0.1346 -0.1727
  180SLPC  H15A20465   3.612   0.569   2.967  0.4107  0.9778 -1.4621
  180SLPC  H15B20466   3.721   0.476   3.087 -1.3268  0.0922 -0.0231
  180SLPC  H15C20467   3.720   0.646   3.071 -0.9646 -1.4061  2.6602
  180SLPC   C1220468   3.773   0.402   2.819 -0.9928  0.0448 -0.8395
  180SLPC  H12A20469   3.779   0.317   2.885  0.7690  0.8064  0.0643
  180SLPC  H12B20470   3.847   0.393   2.741  0.4782  1.2128  0.3602
  180SLPC   C1120471   3.631   0.390   2.761 -0.0964 -0.5303 -0.2854
  180SLPC  H11A20472   3.634   0.309   2.685 -0.8596 -0.2630 -0.6123
  180SLPC  H11B20473   3.603   0.485   2.711 -0.7440  0.1708  1.3378
  180SLPC     P20474   3.384   0.386   2.847  0.0252 -0.3990 -0.1250
  180SLPC   O1320475   3.370   0.529   2.826  0.1258 -0.1062 -0.0706
  180SLPC   O1420476   3.324   0.292   2.754 -0.1551 -0.2473 -0.1119
  180SLPC   O1220477   3.536   0.352   2.864 -0.1385  0.0229  0.6381
  180SLPC   O1120478   3.332   0.350   2.994 -0.2230  0.2839  0.6581
  180SLPC    C120479   3.331   0.215   3.038 -0.0787  0.3818  0.5767
  180SLPC    HA20480   3.224   0.194   3.059  0.3788 -0.6930  1.9970
  180SLPC    HB20481   3.373   0.143   2.965  0.1356 -0.6005  1.6419
  180SLPC    C220482   3.418   0.188   3.166 -0.4882  0.1246  0.6296
  180SLPC    HS20483   3.416   0.079   3.187  0.1464 -0.0717 -0.2559
  180SLPC   O2120484   3.392   0.275   3.277 -0.0290  0.5178  0.3039
  180SLPC   C2120485   3.272   0.258   3.322 -0.8990 -0.7810 -0.3083
  180SLPC   O2220486   3.198   0.164   3.294  0.1636 -0.2297  0.0677
  180SLPC   C2220487   3.231   0.376   3.420 -0.3590  0.6568 -0.3951
  180SLPC   H2R20488   3.324   0.409   3.472  0.4935 -2.0203 -0.0502
  180SLPC   H2S20489   3.191   0.458   3.356 -1.3612  0.3760 -0.1344
  180SLPC    C320490   3.565   0.223   3.126  0.9880  0.5343  0.5658
  180SLPC    HX20491   3.560   0.330   3.096  0.5637 -0.1577 -2.1589
  180SLPC    HY20492   3.579   0.168   3.030 -0.3726  1.5186 -0.2313
  180SLPC   O3120493   3.659   0.182   3.224 -0.2114  0.0876  0.1118
  180SLPC   C3120494   3.722   0.273   3.295 -0.8272  0.3375 -0.5711
  180SLPC   O3220495   3.718   0.395   3.284 -0.2228  0.3701 -0.2873
  180SLPC   C3220496   3.809   0.201   3.393 -0.4423  0.6515  0.0152
  180SLPC   H2X20497   3.883   0.142   3.335  0.2291 -0.1667  1.6334
  180SLPC   H2Y20498   3.737   0.132   3.442 -2.7579  1.3677 -2.2080
  180SLPC   C2320499   3.136   0.327   3.537 -0.0603  0.8957  0.3712
  180SLPC   H3R20500   3.160   0.224   3.573 -0.6312  0.9782  1.0254
  180SLPC   H3S20501   3.035   0.315   3.492 -0.6433  1.6543  1.4178
  180SLPC   C2420502   3.126   0.441   3.639  1.5749  1.0317 -0.3486
  180SLPC   H4R20503   3.098   0.534   3.585 -1.7814 -0.5852 -1.6941
  180SLPC   H4S20504   3.224   0.459   3.689  0.8825  0.0808  1.4299
  180SLPC   C2520505   3.016   0.397   3.746  0.4417  0.2355  0.1427
  180SLPC   H5R20506   3.049   0.301   3.790  0.0287  0.0350  0.0256
  180SLPC   H5S20507   2.920   0.366   3.698  1.4707 -2.0336 -0.5847
  180SLPC   C2620508   2.993   0.491   3.865 -0.1547  0.1491  0.0476
  180SLPC   H6R20509   2.966   0.591   3.826 -1.5084  0.1077  0.8420
  180SLPC   H6S20510   3.093   0.496   3.914  0.9250 -1.1106 -1.9141
  180SLPC   C2720511   2.903   0.435   3.967 -0.0754  0.0799  0.2926
  180SLPC   H7R20512   2.944   0.353   4.029 -0.4111  1.2526  2.1485
  180SLPC   H7S20513   2.813   0.396   3.915  0.3893 -0.3521 -0.1965
  180SLPC   C2820514   2.851   0.543   4.060  0.3086 -0.1921  0.6312
  180SLPC   H8R20515   2.843   0.633   3.997  2.1208 -1.3491 -1.4079
  180SLPC   H8S20516   2.932   0.574   4.130  0.9208 -0.3977  0.0315
  180SLPC   C2920517   2.717   0.503   4.114 -0.2200 -0.0378  0.8304
  180SLPC   H9R20518   2.644   0.485   4.034  1.7081  1.0481 -1.2630
  180SLPC  C21020519   2.684   0.474   4.239 -0.1174 -0.1580 -0.1451
  180SLPC  H10R20520   2.579   0.454   4.266 -0.0156  1.6403  1.7614
  180SLPC  C21120521   2.774   0.496   4.362  0.1460 -0.3244 -0.3253
  180SLPC  H11R20522   2.870   0.541   4.329 -0.6172  1.4953 -0.2351
  180SLPC  H11S20523   2.796   0.398   4.408 -1.0112 -0.2838  0.3718
  180SLPC  C21220524   2.731   0.596   4.468 -0.2543  0.1001  0.2157
  180SLPC  H12R20525   2.652   0.665   4.437  1.2603  1.6815 -0.3008
  180SLPC  C21320526   2.794   0.599   4.590  0.7987  0.6520 -0.2768
  180SLPC  H13R20527   2.755   0.661   4.672  1.4132  2.0736 -1.0191
  180SLPC  C21420528   2.912   0.514   4.634  0.4242  0.7927  0.0488
  180SLPC  H14R20529   2.995   0.578   4.671 -0.3278  1.2019  1.1123
  180SLPC  H14S20530   2.950   0.446   4.556 -1.2520 -0.0902 -0.0590
  180SLPC  C21520531   2.881   0.422   4.755  0.3501  0.0521 -0.7138
  180SLPC  H15R20532   2.959   0.346   4.776  0.6197  0.7367  0.9179
  180SLPC  H15S20533   2.789   0.364   4.731  0.9562 -0.9459 -0.6937
  180SLPC  C21620534   2.853   0.496   4.886  0.2878 -0.5675 -0.8736
  180SLPC  H16R20535   2.745   0.520   4.873 -0.0155 -0.9973  0.6367
  180SLPC  H16S20536   2.904   0.595   4.889 -3.3252  1.4514 -0.3492
  180SLPC  C21720537   2.870   0.426   5.018 -0.3540 -0.2726  0.3348
  180SLPC  H17R20538   2.972   0.386   5.039  0.2423  1.5470  1.1264
  180SLPC  H17S20539   2.800   0.341   5.023 -0.3526 -0.2786  0.2638
  180SLPC  C21820540   2.845   0.517   5.140  0.5079 -0.7170  0.6805
  180SLPC  H18R20541   2.749   0.573   5.134  1.2993  0.6237  0.1544
  180SLPC  H18S20542   2.927   0.592   5.137 -0.6709  0.6026 -0.6324
  180SLPC  H18T20543   2.868   0.471   5.238 -0.9644  0.4076  1.5864
  180SLPC   C3320544   3.902   0.295   3.474  0.6160 -0.3827  0.0996
  180SLPC   H3X20545   3.853   0.380   3.528  2.5516 -0.5512  2.2810
  180SLPC   H3Y20546   3.974   0.340   3.402  0.3766  1.3722  0.9030
  180SLPC   C3420547   3.991   0.237   3.587 -0.1247 -0.0179  0.0185
  180SLPC   H4X20548   4.062   0.319   3.606  0.4056  0.4304 -3.2270
  180SLPC   H4Y20549   4.036   0.157   3.523  0.3337  1.0490 -1.0198
  180SLPC   C3520550   3.919   0.177   3.705  0.1595  0.1787  0.3050
  180SLPC   H5X20551   3.992   0.106   3.751 -1.5526 -0.6872  1.8111
  180SLPC   H5Y20552   3.835   0.112   3.671 -0.1658  1.9706 -2.6930
  180SLPC   C3620553   3.857   0.271   3.811  0.0418  0.0694 -0.3450
  180SLPC   H6X20554   3.784   0.334   3.756  1.6641  2.7083  0.3109
  180SLPC   H6Y20555   3.940   0.340   3.839 -0.6583  0.6923  0.2151
  180SLPC   C3720556   3.808   0.193   3.933 -1.0780  0.9339 -0.1327
  180SLPC   H7X20557   3.894   0.135   3.973 -0.3125  1.3590 -1.1289
  180SLPC   H7Y20558   3.727   0.123   3.904 -1.0741  1.0887 -0.5260
  180SLPC   C3820559   3.762   0.272   4.054 -0.0530  0.3946  0.8212
  180SLPC   H8X20560   3.684   0.337   4.007 -1.5511 -2.2740 -0.6130
  180SLPC   H8Y20561   3.847   0.330   4.094  0.8510 -1.7873  2.1755
  180SLPC   C3920562   3.684   0.201   4.168 -1.1477 -0.3392  0.1693
  180SLPC   H9X20563   3.757   0.150   4.234 -0.0296  2.2805  1.1091
  180SLPC   H9Y20564   3.620   0.133   4.108  2.4687 -3.9072 -0.1160
  180SLPC  C31020565   3.593   0.303   4.239  0.7132  0.3455  0.0994
  180SLPC  H10X20566   3.510   0.328   4.169  0.4218 -1.1016 -0.0971
  180SLPC  H10Y20567   3.654   0.387   4.276  1.0004  0.3266 -0.3172
  180SLPC  C31120568   3.525   0.234   4.359  0.8563 -0.1634 -0.7789
  180SLPC  H11X20569   3.595   0.203   4.439  0.8483  0.3557 -0.5627
  180SLPC  H11Y20570   3.479   0.142   4.318 -0.5381  0.4162 -0.5979
  180SLPC  C31220571   3.417   0.322   4.417  0.4487 -0.3896  0.4728
  180SLPC  H12X20572   3.318   0.274   4.434 -1.5937  3.1391 -0.3659
  180SLPC  H12Y20573   3.381   0.402   4.348  0.6297  0.6273  1.5220
  180SLPC  C31320574   3.453   0.381   4.559  0.1116  0.0250 -0.0531
  180SLPC  H13X20575   3.539   0.447   4.535 -0.3491 -0.1152 -2.3426
  180SLPC  H13Y20576   3.486   0.297   4.624  0.6202 -0.4203 -0.8754
  180SLPC  C31420577   3.337   0.454   4.616 -0.0553 -0.9446 -0.0079
  180SLPC  H14X20578   3.252   0.383   4.615 -0.8885 -0.1178  2.6717
  180SLPC  H14Y20579   3.308   0.532   4.542  1.2438 -1.9187 -1.6222
  180SLPC  C31520580   3.341   0.514   4.756  0.4429  0.3701 -0.5891
  180SLPC  H15X20581   3.276   0.603   4.773 -0.8762 -0.7321  0.2897
  180SLPC  H15Y20582   3.447   0.537   4.780  0.9953 -3.5729  1.6343
  180SLPC  C31620583   3.298   0.419   4.869 -0.5105 -0.1548 -0.2661
  180SLPC  H16X20584   3.372   0.338   4.853  2.1660  2.0340  0.2513
  180SLPC  H16Y20585   3.204   0.367   4.841  0.4472 -1.4977 -1.0988
  180SLPC  C31720586   3.310   0.477   5.012 -0.6834  0.4650  0.1588
  180SLPC  H17X20587   3.240   0.563   5.020 -0.0937  0.8007  2.3582
  180SLPC  H17Y20588   3.412   0.516   5.033  0.2167 -0.5422 -2.0625
  180SLPC  C31820589   3.274   0.378   5.124 -0.3306  0.5361 -0.4154
  180SLPC  H18X20590   3.338   0.287   5.119  0.3409  1.0560 -1.7989
  180SLPC  H18Y20591   3.169   0.344   5.112 -0.5511  1.2215 -0.4365
  180SLPC  H18Z20592   3.287   0.405   5.231  0.4835 -2.2584  0.2837
  181SLPC     N20593   4.088   6.400   2.523  0.2386 -0.6298  0.6690
  181SLPC   C1320594   4.161   6.501   2.438  0.1973 -0.0017 -0.0249
  181SLPC  H13A20595   4.252   6.466   2.393  0.0968  0.7307 -0.8337
  181SLPC  H13B20596   4.102   6.531   2.352  1.6322  0.3436 -0.9249
  181SLPC  H13C20597   4.179   6.587   2.501  2.7446  0.6075 -1.4393
  181SLPC   C1420598   4.178   6.372   2.643  0.7522  0.2422 -0.0628
  181SLPC  H14A20599   4.268   6.336   2.595 -0.6504 -1.3044 -1.6781
  181SLPC  H14B20600   4.190   6.463   2.699 -0.0277  0.5852 -0.4379
  181SLPC  H14C20601   4.130   6.302   2.709 -0.1436  1.3586  0.4994
  181SLPC   C1520602   4.060   6.267   2.447  0.4401 -0.6534  0.2061
  181SLPC  H15A20603   3.954   6.251   2.437  0.9417 -3.1508 -2.3620
  181SLPC  H15B20604   4.104   6.256   2.349  2.2039 -0.4589  0.9357
  181SLPC  H15C20605   4.090   6.184   2.509 -4.2447  0.2907  4.3463
  181SLPC   C1220606   3.958   6.467   2.567 -0.1429 -0.0477 -0.5337
  181SLPC  H12A20607   3.888   6.480   2.486 -1.3294  1.1963  0.6348
  181SLPC  H12B20608   3.975   6.570   2.595 -1.6162 -0.0638  0.5430
  181SLPC   C1120609   3.876   6.415   2.687  0.4341 -0.3060 -0.0170
  181SLPC  H11A20610   3.933   6.415   2.782  1.3244 -0.7862 -0.5332
  181SLPC  H11B20611   3.885   6.306   2.669  2.6536 -1.0157  4.2194
  181SLPC     P20612   3.659   6.484   2.818  0.2497  0.0295  0.1264
  181SLPC   O1320613   3.595   6.618   2.816  0.8247 -0.1353 -0.4915
  181SLPC   O1420614   3.580   6.360   2.822  0.4937 -0.2059  0.6318
  181SLPC   O1220615   3.742   6.476   2.683 -0.4526  0.8111 -0.6378
  181SLPC   O1120616   3.772   6.481   2.932 -0.1712 -0.3465  0.6200
  181SLPC    C120617   3.724   6.518   3.066  0.3731 -0.0071  0.0842
  181SLPC    HA20618   3.661   6.609   3.073  0.6568  0.1298  1.0150
  181SLPC    HB20619   3.662   6.438   3.111 -1.9625  1.0306 -1.1542
  181SLPC    C220620   3.846   6.531   3.165  1.1237  0.6746 -0.1189
  181SLPC    HS20621   3.903   6.436   3.157 -0.2013 -0.3440  1.6881
  181SLPC   O2120622   3.788   6.553   3.299  0.7094  0.2309  0.1350
  181SLPC   C2120623   3.858   6.491   3.396 -0.0922  0.0562  0.6632
  181SLPC   O2220624   3.939   6.405   3.372 -0.2863 -0.1791  0.4541
  181SLPC   C2220625   3.831   6.530   3.537  0.4702  0.6693 -0.4290
  181SLPC   H2R20626   3.837   6.641   3.527  2.7051  0.4883 -1.7415
  181SLPC   H2S20627   3.729   6.490   3.554  0.8594 -0.6756 -1.1068
  181SLPC    C320628   3.942   6.652   3.125  0.6668  0.6426  0.7444
  181SLPC    HX20629   3.878   6.743   3.119 -0.1003  0.0697 -0.0206
  181SLPC    HY20630   3.981   6.638   3.023 -0.6423 -0.9466  0.4220
  181SLPC   O3120631   4.038   6.686   3.229 -0.5575 -0.0788 -0.1979
  181SLPC   C3120632   4.165   6.664   3.207 -0.2409 -1.0336  0.1654
  181SLPC   O3220633   4.215   6.602   3.113  0.3722 -0.4340 -0.0858
  181SLPC   C3220634   4.241   6.716   3.333  0.1430  0.5662  0.2512
  181SLPC   H2X20635   4.182   6.794   3.384  0.3777  0.1497  1.1874
  181SLPC   H2Y20636   4.332   6.768   3.296 -1.0297  2.9940  0.5946
  181SLPC   C2320637   3.926   6.457   3.643 -0.1033  0.3865  0.0639
  181SLPC   H3R20638   4.028   6.495   3.620  0.2321 -0.4451  0.1570
  181SLPC   H3S20639   3.924   6.348   3.622  1.9833 -0.0326  1.7318
  181SLPC   C2420640   3.887   6.477   3.795 -0.3767 -0.1218 -0.3772
  181SLPC   H4R20641   3.777   6.469   3.803 -0.4588  0.3574 -0.9320
  181SLPC   H4S20642   3.915   6.580   3.827  1.6850 -0.7537 -0.0343
  181SLPC   C2520643   3.958   6.391   3.901  0.3387 -0.2628  0.2257
  181SLPC   H5R20644   4.067   6.387   3.880  0.4868 -0.6730  1.0157
  181SLPC   H5S20645   3.919   6.287   3.889  0.0841 -0.2236  0.6567
  181SLPC   C2620646   3.934   6.447   4.046  0.3233  0.8002  0.0253
  181SLPC   H6R20647   3.986   6.545   4.053  1.3110  0.4357 -1.6754
  181SLPC   H6S20648   3.982   6.377   4.118  1.0429  0.7049 -0.5308
  181SLPC   C2720649   3.777   6.455   4.072  0.2501  0.3021  0.4485
  181SLPC   H7R20650   3.738   6.351   4.076  1.1006 -0.0035  1.1407
  181SLPC   H7S20651   3.729   6.513   3.990  0.6823  1.3620  0.9324
  181SLPC   C2820652   3.742   6.526   4.202  0.1518  1.0555  0.1310
  181SLPC   H8R20653   3.632   6.528   4.218  0.3529  0.0324  1.9924
  181SLPC   H8S20654   3.786   6.628   4.214  0.5349  0.9297 -0.1702
  181SLPC   C2920655   3.789   6.430   4.310 -0.0711 -0.5115 -0.0764
  181SLPC   H9R20656   3.854   6.349   4.273  1.6584  0.2698  1.1303
  181SLPC  C21020657   3.787   6.452   4.442  0.3773 -0.2759  0.6299
  181SLPC  H10R20658   3.810   6.375   4.517  1.1296  1.4608  2.2694
  181SLPC  C21120659   3.733   6.569   4.517  0.1993 -0.0624 -0.1868
  181SLPC  H11R20660   3.744   6.662   4.457  0.8299  0.8696  1.2959
  181SLPC  H11S20661   3.783   6.584   4.615 -1.0441 -1.5925  0.7285
  181SLPC  C21220662   3.589   6.548   4.535 -0.1983  0.1746  0.4030
  181SLPC  H12R20663   3.536   6.523   4.441 -1.0137  1.4213  0.4984
  181SLPC  C21320664   3.517   6.554   4.649  0.2116  0.8333  0.5987
  181SLPC  H13R20665   3.409   6.546   4.632  0.4672  1.9279 -1.8852
  181SLPC  C21420666   3.565   6.593   4.787 -0.0268  0.2293 -0.3999
  181SLPC  H14R20667   3.645   6.669   4.775 -0.1407  0.2334 -1.1881
  181SLPC  H14S20668   3.598   6.504   4.846 -0.5817 -0.8174 -1.6212
  181SLPC  C21520669   3.452   6.656   4.871  0.6326  0.2201 -0.0354
  181SLPC  H15R20670   3.377   6.575   4.887  0.9045 -0.2536 -1.0893
  181SLPC  H15S20671   3.416   6.740   4.808  2.8104 -0.1412 -1.8720
  181SLPC  C21620672   3.514   6.696   5.002  0.2081 -0.2405 -0.9708
  181SLPC  H16R20673   3.584   6.782   4.992  0.5629 -0.5294 -0.9638
  181SLPC  H16S20674   3.565   6.610   5.049  1.9829  2.0929  1.6564
  181SLPC  C21720675   3.416   6.736   5.115  0.1354 -0.2434  0.1967
  181SLPC  H17R20676   3.353   6.646   5.135 -0.6815  0.7425  2.3887
  181SLPC  H17S20677   3.349   6.815   5.075  0.8707 -0.2291 -1.0481
  181SLPC  C21820678   3.495   6.776   5.243 -0.5316 -0.3852  0.0914
  181SLPC  H18R20679   3.565   6.696   5.275 -1.0205  0.3005  3.2166
  181SLPC  H18S20680   3.431   6.806   5.329  0.0124  0.8881  0.0730
  181SLPC  H18T20681   3.565   6.859   5.219 -0.3586 -0.7333 -0.6281
  181SLPC   C3320682   4.271   6.599   3.427  0.3083 -0.1846 -0.6044
  181SLPC   H3X20683   4.357   6.537   3.394 -0.2083 -0.7605 -0.8996
  181SLPC   H3Y20684   4.181   6.537   3.445  0.2434 -0.0103 -0.3158
  181SLPC   C3420685   4.309   6.662   3.562 -0.5267 -0.6750 -0.1807
  181SLPC   H4X20686   4.225   6.719   3.608  0.4098  3.2248 -2.7883
  181SLPC   H4Y20687   4.394   6.734   3.556 -1.7848  0.7332 -2.2180
  181SLPC   C3520688   4.347   6.553   3.667 -0.4779 -0.5577  0.6392
  181SLPC   H5X20689   4.436   6.505   3.621 -1.8037 -3.2257  0.6794
  181SLPC   H5Y20690   4.274   6.469   3.664 -1.6788  0.4875 -1.3184
  181SLPC   C3620691   4.371   6.605   3.810 -0.2053  0.1775  0.4327
  181SLPC   H6X20692   4.459   6.671   3.822  1.7910 -2.6700  3.1549
  181SLPC   H6Y20693   4.396   6.519   3.875  0.3859  1.0072  1.3212
  181SLPC   C3720694   4.254   6.672   3.876 -0.2872  0.0577  0.3087
  181SLPC   H7X20695   4.167   6.603   3.861 -0.6707  1.1336 -3.3976
  181SLPC   H7Y20696   4.233   6.765   3.820  1.3651  0.2596 -0.0182
  181SLPC   C3820697   4.285   6.698   4.024  0.0599 -0.3666 -0.6529
  181SLPC   H8X20698   4.388   6.731   4.052  0.0841 -1.0166  0.0744
  181SLPC   H8Y20699   4.279   6.597   4.069  2.0755  0.1453  0.9083
  181SLPC   C3920700   4.182   6.776   4.105  0.4802 -0.6029 -0.5000
  181SLPC   H9X20701   4.079   6.765   4.065 -0.1458  0.1419  0.8244
  181SLPC   H9Y20702   4.210   6.882   4.083  1.5663 -0.6296  0.6671
  181SLPC  C31020703   4.182   6.737   4.256  0.3958  0.0794 -0.5123
  181SLPC  H10X20704   4.280   6.777   4.291  0.4504  0.4899 -1.1107
  181SLPC  H10Y20705   4.177   6.627   4.267 -0.7940  0.1974  0.2170
  181SLPC  C31120706   4.065   6.793   4.341  0.3084 -0.0860  0.5123
  181SLPC  H11X20707   4.105   6.786   4.444  2.2826  2.3997  0.0229
  181SLPC  H11Y20708   3.980   6.722   4.327  0.9914 -0.9887  0.8713
  181SLPC  C31220709   4.047   6.943   4.319 -0.5108  0.0010  0.2509
  181SLPC  H12X20710   4.016   6.960   4.214  2.0211  1.8753 -0.2919
  181SLPC  H12Y20711   4.145   6.990   4.344  0.0407 -1.6252  1.2862
  181SLPC  C31320712   3.946   7.018   4.408 -0.4530  0.0766  0.3409
  181SLPC  H13X20713   3.850   6.962   4.414 -0.8380  0.1770 -3.0024
  181SLPC  H13Y20714   3.914   7.112   4.359 -1.5208 -0.3630  0.1657
  181SLPC  C31420715   4.008   7.051   4.549  0.4532 -0.1098  0.6362
  181SLPC  H14X20716   4.098   7.115   4.541  0.8946 -0.8280 -0.4054
  181SLPC  H14Y20717   4.029   6.948   4.584  1.7203 -0.2159 -0.3582
  181SLPC  C31520718   3.904   7.113   4.641  0.1349 -0.1579  0.2596
  181SLPC  H15X20719   3.829   7.034   4.665 -0.8046  0.2030 -1.3325
  181SLPC  H15Y20720   3.848   7.188   4.582  1.0808 -2.0088 -3.2377
  181SLPC  C31620721   3.961   7.157   4.787  0.6764 -0.3530 -0.4802
  181SLPC  H16X20722   4.053   7.217   4.768 -0.4562  1.8317  0.5556
  181SLPC  H16Y20723   3.994   7.062   4.834  0.4068 -0.6339 -0.8516
  181SLPC  C31720724   3.847   7.229   4.868  0.7731 -0.1293  0.1995
  181SLPC  H17X20725   3.848   7.326   4.814  1.4492 -1.2858 -1.9837
  181SLPC  H17Y20726   3.892   7.252   4.967  0.2398  0.7242  0.2556
  181SLPC  C31820727   3.716   7.161   4.896 -0.5846  0.0960 -0.3649
  181SLPC  H18X20728   3.748   7.077   4.960  1.3306  1.6839  0.8987
  181SLPC  H18Y20729   3.670   7.111   4.808 -0.5911 -0.9583  0.2234
  181SLPC  H18Z20730   3.649   7.215   4.966 -1.3590 -1.3133  0.0204
  182SLPC     N20731   6.086   6.259   2.706  0.1392  0.2637  0.3708
  182SLPC   C1320732   6.196   6.263   2.599  0.2246 -0.2419  0.0837
  182SLPC  H13A20733   6.240   6.361   2.588 -0.2224 -0.1615 -1.1434
  182SLPC  H13B20734   6.268   6.188   2.628 -0.8125 -0.8314  1.2409
  182SLPC  H13C20735   6.157   6.224   2.506  2.1758 -0.7850 -0.5454
  182SLPC   C1420736   6.073   6.116   2.723  0.2525 -0.2629  0.2906
  182SLPC  H14A20737   6.046   6.077   2.626  1.3457  0.3386 -0.2714
  182SLPC  H14B20738   6.169   6.077   2.753  0.7145 -0.2098 -1.0651
  182SLPC  H14C20739   6.005   6.084   2.801 -1.5986  0.2038 -1.0586
  182SLPC   C1520740   5.963   6.311   2.653 -0.2262  0.8455  0.4555
  182SLPC  H15A20741   5.931   6.265   2.560  0.1357  1.4471  0.0257
  182SLPC  H15B20742   5.886   6.310   2.728 -2.3811  1.7879 -1.6311
  182SLPC  H15C20743   5.969   6.414   2.620  2.3288  1.2055  1.8188
  182SLPC   C1220744   6.135   6.327   2.831 -0.1737  0.3151  0.5737
  182SLPC  H12A20745   6.230   6.289   2.866 -0.7521 -1.3604  0.4071
  182SLPC  H12B20746   6.063   6.314   2.910 -1.3832 -0.4136 -0.6106
  182SLPC   C1120747   6.154   6.485   2.832 -0.1688  0.5018  0.2510
  182SLPC  H11A20748   6.184   6.514   2.935 -0.4001  0.0393  0.4547
  182SLPC  H11B20749   6.056   6.534   2.816  0.0563  0.9247  0.1713
  182SLPC     P20750   6.400   6.514   2.774 -0.2019  0.0442 -0.0097
  182SLPC   O1320751   6.413   6.380   2.838  0.2630 -0.4250  0.4150
  182SLPC   O1420752   6.484   6.542   2.656  0.6588  0.4172 -0.5722
  182SLPC   O1220753   6.247   6.529   2.728 -0.0538  0.2270 -0.5161
  182SLPC   O1120754   6.409   6.632   2.876  0.1412  0.2932 -0.4124
  182SLPC    C120755   6.362   6.768   2.852  0.0645  0.6197  0.0136
  182SLPC    HA20756   6.371   6.793   2.744  2.3471 -1.9425 -0.4967
  182SLPC    HB20757   6.251   6.770   2.861 -0.3169 -0.4456 -3.1040
  182SLPC    C220758   6.440   6.881   2.927  0.0790 -0.3567  0.0144
  182SLPC    HS20759   6.529   6.898   2.863 -0.3465  1.2894 -0.1728
  182SLPC   O2120760   6.456   6.837   3.064 -0.3830  0.2857  0.0840
  182SLPC   C2120761   6.571   6.773   3.091 -0.8984  0.4336  0.6214
  182SLPC   O2220762   6.667   6.761   3.019 -0.1602  0.4865 -0.1824
  182SLPC   C2220763   6.573   6.742   3.238 -0.1769 -0.6747 -0.0166
  182SLPC   H2R20764   6.615   6.640   3.251  2.2845  0.2897  0.2077
  182SLPC   H2S20765   6.653   6.806   3.281 -0.3488 -1.3180  1.3247
  182SLPC    C320766   6.344   6.999   2.925  0.4238  0.0266 -0.5604
  182SLPC    HX20767   6.251   6.959   2.971 -0.4752 -0.0778 -2.3993
  182SLPC    HY20768   6.334   7.028   2.819  0.7670 -0.3190 -0.6862
  182SLPC   O3120769   6.401   7.100   3.009 -0.3256 -0.3357 -0.7198
  182SLPC   C3120770   6.332   7.212   3.007  0.2539  0.6058 -1.3872
  182SLPC   O3220771   6.236   7.230   2.931 -0.2119 -0.6649 -0.4912
  182SLPC   C3220772   6.393   7.312   3.105  0.1327  0.1033 -0.5294
  182SLPC   H2X20773   6.324   7.396   3.085 -1.0175 -1.0201 -1.4559
  182SLPC   H2Y20774   6.495   7.338   3.069 -0.0338  1.7610  0.0970
  182SLPC   C2320775   6.437   6.770   3.315 -0.4279 -0.1701  0.7754
  182SLPC   H3R20776   6.356   6.708   3.271 -1.3479  2.0922 -0.9550
  182SLPC   H3S20777   6.411   6.878   3.306  0.3815  0.0600  1.1384
  182SLPC   C2420778   6.440   6.730   3.467 -0.1945 -0.6408 -0.0142
  182SLPC   H4R20779   6.533   6.753   3.522  0.0373  0.5371 -0.8510
  182SLPC   H4S20780   6.418   6.621   3.460 -0.1198 -0.6166 -0.8273
  182SLPC   C2520781   6.307   6.779   3.523  0.3640  0.3196 -0.2029
  182SLPC   H5R20782   6.228   6.797   3.449  1.5184  2.5545 -0.9762
  182SLPC   H5S20783   6.335   6.877   3.567 -0.5248  0.3729  0.2566
  182SLPC   C2620784   6.259   6.682   3.630 -0.3190  0.1368  0.1162
  182SLPC   H6R20785   6.337   6.664   3.707  0.1858  0.9934 -0.1806
  182SLPC   H6S20786   6.237   6.598   3.561  0.5867  1.3528 -1.7472
  182SLPC   C2720787   6.126   6.709   3.696  0.4592  0.3258  0.6065
  182SLPC   H7R20788   6.092   6.618   3.751  1.5407  0.1669  1.0189
  182SLPC   H7S20789   6.054   6.738   3.616  1.4735 -1.4711 -1.0350
  182SLPC   C2820790   6.132   6.826   3.805 -0.2075  0.1757  0.0019
  182SLPC   H8R20791   6.144   6.928   3.763  1.2912 -0.1253 -0.3616
  182SLPC   H8S20792   6.224   6.799   3.859 -1.6779 -2.0380  1.5808
  182SLPC   C2920793   6.029   6.834   3.912 -0.3596  0.4650  1.0779
  182SLPC   H9R20794   5.925   6.848   3.878 -0.2480  2.0971  1.3107
  182SLPC  C21020795   6.049   6.825   4.046  0.1200 -0.2001  0.1935
  182SLPC  H10R20796   5.951   6.816   4.097 -0.4619 -0.8568 -0.9814
  182SLPC  C21120797   6.172   6.832   4.130 -0.8139  0.0373 -0.4716
  182SLPC  H11R20798   6.226   6.737   4.106  2.1811  1.3643  0.5770
  182SLPC  H11S20799   6.144   6.823   4.237  2.5339 -0.0239  0.5207
  182SLPC  C21220800   6.261   6.953   4.112  0.0648 -0.5422 -0.5001
  182SLPC  H12R20801   6.321   6.947   4.020  1.9882  2.6386  0.4012
  182SLPC  C21320802   6.272   7.061   4.193  0.4826  0.2071 -0.3932
  182SLPC  H13R20803   6.345   7.141   4.173 -0.3426  1.7369  2.2608
  182SLPC  C21420804   6.185   7.089   4.319  0.4627  0.7514  0.7031
  182SLPC  H14R20805   6.103   7.014   4.320  0.4141  0.7593 -0.6184
  182SLPC  H14S20806   6.126   7.183   4.308  0.0983  0.6852  1.9664
  182SLPC  C21520807   6.244   7.085   4.460 -0.7301 -0.3379  0.0404
  182SLPC  H15R20808   6.324   7.161   4.466  0.1856 -1.1979 -0.8864
  182SLPC  H15S20809   6.295   6.990   4.485  2.3932  1.1692 -0.0832
  182SLPC  C21620810   6.138   7.115   4.566 -0.4360 -0.1904  0.0684
  182SLPC  H16R20811   6.058   7.038   4.563 -0.1416 -0.4977  0.1424
  182SLPC  H16S20812   6.091   7.207   4.524 -1.0507 -0.7228 -0.4204
  182SLPC  C21720813   6.205   7.141   4.698  0.2332 -0.0438 -0.1757
  182SLPC  H17R20814   6.267   7.233   4.697 -0.0091  0.1766  1.8858
  182SLPC  H17S20815   6.283   7.063   4.715  0.6763  0.5808  0.7459
  182SLPC  C21820816   6.111   7.161   4.815 -0.2053 -0.3230  0.8464
  182SLPC  H18R20817   6.159   7.204   4.905  0.9547 -2.4567  1.3149
  182SLPC  H18S20818   6.060   7.067   4.845 -1.2709 -0.0718 -0.0778
  182SLPC  H18T20819   6.028   7.230   4.787 -0.0630 -0.1362  0.8849
  182SLPC   C3320820   6.384   7.267   3.253  0.8127  0.3779  0.0011
  182SLPC   H3X20821   6.298   7.197   3.258 -0.0550  1.3799 -0.5661
  182SLPC   H3Y20822   6.355   7.356   3.311 -0.1132 -0.1356  0.3405
  182SLPC   C3420823   6.506   7.201   3.317  0.2500  0.8784 -0.2476
  182SLPC   H4X20824   6.589   7.274   3.319 -0.2397  1.4568 -0.7642
  182SLPC   H4Y20825   6.527   7.105   3.264 -2.2428 -0.2529  0.6438
  182SLPC   C3520826   6.459   7.148   3.461  0.3873 -0.3421 -0.0403
  182SLPC   H5X20827   6.363   7.094   3.447 -1.6294  3.1280 -0.8963
  182SLPC   H5Y20828   6.434   7.242   3.515  3.5392 -0.6341  2.1736
  182SLPC   C3620829   6.573   7.072   3.528 -0.1374  0.5860 -0.6620
  182SLPC   H6X20830   6.671   7.119   3.504  0.0754  0.7156  0.3971
  182SLPC   H6Y20831   6.580   6.973   3.479  1.1641  0.3659 -0.0965
  182SLPC   C3720832   6.545   7.043   3.678 -0.2441  0.2786 -0.1841
  182SLPC   H7X20833   6.643   7.007   3.717 -0.1807  0.3031 -0.3173
  182SLPC   H7Y20834   6.461   6.972   3.674  2.0384 -2.8292  2.0676
  182SLPC   C3820835   6.486   7.160   3.756  0.3416 -0.8368 -0.2402
  182SLPC   H8X20836   6.455   7.118   3.854 -4.8855  0.0893 -1.2344
  182SLPC   H8Y20837   6.390   7.190   3.708  0.9090  2.6428  0.4978
  182SLPC   C3920838   6.588   7.277   3.774  0.2033 -0.2542 -0.3093
  182SLPC   H9X20839   6.615   7.322   3.676  1.5687 -2.4324 -1.0155
  182SLPC   H9Y20840   6.684   7.227   3.803  0.9593  0.7939 -0.9274
  182SLPC  C31020841   6.553   7.375   3.884 -0.2237  0.9948  0.3115
  182SLPC  H10X20842   6.444   7.397   3.885 -0.4178  0.0882  1.6178
  182SLPC  H10Y20843   6.610   7.469   3.868 -0.0552  0.6739 -1.0829
  182SLPC  C31120844   6.589   7.318   4.019  0.0923 -0.2237 -0.6746
  182SLPC  H11X20845   6.697   7.296   4.034  0.0809 -0.3598 -0.8009
  182SLPC  H11Y20846   6.537   7.220   4.019 -1.6543  0.6642 -0.8611
  182SLPC  C31220847   6.550   7.409   4.136  0.2095 -0.1530  0.0788
  182SLPC  H12X20848   6.440   7.426   4.144 -0.1940 -2.1689 -0.5216
  182SLPC  H12Y20849   6.603   7.504   4.119 -0.8819  0.4740  0.0703
  182SLPC  C31320850   6.603   7.363   4.272  0.7010 -0.4322  0.3863
  182SLPC  H13X20851   6.713   7.357   4.257  1.0352 -1.1686  2.7922
  182SLPC  H13Y20852   6.574   7.262   4.308  2.4793 -1.0002  0.3379
  182SLPC  C31420853   6.576   7.465   4.384 -0.3443  0.1543 -0.1398
  182SLPC  H14X20854   6.468   7.492   4.390 -0.6204 -0.9863  0.2242
  182SLPC  H14Y20855   6.624   7.563   4.360  2.6116 -1.0284  0.5017
  182SLPC  C31520856   6.646   7.424   4.515 -0.1493  0.4535 -0.4166
  182SLPC  H15X20857   6.746   7.384   4.488 -0.2331  0.1172 -0.2413
  182SLPC  H15Y20858   6.596   7.341   4.570  3.7653 -1.6111  0.4265
  182SLPC  C31620859   6.652   7.539   4.612 -0.5489 -0.5016 -0.0627
  182SLPC  H16X20860   6.556   7.593   4.626  0.3104  0.9832  0.3851
  182SLPC  H16Y20861   6.718   7.613   4.560  0.2592 -0.3469  1.1561
  182SLPC  C31720862   6.715   7.500   4.743 -0.0422 -0.0400 -0.8194
  182SLPC  H17X20863   6.799   7.432   4.718  0.5853  0.0670  0.8884
  182SLPC  H17Y20864   6.639   7.447   4.805 -0.3745  2.6433  1.2393
  182SLPC  C31820865   6.771   7.613   4.831 -0.0383  0.2393  0.1394
  182SLPC  H18X20866   6.837   7.584   4.915 -1.2904  3.1739  2.2845
  182SLPC  H18Y20867   6.688   7.677   4.868  1.0503  1.1367  1.1029
  182SLPC  H18Z20868   6.820   7.685   4.762 -2.6039  0.0902 -2.0160
  183SLPC     N20869   2.499   0.473   3.070  0.1679 -0.2624  0.6954
  183SLPC   C1320870   2.632   0.397   3.077  1.0209 -0.8077 -0.8922
  183SLPC  H13A20871   2.709   0.460   3.120  0.0900  1.6644 -2.6370
  183SLPC  H13B20872   2.619   0.302   3.127  2.1203  0.8383  2.9244
  183SLPC  H13C20873   2.671   0.386   2.977 -0.2512  0.1184 -1.5132
  183SLPC   C1420874   2.435   0.483   3.207  0.7909 -0.9561  1.0532
  183SLPC  H14A20875   2.351   0.551   3.213 -0.9878 -2.4973 -2.8881
  183SLPC  H14B20876   2.391   0.393   3.246 -1.3454  0.0982  1.2087
  183SLPC  H14C20877   2.504   0.510   3.285  1.6855 -2.3266  0.7569
  183SLPC   C1520878   2.408   0.393   2.985 -0.0635  0.4171  0.2911
  183SLPC  H15A20879   2.310   0.436   2.974 -0.2309  0.2953  1.2450
  183SLPC  H15B20880   2.439   0.390   2.881 -0.9112 -2.5704  0.0576
  183SLPC  H15C20881   2.397   0.291   3.017  1.1288  0.2947  0.3573
  183SLPC   C1220882   2.516   0.616   3.012  0.0024 -0.2810  0.0493
  183SLPC  H12A20883   2.416   0.655   2.999  0.0263 -0.6231 -1.3404
  183SLPC  H12B20884   2.563   0.604   2.915  0.3025  1.3304 -0.0400
  183SLPC   C1120885   2.599   0.718   3.095 -0.4115  0.2454  0.0170
  183SLPC  H11A20886   2.571   0.717   3.202 -1.3380 -0.8801 -0.2106
  183SLPC  H11B20887   2.578   0.819   3.052  1.3075  0.9561  0.7813
  183SLPC     P20888   2.814   0.715   2.936 -0.4914 -0.0898  0.3835
  183SLPC   O1320889   2.756   0.615   2.837  0.2725  0.5343 -0.0895
  183SLPC   O1420890   2.799   0.856   2.887 -0.0463  0.4728  0.2001
  183SLPC   O1220891   2.740   0.694   3.076  0.5854 -0.8362  0.4788
  183SLPC   O1120892   2.965   0.682   2.951 -0.4041 -0.2525  0.0844
  183SLPC    C120893   3.013   0.554   2.992 -0.2635  0.7505 -0.1106
  183SLPC    HA20894   2.932   0.479   2.989  2.2326 -2.1141 -2.5458
  183SLPC    HB20895   3.095   0.528   2.921  0.5270  0.8423  0.7411
  183SLPC    C220896   3.082   0.542   3.128 -0.5127 -0.3120  0.2311
  183SLPC    HS20897   3.127   0.441   3.134  0.2299  0.0173  0.2181
  183SLPC   O2120898   2.999   0.592   3.231 -0.0708  0.1407 -0.4284
  183SLPC   C2120899   2.919   0.504   3.284  0.6631 -0.1170  0.5070
  183SLPC   O2220900   2.896   0.392   3.239 -0.1379  0.3535 -0.5173
  183SLPC   C2220901   2.846   0.569   3.399  0.0816 -0.2663 -0.3544
  183SLPC   H2R20902   2.920   0.579   3.481 -0.1043  0.6463 -0.2888
  183SLPC   H2S20903   2.818   0.674   3.377  3.1328  0.7491  0.0803
  183SLPC    C320904   3.217   0.627   3.129  0.3460  0.2729  0.0747
  183SLPC    HX20905   3.201   0.737   3.128  0.6401  0.4389  3.1552
  183SLPC    HY20906   3.264   0.599   3.033 -1.9413 -1.0564 -0.7420
  183SLPC   O3120907   3.304   0.606   3.242  0.2925  0.2299  0.7398
  183SLPC   C3120908   3.419   0.664   3.233 -0.1526 -0.6306  0.6014
  183SLPC   O3220909   3.454   0.743   3.151 -0.5780  0.7402 -0.2301
  183SLPC   C3220910   3.510   0.610   3.341  0.5928  0.0722  0.0710
  183SLPC   H2X20911   3.610   0.640   3.305  0.0088 -0.6804 -2.3776
  183SLPC   H2Y20912   3.496   0.500   3.333  0.4487  0.1792 -1.4616
  183SLPC   C2320913   2.719   0.494   3.455 -0.2579 -0.4938 -0.5563
  183SLPC   H3R20914   2.764   0.408   3.510  0.4748  0.6318  0.6528
  183SLPC   H3S20915   2.641   0.457   3.385 -0.9746  0.1048 -0.0913
  183SLPC   C2420916   2.657   0.589   3.553  1.0421  0.2776 -0.2681
  183SLPC   H4R20917   2.616   0.671   3.490 -0.3249 -0.8983 -0.9453
  183SLPC   H4S20918   2.730   0.633   3.626  0.5283 -0.1723  0.5317
  183SLPC   C2520919   2.552   0.526   3.637  0.5912  0.9280 -0.8486
  183SLPC   H5R20920   2.606   0.458   3.707  2.0459  0.0937 -2.6834
  183SLPC   H5S20921   2.481   0.462   3.580  0.0460  0.8311 -0.0593
  183SLPC   C2620922   2.469   0.625   3.705 -0.3923 -0.6098 -0.1326
  183SLPC   H6R20923   2.405   0.673   3.628 -1.9658 -1.1286  0.7970
  183SLPC   H6S20924   2.525   0.698   3.767  0.6529  0.2060 -1.9649
  183SLPC   C2720925   2.353   0.567   3.795  0.3932 -0.1988 -0.2918
  183SLPC   H7R20926   2.403   0.501   3.869 -1.0536 -1.4412 -0.3935
  183SLPC   H7S20927   2.284   0.499   3.742  1.6209 -0.6855 -1.3002
  183SLPC   C2820928   2.273   0.686   3.852 -0.3787  0.0849  0.4054
  183SLPC   H8R20929   2.277   0.763   3.772  1.0788  0.9675  1.2790
  183SLPC   H8S20930   2.340   0.721   3.934  0.8019 -0.3453 -0.3553
  183SLPC   C2920931   2.133   0.653   3.914 -0.5038  0.1329  0.0159
  183SLPC   H9R20932   2.079   0.580   3.852 -0.3415  0.8237 -0.9613
  183SLPC  C21020933   2.076   0.682   4.033  0.7457 -0.2727 -0.2747
  183SLPC  H10R20934   1.984   0.629   4.060  0.0125  0.8401 -0.5048
  183SLPC  C21120935   2.132   0.791   4.127 -0.1046  0.6124 -0.2545
  183SLPC  H11R20936   2.217   0.848   4.086 -0.1581  0.5517 -0.4505
  183SLPC  H11S20937   2.162   0.737   4.219 -0.0998 -0.6645 -0.9791
  183SLPC  C21220938   2.023   0.884   4.160  0.0458 -0.2468 -0.0831
  183SLPC  H12R20939   1.935   0.889   4.094 -0.4796  0.2595  0.6294
  183SLPC  C21320940   2.016   0.951   4.274 -0.2311  0.2003  0.6922
  183SLPC  H13R20941   1.917   0.999   4.288 -1.4091 -2.1572  0.9611
  183SLPC  C21420942   2.098   0.947   4.400 -0.3073  0.2232  0.3425
  183SLPC  H14R20943   2.107   0.839   4.425  0.1823 -0.4430 -2.4230
  183SLPC  H14S20944   2.054   0.998   4.489 -0.1304 -1.2855  1.3362
  183SLPC  C21520945   2.238   1.009   4.375  0.1750 -0.3488 -0.6546
  183SLPC  H15R20946   2.237   1.099   4.310  1.3113 -0.1066 -0.3659
  183SLPC  H15S20947   2.297   0.939   4.312  1.0295  0.7449 -1.1008
  183SLPC  C21620948   2.323   1.047   4.504 -0.4360 -0.6409 -0.4372
  183SLPC  H16R20949   2.246   1.058   4.583  0.3501 -1.3232  0.4409
  183SLPC  H16S20950   2.351   1.152   4.483 -0.6472 -0.5889 -0.4590
  183SLPC  C21720951   2.446   0.955   4.529  0.1155  0.1655 -0.7009
  183SLPC  H17R20952   2.517   0.949   4.444  1.8811 -0.7553  0.7632
  183SLPC  H17S20953   2.399   0.856   4.546 -0.6815  0.8053  1.1662
  183SLPC  C21820954   2.538   0.997   4.646 -0.2435  0.3495  0.2650
  183SLPC  H18R20955   2.588   1.091   4.613  0.1510 -0.3017 -1.0940
  183SLPC  H18S20956   2.622   0.929   4.670 -0.7233 -0.0474  0.8537
  183SLPC  H18T20957   2.488   1.013   4.743  1.4455 -0.8133  1.3812
  183SLPC   C3320958   3.474   0.664   3.484 -0.7625 -0.6898 -0.0985
  183SLPC   H3X20959   3.372   0.627   3.506 -0.5310 -0.2328  1.9367
  183SLPC   H3Y20960   3.481   0.775   3.488 -1.2863 -0.6929  1.5705
  183SLPC   C3420961   3.570   0.608   3.591  0.1092  0.4581  0.2794
  183SLPC   H4X20962   3.671   0.650   3.575  0.3931  0.1553  1.2183
  183SLPC   H4Y20963   3.573   0.497   3.593 -0.9096  0.4270  0.5617
  183SLPC   C3520964   3.528   0.632   3.739  0.1652 -1.3123 -0.1600
  183SLPC   H5X20965   3.426   0.590   3.749 -0.0557 -0.4078  1.9412
  183SLPC   H5Y20966   3.516   0.739   3.766  1.8320 -0.5777 -2.0281
  183SLPC   C3620967   3.615   0.555   3.844 -0.0055 -0.8375  0.2083
  183SLPC   H6X20968   3.716   0.585   3.810 -1.3864  2.1900 -1.6268
  183SLPC   H6Y20969   3.596   0.445   3.838  0.2978 -0.8186 -1.4351
  183SLPC   C3720970   3.588   0.610   3.989  0.0877 -0.2547  0.1447
  183SLPC   H7X20971   3.614   0.718   4.000 -0.2052 -0.2025  0.3542
  183SLPC   H7Y20972   3.650   0.551   4.059 -1.0973  1.0393  2.4133
  183SLPC   C3820973   3.445   0.595   4.035  0.1370  0.3194 -0.1607
  183SLPC   H8X20974   3.415   0.488   4.029 -0.6845  0.5530 -0.3772
  183SLPC   H8Y20975   3.378   0.649   3.965  0.3895  0.2096 -0.4850
  183SLPC   C3920976   3.401   0.641   4.175 -0.1563 -0.2298  0.4515
  183SLPC   H9X20977   3.422   0.750   4.178 -0.0235 -0.2762  1.3442
  183SLPC   H9Y20978   3.470   0.589   4.245  1.1206  1.5335  0.5328
  183SLPC  C31020979   3.257   0.612   4.206  0.6297 -0.0930 -0.3516
  183SLPC  H10X20980   3.243   0.502   4.212  1.0162 -0.1526 -0.4977
  183SLPC  H10Y20981   3.197   0.657   4.123  0.6060 -1.3393 -1.0265
  183SLPC  C31120982   3.207   0.688   4.325  1.1671  0.1079  0.7600
  183SLPC  H11X20983   3.279   0.686   4.409  0.4934  1.7191  1.4181
  183SLPC  H11Y20984   3.115   0.635   4.357  1.5384 -0.8278  0.3275
  183SLPC  C31220985   3.158   0.829   4.292 -0.4943 -0.0520  0.7118
  183SLPC  H12X20986   3.092   0.826   4.203  2.4480 -1.6612 -1.5773
  183SLPC  H12Y20987   3.242   0.890   4.253  1.2246 -1.8252  1.4326
  183SLPC  C31320988   3.097   0.903   4.414 -0.0951 -0.2512 -0.1227
  183SLPC  H13X20989   2.995   0.863   4.434  0.3384 -1.2759  0.0973
  183SLPC  H13Y20990   3.066   1.007   4.393 -0.7596 -0.5137 -0.4977
  183SLPC  C31420991   3.185   0.885   4.544 -0.1751 -0.0873 -0.8170
  183SLPC  H14X20992   3.289   0.889   4.506 -0.2723  0.2183 -1.0549
  183SLPC  H14Y20993   3.169   0.785   4.590  1.5528 -0.0589 -0.0806
  183SLPC  C31520994   3.157   0.991   4.658  0.3025 -0.0934 -0.1845
  183SLPC  H15X20995   3.147   1.093   4.615  2.4185  0.5107  0.6269
  183SLPC  H15Y20996   3.245   0.990   4.725 -0.3359 -2.7478  0.7568
  183SLPC  C31620997   3.033   0.960   4.743  0.0960 -1.0836  0.3459
  183SLPC  H16X20998   3.045   0.855   4.777  2.2174 -0.7843  0.7019
  183SLPC  H16Y20999   2.937   0.968   4.689  0.1456 -1.5061  0.1978
  183SLPC  C31721000   3.030   1.048   4.864  0.4853 -0.0835 -0.0672
  183SLPC  H17X21001   3.073   1.146   4.836  1.9170 -1.1258 -1.7224
  183SLPC  H17Y21002   3.103   1.011   4.938  1.0402  0.3009 -0.4191
  183SLPC  C31821003   2.896   1.050   4.935  0.5862 -0.0311 -0.1361
  183SLPC  H18X21004   2.887   1.127   5.015 -4.3585 -0.6170  0.1420
  183SLPC  H18Y21005   2.868   0.952   4.978 -0.1732 -0.4416 -1.5490
  183SLPC  H18Z21006   2.813   1.081   4.869 -1.2298 -0.3326  1.8724
  184SLPC     N21007   1.341   6.574   2.775 -0.5544 -0.2264  0.4677
  184SLPC   C1321008   1.354   6.425   2.798  0.2080 -0.0232 -0.4049
  184SLPC  H13A21009   1.403   6.401   2.891  2.6751  3.1252 -0.7136
  184SLPC  H13B21010   1.259   6.374   2.807  0.5814 -0.4094  1.7045
  184SLPC  H13C21011   1.412   6.370   2.724 -0.3504 -0.9186 -0.1950
  184SLPC   C1421012   1.277   6.593   2.640  0.0029 -0.1378 -0.7178
  184SLPC  H14A21013   1.258   6.698   2.630  2.8204  0.3429 -2.3883
  184SLPC  H14B21014   1.349   6.554   2.569  1.9633  0.5871  0.7586
  184SLPC  H14C21015   1.180   6.547   2.632  0.1266 -0.8319  1.2306
  184SLPC   C1521016   1.478   6.635   2.762  0.4526  0.4713 -0.0717
  184SLPC  H15A21017   1.538   6.590   2.684  1.9727  0.8150  0.8480
  184SLPC  H15B21018   1.462   6.739   2.738 -1.3827 -0.2824 -2.4729
  184SLPC  H15C21019   1.528   6.630   2.858 -0.5706 -2.0439  0.3967
  184SLPC   C1221020   1.243   6.647   2.874 -0.1906 -0.3450 -0.0202
  184SLPC  H12A21021   1.155   6.590   2.899 -0.9830  1.8617  2.7710
  184SLPC  H12B21022   1.199   6.735   2.829  1.1092 -0.6603 -2.0181
  184SLPC   C1121023   1.309   6.673   3.013  0.6052 -0.4312 -0.1019
  184SLPC  H11A21024   1.362   6.584   3.053  2.7338  0.9348  0.2833
  184SLPC  H11B21025   1.223   6.685   3.082  0.3293  0.9613 -0.6701
  184SLPC     P21026   1.343   6.932   3.016  0.2095  0.0875 -0.1706
  184SLPC   O1321027   1.462   7.011   2.968  0.1725  0.0894 -0.1804
  184SLPC   O1421028   1.222   6.949   2.929  0.3555 -0.5555  0.3414
  184SLPC   O1221029   1.393   6.788   3.023 -0.3607 -0.5553  0.5018
  184SLPC   O1121030   1.311   6.967   3.163 -0.2005 -0.2989 -0.0656
  184SLPC    C121031   1.226   7.074   3.198 -0.3150  0.4398 -0.0910
  184SLPC    HA21032   1.287   7.167   3.199  1.0055 -0.3998  0.3712
  184SLPC    HB21033   1.147   7.097   3.124  0.2965  1.3659 -0.4651
  184SLPC    C221034   1.166   7.046   3.336  0.0335  0.5268  0.4357
  184SLPC    HS21035   1.247   7.063   3.410  1.5444  1.1487 -1.2694
  184SLPC   O2121036   1.116   6.914   3.357 -0.0606 -0.1095  0.9955
  184SLPC   C2121037   1.201   6.810   3.374  0.1934 -0.5183 -0.4148
  184SLPC   O2221038   1.320   6.819   3.409  0.4199 -0.0574  0.2455
  184SLPC   C2221039   1.122   6.686   3.347 -0.0658  0.3307 -0.4626
  184SLPC   H2R21040   1.059   6.701   3.257  0.4921  2.6632 -0.5345
  184SLPC   H2S21041   1.202   6.610   3.328  0.1098  0.5027 -0.4147
  184SLPC    C321042   1.046   7.140   3.359  0.2303  0.4272 -0.2555
  184SLPC    HX21043   0.958   7.101   3.304  0.5165 -0.5697 -0.0219
  184SLPC    HY21044   1.063   7.244   3.323 -1.3211  0.9015  0.2835
  184SLPC   O3121045   1.021   7.147   3.501  0.3237 -0.5133 -0.2456
  184SLPC   C3121046   1.104   7.223   3.570 -0.0149 -0.1524 -0.0880
  184SLPC   O3221047   1.205   7.280   3.529  0.7589 -0.1275  0.3648
  184SLPC   C3221048   1.059   7.219   3.718 -0.3003  0.8240 -0.1820
  184SLPC   H2X21049   1.077   7.113   3.746  0.3701  1.1757  0.7658
  184SLPC   H2Y21050   0.951   7.244   3.709 -0.4798  0.6487  1.2160
  184SLPC   C2321051   1.043   6.641   3.473 -0.2489  0.3413  0.1917
  184SLPC   H3R21052   0.951   6.585   3.449  1.7754 -2.4825 -1.6444
  184SLPC   H3S21053   1.025   6.728   3.540 -0.8615 -0.7401  1.4792
  184SLPC   C2421054   1.134   6.550   3.567 -0.1484 -0.1599  0.6307
  184SLPC   H4R21055   1.217   6.607   3.614  0.4463  1.6115 -2.3347
  184SLPC   H4S21056   1.165   6.463   3.504 -2.4096 -2.0173  1.9034
  184SLPC   C2521057   1.053   6.482   3.677 -0.0969 -0.1144  0.3047
  184SLPC   H5R21058   1.117   6.398   3.710 -0.9954 -0.6979  0.5942
  184SLPC   H5S21059   0.959   6.443   3.633  0.0492  1.6204 -1.7037
  184SLPC   C2621060   1.011   6.565   3.793 -0.5292 -0.6245 -0.5825
  184SLPC   H6R21061   0.922   6.628   3.771  0.0628  0.1202 -0.9158
  184SLPC   H6S21062   1.091   6.636   3.824  2.0980 -2.4199 -2.8161
  184SLPC   C2721063   0.970   6.486   3.912 -0.1174 -0.1867  0.8649
  184SLPC   H7R21064   1.053   6.418   3.939 -0.9771 -0.7863  2.0823
  184SLPC   H7S21065   0.886   6.420   3.881 -0.5431  0.3224  0.9225
  184SLPC   C2821066   0.917   6.581   4.027  0.6791  0.3044  0.0682
  184SLPC   H8R21067   1.002   6.638   4.070  0.9249  0.8222 -1.0641
  184SLPC   H8S21068   0.893   6.511   4.109 -0.4388 -1.9954 -2.0677
  184SLPC   C2921069   0.802   6.674   4.000  0.0734 -0.4070  0.1089
  184SLPC   H9R21070   0.702   6.631   4.008 -0.3569  0.7560  1.2917
  184SLPC  C21021071   0.809   6.806   3.964 -0.4584  0.3843  0.9295
  184SLPC  H10R21072   0.716   6.863   3.947  0.3721  1.0271 -2.0006
  184SLPC  C21121073   0.923   6.890   3.926  0.3860  0.6872 -0.3349
  184SLPC  H11R21074   0.911   6.917   3.819  0.4419 -0.6548 -0.6955
  184SLPC  H11S21075   1.014   6.828   3.941  0.1235  0.8920  2.8269
  184SLPC  C21221076   0.927   7.010   4.026 -0.2035  0.9138 -0.2283
  184SLPC  H12R21077   0.986   6.991   4.116 -0.0398  0.1778 -0.4877
  184SLPC  C21321078   0.849   7.122   4.032  0.1577 -0.0354 -0.2377
  184SLPC  H13R21079   0.870   7.190   4.116 -0.9289  0.7853 -0.6017
  184SLPC  C21421080   0.735   7.171   3.939  0.3258  0.6529 -0.7781
  184SLPC  H14R21081   0.710   7.100   3.857 -0.6761  0.9738 -0.7706
  184SLPC  H14S21082   0.767   7.261   3.882 -1.1639  0.4166 -2.0656
  184SLPC  C21521083   0.605   7.169   4.017  0.4377  0.3855 -0.4165
  184SLPC  H15R21084   0.605   7.246   4.097  0.6341 -1.6677  1.7025
  184SLPC  H15S21085   0.583   7.070   4.063 -2.1296  0.3054 -1.6685
  184SLPC  C21621086   0.490   7.201   3.923 -0.1057  0.3048  0.0700
  184SLPC  H16R21087   0.489   7.129   3.838  1.0844  1.5249 -1.0186
  184SLPC  H16S21088   0.511   7.303   3.886  0.4304  0.5029  0.8843
  184SLPC  C21721089   0.349   7.199   3.980 -0.3902  0.7357  0.1987
  184SLPC  H17R21090   0.328   7.299   4.022  0.3029  1.1464 -0.4159
  184SLPC  H17S21091   0.340   7.127   4.064 -1.2211  1.1028  0.4372
  184SLPC  C21821092   0.239   7.166   3.874  0.3506  0.5692 -0.5719
  184SLPC  H18R21093   0.247   7.071   3.817  0.6277 -1.7802  3.0348
  184SLPC  H18S21094   0.237   7.252   3.804  1.4265  0.8623 -0.2578
  184SLPC  H18T21095   0.139   7.149   3.919  0.2226 -2.1427 -1.6697
  184SLPC   C3321096   1.135   7.327   3.799  0.1156 -0.2778  0.2717
  184SLPC   H3X21097   1.116   7.421   3.742 -2.7656 -1.2813 -0.6145
  184SLPC   H3Y21098   1.241   7.296   3.798 -0.2581 -1.5959  0.4786
  184SLPC   C3421099   1.074   7.337   3.939 -0.9411 -0.1064 -1.0905
  184SLPC   H4X21100   1.084   7.235   3.980  1.8263 -0.0022 -1.3240
  184SLPC   H4Y21101   0.966   7.365   3.935 -1.0538 -0.3957 -0.2231
  184SLPC   C3521102   1.149   7.440   4.028  0.3120  0.2459 -0.5015
  184SLPC   H5X21103   1.123   7.536   3.978 -0.8209 -0.4423 -1.2849
  184SLPC   H5Y21104   1.258   7.420   4.016  0.4340  0.4550  0.2241
  184SLPC   C3621105   1.116   7.438   4.179  0.0010 -0.4314 -0.4439
  184SLPC   H6X21106   1.011   7.472   4.189 -0.1066 -1.0353  0.7102
  184SLPC   H6Y21107   1.187   7.509   4.226 -1.0308  1.0663 -1.0873
  184SLPC   C3721108   1.130   7.298   4.240 -0.4311  0.3121  0.5802
  184SLPC   H7X21109   1.210   7.248   4.182 -1.0350 -0.9126  0.7548
  184SLPC   H7Y21110   1.027   7.263   4.216 -0.2937  2.4590 -4.2941
  184SLPC   C3821111   1.155   7.306   4.390  0.2540 -0.2162 -0.2493
  184SLPC   H8X21112   1.135   7.207   4.437  2.2294 -0.7703 -0.4688
  184SLPC   H8Y21113   1.085   7.374   4.442  1.4937  0.1710  0.9847
  184SLPC   C3921114   1.290   7.380   4.413 -0.7120  0.0406  0.4813
  184SLPC   H9X21115   1.268   7.488   4.408 -1.8257 -0.2197 -1.0932
  184SLPC   H9Y21116   1.359   7.351   4.330 -0.4127  3.8994 -0.8233
  184SLPC  C31021117   1.347   7.357   4.551  0.2567 -0.0827 -1.0659
  184SLPC  H10X21118   1.438   7.420   4.548  0.7402 -0.5748  1.3929
  184SLPC  H10Y21119   1.373   7.249   4.557 -0.2724 -0.3176 -2.5993
  184SLPC  C31121120   1.265   7.412   4.667  0.2780  0.8270 -0.2571
  184SLPC  H11X21121   1.160   7.375   4.658  0.5830  0.0835 -0.9139
  184SLPC  H11Y21122   1.257   7.522   4.651 -2.6426  1.1014  2.2352
  184SLPC  C31221123   1.311   7.375   4.810 -0.3608 -0.6237  0.4482
  184SLPC  H12X21124   1.400   7.436   4.835 -0.0329 -1.0075  0.2292
  184SLPC  H12Y21125   1.336   7.267   4.821 -0.2695 -0.7120 -0.4832
  184SLPC  C31321126   1.205   7.410   4.921  0.5159 -0.3631 -0.2521
  184SLPC  H13X21127   1.248   7.387   5.020 -0.1783 -0.7400 -0.0304
  184SLPC  H13Y21128   1.116   7.343   4.917  0.7313 -0.8186  1.7362
  184SLPC  C31421129   1.158   7.554   4.921 -0.5149 -0.0392 -0.1741
  184SLPC  H14X21130   1.113   7.576   4.822  0.2713  3.1630  0.0773
  184SLPC  H14Y21131   1.247   7.620   4.919 -0.6468  0.1247 -0.7868
  184SLPC  C31521132   1.067   7.584   5.041  0.2026 -0.5487 -0.1454
  184SLPC  H15X21133   1.063   7.691   5.071 -0.5646  0.8734 -4.5645
  184SLPC  H15Y21134   1.117   7.529   5.123 -0.3007 -2.4999 -1.0880
  184SLPC  C31621135   0.923   7.535   5.031 -0.2886 -0.4405 -0.5430
  184SLPC  H16X21136   0.887   7.510   5.134  1.3773 -2.0516 -0.3109
  184SLPC  H16Y21137   0.905   7.438   4.980 -1.0685 -1.1537  1.0128
  184SLPC  C31721138   0.826   7.636   4.975  0.6325 -0.0217  0.9335
  184SLPC  H17X21139   0.730   7.586   4.948  1.3169 -0.4381 -0.9000
  184SLPC  H17Y21140   0.878   7.674   4.885  1.1900 -0.5415  1.0281
  184SLPC  C31821141   0.796   7.746   5.070 -0.8283 -0.0540 -0.6197
  184SLPC  H18X21142   0.756   7.835   5.018 -1.8047  0.0286  0.2259
  184SLPC  H18Y21143   0.882   7.776   5.133 -1.9986  0.8752  0.5963
  184SLPC  H18Z21144   0.714   7.718   5.140  1.3643 -0.3360  2.0198
  185POPC     N21145   1.337   4.995   8.003  0.6175 -0.0011  0.3447
  185POPC   C1221146   1.378   5.037   7.864  0.0722 -0.0798 -0.2680
  185POPC  H12A21147   1.474   4.990   7.845  1.0887  0.4574  2.9958
  185POPC  H12B21148   1.391   5.143   7.871 -1.3202  0.0894  0.0638
  185POPC   C1321149   1.324   4.845   8.026 -0.7256 -0.8141 -0.0406
  185POPC  H13A21150   1.312   4.828   8.132  2.4236  0.7655  0.7058
  185POPC  H13B21151   1.243   4.799   7.972 -1.8495 -1.5810  2.1630
  185POPC  H13C21152   1.410   4.790   7.991 -0.5088  0.5513 -1.8055
  185POPC   C1421153   1.429   5.038   8.117 -0.0171 -0.7060  0.6550
  185POPC  H14A21154   1.436   5.146   8.127 -0.1592 -0.6794  0.4840
  185POPC  H14B21155   1.411   4.995   8.214 -1.1032 -1.3147  0.2013
  185POPC  H14C21156   1.526   5.001   8.089  0.1090 -1.7164  2.3294
  185POPC   C1521157   1.205   5.062   8.035 -0.0966  0.0068 -0.2596
  185POPC  H15A21158   1.200   5.170   8.029 -4.1970 -0.0390 -0.1251
  185POPC  H15B21159   1.182   5.012   8.128 -2.5629  0.0789 -0.7803
  185POPC  H15C21160   1.140   5.027   7.957 -0.4022  0.5261 -0.2379
  185POPC   C1121161   1.270   5.030   7.751  0.1049  0.4343  1.1236
  185POPC  H11A21162   1.214   4.934   7.749  0.5640  0.1152 -2.0166
  185POPC  H11B21163   1.333   5.037   7.660  0.5339  2.4833  1.5272
  185POPC     P21164   1.210   5.282   7.698 -0.2499  0.0179 -0.0109
  185POPC   O1321165   1.350   5.293   7.729  0.0430  0.4035 -0.0954
  185POPC   O1421166   1.117   5.380   7.751  0.2500  0.1429  0.1300
  185POPC   O1221167   1.176   5.139   7.755 -0.4424 -0.5822  0.2404
  185POPC   O1121168   1.204   5.273   7.536  0.1585  0.4883 -0.3870
  185POPC    C121169   1.106   5.184   7.478  0.4792 -0.0811 -0.2313
  185POPC    HA21170   1.004   5.203   7.517  1.0677  3.5656 -0.1296
  185POPC    HB21171   1.148   5.082   7.493 -1.5761 -0.8563  0.5992
  185POPC    C221172   1.084   5.208   7.324  1.0148  0.0820  0.6070
  185POPC    HS21173   0.988   5.158   7.297  0.2641  0.0877  3.0419
  185POPC   O2121174   1.187   5.140   7.246 -0.3359 -0.7318  0.2940
  185POPC   C2121175   1.176   5.006   7.230 -0.3329 -0.2253  0.6796
  185POPC   O2221176   1.081   4.940   7.267  0.3083 -0.2770 -0.0937
  185POPC   C2221177   1.296   4.945   7.157  0.5902 -1.5028 -0.2546
  185POPC   H2R21178   1.377   4.934   7.231  0.8867 -2.8161 -0.7538
  185POPC   H2S21179   1.332   5.026   7.089  0.7391 -0.3424  1.1504
  185POPC    C321180   1.073   5.360   7.288 -0.2319  0.0418  0.5753
  185POPC    HX21181   1.163   5.413   7.328 -0.8804 -1.0064  3.6849
  185POPC    HY21182   0.988   5.399   7.347  1.7407  2.5163  2.0079
  185POPC   O3121183   1.061   5.375   7.142 -0.2466 -0.3574 -0.0042
  185POPC   C3121184   1.171   5.370   7.072 -0.2961 -0.5036 -0.0398
  185POPC   O3221185   1.283   5.374   7.118  0.1457 -0.5207  0.7260
  185POPC   C3221186   1.130   5.374   6.925  0.1254  0.9777 -0.5066
  185POPC   H2X21187   1.034   5.428   6.910 -2.1610 -2.2260  1.3351
  185POPC   H2Y21188   1.125   5.269   6.891  0.5781 -0.1468  2.6102
  185POPC   C2321189   1.264   4.815   7.098 -0.2882  0.5737  0.2479
  185POPC   H3R21190   1.224   4.750   7.178  0.6719  0.7577  0.8956
  185POPC   H3S21191   1.353   4.772   7.049  0.2071  1.0009  0.7578
  185POPC   C2421192   1.163   4.832   6.974 -0.4048  0.1224  0.4672
  185POPC   H4R21193   1.064   4.865   7.012  0.2087  3.1900 -0.3472
  185POPC   H4S21194   1.156   4.727   6.939  0.6026  0.2791 -0.2191
  185POPC   C2521195   1.206   4.920   6.856 -0.1565 -0.1443 -0.5031
  185POPC   H5R21196   1.315   4.903   6.847  0.3472  2.1049  0.6681
  185POPC   H5S21197   1.183   5.027   6.880 -0.0538 -0.3514  0.6028
  185POPC   C2621198   1.151   4.879   6.717 -0.1753 -0.1703 -0.0441
  185POPC   H6R21199   1.039   4.876   6.714 -0.2359  0.7339  0.7518
  185POPC   H6S21200   1.191   4.780   6.688 -0.2398  0.2312 -1.6310
  185POPC   C2721201   1.208   4.976   6.608  0.7130 -0.2424  0.0620
  185POPC   H7R21202   1.159   5.075   6.606  1.3990  0.1580 -3.0504
  185POPC   H7S21203   1.177   4.948   6.505 -1.5446  1.9053  0.0793
  185POPC   C2821204   1.362   4.989   6.609 -0.2093 -0.5294 -0.4077
  185POPC   H8R21205   1.410   4.891   6.628  2.1258 -0.4640 -4.7875
  185POPC   H8S21206   1.402   5.047   6.695  1.0207 -1.4180 -0.3530
  185POPC   C2921207   1.420   5.033   6.478 -0.3448  0.1316  0.0977
  185POPC   H9121208   1.463   5.135   6.482  0.1615 -0.0693 -0.0874
  185POPC  C21021209   1.444   4.957   6.372 -0.0122  0.0153 -0.2036
  185POPC  H10121210   1.497   5.003   6.287 -0.5529  2.0279  0.5121
  185POPC  C21121211   1.414   4.811   6.363 -0.9602  0.0290  0.3301
  185POPC  H11R21212   1.328   4.782   6.427 -1.4952 -0.1128 -0.4351
  185POPC  H11S21213   1.504   4.757   6.399  0.0038  1.8143  0.7366
  185POPC  C21221214   1.360   4.771   6.224  0.3781  0.0137 -0.5334
  185POPC  H12R21215   1.354   4.660   6.221 -0.7016  0.0845 -2.5941
  185POPC  H12S21216   1.444   4.792   6.154  0.6736 -4.7968 -1.9983
  185POPC  C21321217   1.225   4.821   6.179 -0.1717 -0.4975 -0.2189
  185POPC  H13R21218   1.228   4.932   6.171  1.6780 -0.5094 -0.1687
  185POPC  H13S21219   1.150   4.787   6.254 -0.3231 -4.5999 -1.9856
  185POPC  C21421220   1.193   4.758   6.047 -0.4688 -0.0474  0.5794
  185POPC  H14R21221   1.086   4.776   6.021 -0.7890 -2.0418  0.3417
  185POPC  H14S21222   1.193   4.647   6.058 -1.8153 -0.3749 -1.9940
  185POPC  C21521223   1.292   4.801   5.929  0.3409  0.3434 -0.5455
  185POPC  H15R21224   1.396   4.767   5.950 -0.1373 -0.3135  0.8420
  185POPC  H15S21225   1.287   4.912   5.922 -0.0292  0.4123  0.5665
  185POPC  C21621226   1.256   4.753   5.790 -0.5441  0.7196  0.0920
  185POPC  H16R21227   1.149   4.774   5.768 -0.5767 -0.0789 -0.5772
  185POPC  H16S21228   1.259   4.642   5.791 -0.9715  0.6968 -0.4772
  185POPC  C21721229   1.339   4.804   5.671 -0.3390 -0.3776 -0.2428
  185POPC  H17R21230   1.345   4.913   5.692 -0.8774 -0.1397 -1.2650
  185POPC  H17S21231   1.278   4.779   5.582  0.1187  1.7307 -1.2227
  185POPC  C21821232   1.484   4.756   5.652  0.1423 -0.0119  0.1340
  185POPC  H18R21233   1.544   4.817   5.723  0.9580  0.7894 -1.2026
  185POPC  H18S21234   1.525   4.766   5.549 -0.3528 -0.7253 -0.1405
  185POPC  H18T21235   1.484   4.645   5.666 -0.0147 -0.1071 -0.6245
  185POPC   C3321236   1.247   5.444   6.852  0.0114  0.0164  0.1924
  185POPC   H3X21237   1.340   5.383   6.864 -0.5958 -0.9453  0.1419
  185POPC   H3Y21238   1.273   5.542   6.897  2.0484 -1.4415  2.4160
  185POPC   C3421239   1.200   5.460   6.705 -0.4160 -0.0255 -0.6103
  185POPC   H4X21240   1.097   5.501   6.717  0.1678  1.3688 -0.1683
  185POPC   H4Y21241   1.190   5.355   6.672 -0.1852 -0.6852  1.2838
  185POPC   C3521242   1.297   5.537   6.619 -0.3811 -0.1099 -0.1242
  185POPC   H5X21243   1.400   5.501   6.638  0.6104  2.1825 -0.7061
  185POPC   H5Y21244   1.298   5.643   6.655 -0.6671 -0.6386  1.5286
  185POPC   C3621245   1.263   5.552   6.470  0.2077 -0.0312 -0.0655
  185POPC   H6X21246   1.348   5.615   6.433 -0.1550  1.5242  1.6086
  185POPC   H6Y21247   1.168   5.609   6.466 -0.3990 -1.0506 -0.4792
  185POPC   C3721248   1.257   5.425   6.384  0.2964 -0.0520 -0.2788
  185POPC   H7X21249   1.178   5.363   6.430 -0.3229  0.6305 -0.4069
  185POPC   H7Y21250   1.354   5.370   6.388 -0.0394 -0.5462  2.3229
  185POPC   C3821251   1.222   5.454   6.237  0.2772  0.0507  0.0088
  185POPC   H8X21252   1.284   5.539   6.202  2.2753 -1.1799  0.3534
  185POPC   H8Y21253   1.115   5.482   6.231 -0.7121 -3.5492 -1.8813
  185POPC   C3921254   1.266   5.336   6.153  0.0284  0.5048  0.1585
  185POPC   H9X21255   1.215   5.242   6.183 -1.3187  0.9054 -0.8025
  185POPC   H9Y21256   1.376   5.320   6.162 -0.2808 -2.4122 -0.2140
  185POPC  C31021257   1.239   5.370   6.005 -0.2994  0.5182 -0.2886
  185POPC  H10X21258   1.296   5.456   5.964  2.1523 -1.0679 -0.4552
  185POPC  H10Y21259   1.131   5.389   5.990 -0.9664 -1.2009  1.7512
  185POPC  C31121260   1.273   5.247   5.912  0.6785  0.4819  0.2350
  185POPC  H11X21261   1.225   5.157   5.955  0.6432 -0.1204 -1.0364
  185POPC  H11Y21262   1.383   5.231   5.910  0.6943  0.5089 -2.0227
  185POPC  C31221263   1.238   5.266   5.769  0.7323 -0.4756  0.2536
  185POPC  H12X21264   1.283   5.361   5.732  2.6925 -0.3552  2.6809
  185POPC  H12Y21265   1.132   5.288   5.747  1.2998  1.0752 -1.2223
  185POPC  C31321266   1.274   5.153   5.669 -0.3101  0.6128  0.2027
  185POPC  H13X21267   1.204   5.070   5.692 -0.2590  0.7611  0.9222
  185POPC  H13Y21268   1.378   5.116   5.677 -0.5432 -0.1247 -0.0944
  185POPC  C31421269   1.249   5.200   5.526 -0.3803  0.1984  0.5603
  185POPC  H14X21270   1.346   5.249   5.504 -0.8767  0.3602 -1.5426
  185POPC  H14Y21271   1.167   5.275   5.535 -1.9111 -1.5732  2.1617
  185POPC  C31521272   1.211   5.085   5.431  0.8657  0.4746  0.2682
  185POPC  H15X21273   1.304   5.027   5.413 -0.2567 -1.2078 -0.4100
  185POPC  H15Y21274   1.187   5.132   5.333  0.2248 -0.5830 -0.1079
  185POPC  C31621275   1.085   5.006   5.467  0.3576 -0.0602 -0.4872
  185POPC  H16X21276   1.058   4.936   5.386 -2.8566  0.6170 -0.1323
  185POPC  H16Y21277   1.001   5.076   5.491  0.3599  0.3812 -1.7297
  185POPC  H16Z21278   1.101   4.956   5.565  2.3649  2.8521  0.8366
  186POPC     N21279   3.234   6.305   7.723  0.8332  0.5261 -0.3908
  186POPC   C1221280   3.339   6.245   7.813 -0.4203 -0.4559 -0.3351
  186POPC  H12A21281   3.305   6.263   7.914  0.6286 -1.5741  0.2326
  186POPC  H12B21282   3.431   6.297   7.792  0.4239 -1.4615  0.7325
  186POPC   C1321283   3.106   6.234   7.734 -0.0068 -0.0822 -0.0175
  186POPC  H13A21284   3.028   6.281   7.676 -1.7119 -2.0157  0.6002
  186POPC  H13B21285   3.112   6.132   7.699  1.7965 -0.6686  1.7660
  186POPC  H13C21286   3.065   6.232   7.834 -1.9934  0.4154 -0.7749
  186POPC   C1421287   3.204   6.448   7.767 -0.3139 -0.0449 -0.8446
  186POPC  H14A21288   3.190   6.451   7.874  0.3843  2.1213 -0.7599
  186POPC  H14B21289   3.292   6.508   7.747  0.2472  0.0954  1.6446
  186POPC  H14C21290   3.117   6.486   7.716 -0.8756  1.9558  1.3712
  186POPC   C1521291   3.282   6.290   7.584  0.1035  0.8405  0.3991
  186POPC  H15A21292   3.206   6.301   7.507 -1.2027 -0.7706  1.3951
  186POPC  H15B21293   3.304   6.187   7.562  1.7323  1.1667  0.3375
  186POPC  H15C21294   3.372   6.346   7.563  1.6275 -1.2609  1.0536
  186POPC   C1121295   3.376   6.096   7.796  0.1190 -0.3544 -0.7155
  186POPC  H11A21296   3.283   6.037   7.812  0.4459  0.0350  4.3773
  186POPC  H11B21297   3.437   6.078   7.887  1.2272  0.8991 -1.1882
  186POPC     P21298   3.511   5.921   7.662  0.1768 -0.3369  0.2272
  186POPC   O1321299   3.409   5.827   7.610 -0.2237 -0.0273  0.6453
  186POPC   O1421300   3.565   5.889   7.794  0.2687  0.3317  0.2266
  186POPC   O1221301   3.449   6.063   7.674  0.1136 -0.1406  0.0883
  186POPC   O1121302   3.619   5.928   7.548 -0.5138 -0.4439  0.7760
  186POPC    C121303   3.650   6.051   7.475  0.2509 -0.1437 -0.1898
  186POPC    HA21304   3.752   6.042   7.432  0.5091 -2.1738  0.7521
  186POPC    HB21305   3.648   6.141   7.541 -0.8642  0.9545 -1.6478
  186POPC    C221306   3.545   6.067   7.362  0.0139  0.6226 -0.2235
  186POPC    HS21307   3.452   6.015   7.393  0.8201 -0.0484  1.1751
  186POPC   O2121308   3.606   5.997   7.252 -0.0134  0.0761  0.3636
  186POPC   C2121309   3.523   5.937   7.165  0.4436  0.2632 -0.6150
  186POPC   O2221310   3.402   5.933   7.175 -0.1155 -0.8627  0.3275
  186POPC   C2221311   3.615   5.890   7.051  0.2790  0.4506 -0.4451
  186POPC   H2R21312   3.694   5.825   7.093 -0.0961 -0.8659 -1.6854
  186POPC   H2S21313   3.648   5.991   7.017  0.6259 -0.9103 -4.6921
  186POPC    C321314   3.530   6.213   7.325 -0.4773  1.0294  0.1005
  186POPC    HX21315   3.627   6.267   7.327 -0.4360  0.9493  0.4087
  186POPC    HY21316   3.461   6.269   7.393  0.4140  1.2136  0.8772
  186POPC   O3121317   3.473   6.232   7.199 -0.8600 -0.1730  0.1205
  186POPC   C3121318   3.541   6.266   7.094 -0.0629  0.0964  0.2143
  186POPC   O3221319   3.662   6.272   7.083 -0.5986  0.2596  0.2008
  186POPC   C3221320   3.438   6.249   6.979  0.2726 -0.7838  0.4413
  186POPC   H2X21321   3.366   6.332   6.990  2.0561  0.9443 -0.3719
  186POPC   H2Y21322   3.377   6.156   6.976 -1.0174  0.0601  0.0035
  186POPC   C2321323   3.545   5.820   6.926  0.5747 -0.0079  0.0274
  186POPC   H3R21324   3.457   5.887   6.914 -0.6809 -1.2253  1.9297
  186POPC   H3S21325   3.523   5.714   6.951  2.2254 -0.2019  0.7749
  186POPC   C2421326   3.639   5.836   6.796  0.0048 -0.0679  0.0578
  186POPC   H4R21327   3.740   5.792   6.803 -0.3334 -0.7718  0.5931
  186POPC   H4S21328   3.649   5.942   6.765  1.0256 -0.0940  0.2813
  186POPC   C2521329   3.572   5.780   6.675  1.1287  0.2246 -0.1380
  186POPC   H5R21330   3.485   5.841   6.642  0.0614  0.4176  2.8015
  186POPC   H5S21331   3.525   5.685   6.707 -0.4033  0.6955 -0.9182
  186POPC   C2621332   3.677   5.745   6.563  0.4164  0.3878 -0.2270
  186POPC   H6R21333   3.754   5.674   6.601  0.5330  0.0342 -1.0970
  186POPC   H6S21334   3.720   5.842   6.529  1.7572 -0.0522  0.1661
  186POPC   C2721335   3.596   5.695   6.443 -0.5986  0.0158 -0.2606
  186POPC   H7R21336   3.508   5.757   6.415 -1.2499 -1.2572 -1.1341
  186POPC   H7S21337   3.552   5.600   6.481  0.5392 -0.8793 -1.0983
  186POPC   C2821338   3.671   5.652   6.316  0.2511  0.5094 -0.5180
  186POPC   H8R21339   3.750   5.585   6.354 -0.0103  0.7989  0.5772
  186POPC   H8S21340   3.714   5.744   6.270  1.6720  0.1205  0.0042
  186POPC   C2921341   3.586   5.587   6.216 -0.2064  0.2179  0.5954
  186POPC   H9121342   3.545   5.490   6.247  1.6659 -1.4430 -1.7856
  186POPC  C21021343   3.536   5.640   6.107 -0.0516  0.1827  0.3369
  186POPC  H10121344   3.481   5.571   6.042  0.1488  0.3186  0.0231
  186POPC  C21121345   3.570   5.780   6.056 -0.0598  0.5899  0.0670
  186POPC  H11R21346   3.666   5.825   6.088 -0.2267  2.1066 -1.4471
  186POPC  H11S21347   3.495   5.853   6.093 -0.9027  0.8007 -1.9328
  186POPC  C21221348   3.566   5.766   5.898  1.1695 -0.1957  0.2600
  186POPC  H12R21349   3.473   5.718   5.862  0.7779 -1.8485  3.0885
  186POPC  H12S21350   3.656   5.703   5.877  0.7350 -1.3284  1.6420
  186POPC  C21321351   3.580   5.901   5.829 -0.6023  0.6403 -0.2351
  186POPC  H13R21352   3.672   5.954   5.861 -0.1965  0.6493 -1.3936
  186POPC  H13S21353   3.496   5.972   5.848  0.9788  2.6043 -0.2612
  186POPC  C21421354   3.597   5.884   5.680  0.4110 -0.3501  0.0792
  186POPC  H14R21355   3.492   5.880   5.643  0.8066 -0.1526 -1.0881
  186POPC  H14S21356   3.630   5.778   5.673 -3.1546 -1.5702 -0.2818
  186POPC  C21521357   3.667   5.985   5.596 -0.8303 -0.4534 -0.1193
  186POPC  H15R21358   3.653   6.088   5.634 -3.8377 -0.7315 -0.2701
  186POPC  H15S21359   3.629   5.977   5.492  0.3340 -3.4818 -0.4321
  186POPC  C21621360   3.824   5.983   5.588 -0.2017  0.1535  0.6154
  186POPC  H16R21361   3.841   5.877   5.560 -0.5781 -0.2585  1.8715
  186POPC  H16S21362   3.863   5.994   5.692 -0.5361 -1.3682  0.9390
  186POPC  C21721363   3.891   6.086   5.498 -0.6784  0.7419 -0.0176
  186POPC  H17R21364   3.861   6.187   5.534  0.4794 -0.0159  3.4523
  186POPC  H17S21365   3.861   6.078   5.391 -2.0109 -0.7072  0.4299
  186POPC  C21821366   4.039   6.081   5.497  0.7470  0.7165  0.1698
  186POPC  H18R21367   4.069   5.976   5.476  0.9336  0.8485 -0.2349
  186POPC  H18S21368   4.082   6.107   5.595  1.2708 -0.5379  0.2867
  186POPC  H18T21369   4.086   6.142   5.417  1.5108  0.4858  0.4358
  186POPC   C3321370   3.503   6.272   6.839  0.3839 -0.0237 -0.0514
  186POPC   H3X21371   3.574   6.187   6.843  0.5616  0.1617  1.9153
  186POPC   H3Y21372   3.562   6.366   6.838 -3.3908  2.6016  0.6206
  186POPC   C3421373   3.399   6.261   6.727  0.3825  0.3460  0.3025
  186POPC   H4X21374   3.328   6.345   6.742  2.1278  1.9218  0.0919
  186POPC   H4Y21375   3.354   6.160   6.719  1.7315 -0.1441 -2.5077
  186POPC   C3521376   3.468   6.272   6.588  0.1441  0.0514  0.4177
  186POPC   H5X21377   3.532   6.363   6.589  0.6407 -0.2897  0.9503
  186POPC   H5Y21378   3.397   6.279   6.504 -2.0493 -1.6114  2.0142
  186POPC   C3621379   3.565   6.153   6.541  0.6570  1.2308 -0.1794
  186POPC   H6X21380   3.521   6.051   6.535 -0.7222  1.4615  3.4140
  186POPC   H6Y21381   3.634   6.148   6.628  0.1438 -0.3791  0.1792
  186POPC   C3721382   3.618   6.180   6.402 -0.2752  0.3617 -0.5783
  186POPC   H7X21383   3.666   6.280   6.406 -1.8262  1.1563 -0.9502
  186POPC   H7Y21384   3.535   6.191   6.329 -1.5053 -2.1929  0.3131
  186POPC   C3821385   3.726   6.091   6.337  0.2197  0.0777  0.0716
  186POPC   H8X21386   3.701   5.983   6.349  1.0325  0.0121  1.3263
  186POPC   H8Y21387   3.826   6.097   6.386 -1.2019  0.0755  3.1978
  186POPC   C3921388   3.749   6.124   6.190 -0.0259 -0.0913 -0.2143
  186POPC   H9X21389   3.649   6.120   6.141 -0.3751 -1.8953  0.5793
  186POPC   H9Y21390   3.809   6.045   6.139  1.4687 -0.4603  1.9911
  186POPC  C31021391   3.816   6.253   6.154 -0.1654  0.2825  0.9656
  186POPC  H10X21392   3.923   6.248   6.183 -0.3521 -1.6606  1.4373
  186POPC  H10Y21393   3.773   6.344   6.201 -0.0421  2.6842 -3.0708
  186POPC  C31121394   3.797   6.276   5.997 -0.2868  0.4128  0.5811
  186POPC  H11X21395   3.812   6.181   5.942 -1.0358 -0.8015  2.3877
  186POPC  H11Y21396   3.876   6.348   5.967  0.9685 -1.1876 -0.0707
  186POPC  C31221397   3.658   6.335   5.951 -0.7466 -0.0682 -0.8863
  186POPC  H12X21398   3.648   6.433   6.003  2.4300  0.4969 -1.1209
  186POPC  H12Y21399   3.584   6.269   5.999  0.3390 -0.9538 -0.3771
  186POPC  C31321400   3.634   6.348   5.799  0.4262 -0.5780  0.1137
  186POPC  H13X21401   3.528   6.349   5.766  0.3745  2.7454  0.0566
  186POPC  H13Y21402   3.677   6.257   5.752  0.1828 -1.8023  2.1568
  186POPC  C31421403   3.709   6.463   5.735  0.0166  0.5490 -0.5776
  186POPC  H14X21404   3.819   6.452   5.743 -0.2858 -1.8427  1.5033
  186POPC  H14Y21405   3.705   6.558   5.794  0.8308 -0.5638  1.3772
  186POPC  C31521406   3.677   6.494   5.592 -0.1862  0.4157  0.3261
  186POPC  H15X21407   3.675   6.403   5.529 -2.4773 -0.0920  1.0549
  186POPC  H15Y21408   3.748   6.569   5.548 -2.7367  1.5765 -2.1353
  186POPC  C31621409   3.537   6.548   5.579 -0.4293 -0.5467  1.2317
  186POPC  H16X21410   3.515   6.608   5.671 -0.8510  2.3357 -0.6195
  186POPC  H16Y21411   3.454   6.476   5.569 -0.8993  0.2669 -1.4966
  186POPC  H16Z21412   3.538   6.622   5.496  3.0571 -0.1883  1.4125
  187POPC     N21413   2.143   4.139   2.268  0.2864 -0.3496 -0.4117
  187POPC   C1221414   2.019   4.087   2.350 -0.3264  0.3519 -0.0928
  187POPC  H12A21415   2.038   3.984   2.375  1.6941  0.4427 -1.0839
  187POPC  H12B21416   1.928   4.095   2.293 -3.7624 -1.0266  4.5360
  187POPC   C1321417   2.123   4.288   2.237  0.3492  0.4461  0.2160
  187POPC  H13A21418   2.203   4.325   2.175  1.5897 -1.0766  0.8324
  187POPC  H13B21419   2.030   4.309   2.187 -0.0597 -0.0624  0.7467
  187POPC  H13C21420   2.114   4.341   2.330 -0.6583 -0.2300  0.5176
  187POPC   C1421421   2.271   4.121   2.346  0.1929  0.1737 -0.3680
  187POPC  H14A21422   2.353   4.179   2.307  0.3032  0.2083 -0.0886
  187POPC  H14B21423   2.255   4.147   2.450 -1.2717 -1.3254 -0.1723
  187POPC  H14C21424   2.305   4.019   2.356 -1.0565 -0.2747 -0.4588
  187POPC   C1521425   2.164   4.059   2.144  0.3062 -0.7780 -0.1402
  187POPC  H15A21426   2.174   3.953   2.164 -0.2432 -0.9949 -0.9587
  187POPC  H15B21427   2.255   4.090   2.095  0.8541  0.1117  1.3684
  187POPC  H15C21428   2.082   4.071   2.074 -1.0062 -0.3045  1.4153
  187POPC   C1121429   1.988   4.163   2.483  0.0449 -0.3575 -0.4722
  187POPC  H11A21430   1.889   4.128   2.521 -0.3042  1.2573  0.1566
  187POPC  H11B21431   1.972   4.272   2.472 -2.2703 -0.5320  0.6161
  187POPC     P21432   2.083   4.022   2.682  0.0862 -0.1764 -0.0431
  187POPC   O1321433   2.223   3.973   2.706 -0.1104 -0.3262 -0.1193
  187POPC   O1421434   1.980   3.926   2.646  0.1071 -0.1118  0.3131
  187POPC   O1221435   2.093   4.139   2.577 -0.1592 -0.0246 -0.0305
  187POPC   O1121436   2.032   4.107   2.802 -0.1481 -0.9021 -0.5691
  187POPC    C121437   2.095   4.228   2.852 -0.2246 -0.1013 -0.5932
  187POPC    HA21438   2.062   4.318   2.796 -3.3791 -0.3177  0.7019
  187POPC    HB21439   2.206   4.223   2.853 -0.1256  1.4884  0.5963
  187POPC    C221440   2.064   4.252   3.008  0.0428  0.9193 -0.1659
  187POPC    HS21441   2.136   4.329   3.044  1.2639 -0.8387  1.3551
  187POPC   O2121442   2.083   4.127   3.078  0.4346 -0.1769  0.6641
  187POPC   C2121443   2.205   4.104   3.137  0.0285 -0.5468 -0.4125
  187POPC   O2221444   2.289   4.185   3.139 -0.3417  0.6387 -0.3995
  187POPC   C2221445   2.206   3.967   3.202 -0.1936 -0.7807 -0.1209
  187POPC   H2R21446   2.205   3.883   3.129  1.7971 -0.0466 -1.0506
  187POPC   H2S21447   2.107   3.950   3.252  1.3001 -2.6268  2.4770
  187POPC    C321448   1.928   4.316   3.046  0.1051 -0.0534  0.3632
  187POPC    HX21449   1.856   4.233   3.026 -0.7438 -0.0377  2.9711
  187POPC    HY21450   1.918   4.407   2.984  0.0151  0.1737  0.7101
  187POPC   O3121451   1.921   4.337   3.188 -0.1297  0.7612 -0.0004
  187POPC   C3121452   1.955   4.452   3.232 -0.6642  0.4258  0.0184
  187POPC   O3221453   2.006   4.543   3.160 -0.5369 -0.0526  0.1361
  187POPC   C3221454   1.921   4.467   3.378  0.0229 -0.3640 -0.0048
  187POPC   H2X21455   1.890   4.363   3.404 -0.5351 -0.6533 -1.7061
  187POPC   H2Y21456   1.839   4.542   3.384  1.0620  0.7450  0.7200
  187POPC   C2321457   2.309   3.950   3.311 -0.6203 -0.7208 -0.8076
  187POPC   H3R21458   2.412   3.965   3.274  0.3566 -1.1385  1.5379
  187POPC   H3S21459   2.301   3.848   3.355  0.5205 -1.0247 -1.2774
  187POPC   C2421460   2.278   4.047   3.432 -0.0343 -0.2478 -0.2002
  187POPC   H4R21461   2.178   4.019   3.473  0.1543 -0.6204  0.0163
  187POPC   H4S21462   2.275   4.153   3.402 -0.1486  0.2553  1.4694
  187POPC   C2521463   2.380   4.032   3.543  0.0370 -0.4674  0.1986
  187POPC   H5R21464   2.471   4.089   3.513 -1.6460  2.5282  0.3605
  187POPC   H5S21465   2.405   3.925   3.556 -0.8329 -0.6358  0.5645
  187POPC   C2621466   2.329   4.081   3.679 -0.1648 -0.8386 -0.1469
  187POPC   H6R21467   2.238   4.026   3.710 -0.4420  0.6866  1.9823
  187POPC   H6S21468   2.300   4.187   3.665 -1.6341 -0.9056  1.9853
  187POPC   C2721469   2.436   4.085   3.789 -0.1089  0.2994  0.5342
  187POPC   H7R21470   2.531   4.123   3.745 -0.8604  4.2054  1.8868
  187POPC   H7S21471   2.441   3.977   3.816 -2.2895  0.0521  0.0891
  187POPC   C2821472   2.404   4.161   3.916 -0.4958 -0.1545 -0.3487
  187POPC   H8R21473   2.395   4.270   3.898 -0.5525 -0.4024 -1.9979
  187POPC   H8S21474   2.498   4.148   3.974 -0.5441 -4.2105 -0.8577
  187POPC   C2921475   2.277   4.124   3.990  0.7952 -0.3381 -0.4198
  187POPC   H9121476   2.195   4.076   3.935 -0.2607  0.3442  0.5168
  187POPC  C21021477   2.277   4.105   4.124 -0.5984  0.5839  0.0356
  187POPC  H10121478   2.185   4.075   4.177 -0.5912  0.5839  0.0484
  187POPC  C21121479   2.388   4.156   4.223  0.2566 -0.5718 -0.5418
  187POPC  H11R21480   2.446   4.241   4.180 -1.3512  1.2290  0.6865
  187POPC  H11S21481   2.455   4.073   4.255 -0.1996 -1.4551 -1.8010
  187POPC  C21221482   2.321   4.225   4.338 -1.1137 -0.4773 -0.0012
  187POPC  H12R21483   2.243   4.158   4.381  0.4169 -1.9067  0.6648
  187POPC  H12S21484   2.263   4.310   4.295  0.7441  0.3540 -0.9519
  187POPC  C21321485   2.422   4.270   4.443  0.0500 -0.2602  0.1833
  187POPC  H13R21486   2.489   4.339   4.387 -1.6553  1.1616 -0.2187
  187POPC  H13S21487   2.478   4.179   4.471  1.7295  1.0781  1.3943
  187POPC  C21421488   2.345   4.332   4.563  0.0039 -0.1882 -0.1400
  187POPC  H14R21489   2.265   4.271   4.610  1.4205 -1.3187  0.8688
  187POPC  H14S21490   2.293   4.421   4.519  1.0766  0.7251  0.3723
  187POPC  C21521491   2.443   4.398   4.656 -0.2207 -0.2675  0.3207
  187POPC  H15R21492   2.387   4.461   4.727 -3.4016 -0.4055 -1.8792
  187POPC  H15S21493   2.505   4.466   4.593 -0.1577 -1.8024 -1.3730
  187POPC  C21621494   2.523   4.295   4.722  0.0250  0.3377  0.2564
  187POPC  H16R21495   2.594   4.243   4.654  2.9018 -0.1166  3.3594
  187POPC  H16S21496   2.446   4.225   4.763 -1.0543  0.5268 -1.3347
  187POPC  C21721497   2.589   4.351   4.846 -1.0600 -0.3468 -0.7506
  187POPC  H17R21498   2.517   4.412   4.905 -1.0971  0.1616 -1.3181
  187POPC  H17S21499   2.669   4.421   4.814  0.8437 -2.2663 -0.4524
  187POPC  C21821500   2.654   4.252   4.944  0.0869 -0.9819 -0.1604
  187POPC  H18R21501   2.747   4.220   4.891 -0.0447 -1.1909 -0.2663
  187POPC  H18S21502   2.582   4.170   4.963 -2.8368  1.6361  0.7539
  187POPC  H18T21503   2.685   4.296   5.041 -2.1858 -0.3307  0.3128
  187POPC   C3321504   2.027   4.533   3.469 -0.2709  0.1051 -0.7925
  187POPC   H3X21505   2.035   4.641   3.447  3.1406 -0.2282 -1.6926
  187POPC   H3Y21506   2.126   4.484   3.455 -0.2883  0.0921 -0.8716
  187POPC   C3421507   2.003   4.515   3.618 -0.2808 -0.1667  0.0784
  187POPC   H4X21508   1.996   4.405   3.632 -1.5357 -0.2108 -0.7140
  187POPC   H4Y21509   1.908   4.570   3.634 -0.9880 -1.1769 -0.5251
  187POPC   C3521510   2.108   4.589   3.710 -0.4581 -0.3079 -0.4977
  187POPC   H5X21511   2.112   4.696   3.679  1.2694 -0.4312 -0.7489
  187POPC   H5Y21512   2.207   4.545   3.685  1.1553  2.5200  0.5069
  187POPC   C3621513   2.087   4.556   3.861  0.0206  0.5901  0.1004
  187POPC   H6X21514   2.094   4.448   3.883 -3.0968 -0.2999 -2.4719
  187POPC   H6Y21515   1.988   4.596   3.890  1.1814  2.7450  1.3734
  187POPC   C3721516   2.201   4.614   3.951 -0.2709 -0.9644 -0.2210
  187POPC   H7X21517   2.244   4.704   3.902 -1.2083  1.0739  2.4543
  187POPC   H7Y21518   2.285   4.542   3.965 -0.1168 -0.8983 -0.7746
  187POPC   C3821519   2.170   4.676   4.090  0.1139 -0.2080 -0.1393
  187POPC   H8X21520   2.075   4.733   4.086 -0.0620 -0.5540 -1.2058
  187POPC   H8Y21521   2.255   4.742   4.118  1.0683 -1.9931  1.3914
  187POPC   C3921522   2.166   4.565   4.199 -0.2272 -0.4649  0.0205
  187POPC   H9X21523   2.254   4.499   4.187  0.6373  0.9441 -1.6397
  187POPC   H9Y21524   2.073   4.505   4.186  0.3797 -1.4025 -0.0473
  187POPC  C31021525   2.170   4.616   4.349 -0.4549  0.1592  0.3323
  187POPC  H10X21526   2.150   4.529   4.415  2.2923 -0.9225 -0.1231
  187POPC  H10Y21527   2.085   4.685   4.368 -1.2951 -0.4714 -0.9936
  187POPC  C31121528   2.301   4.694   4.393 -0.2717 -0.7718  0.7685
  187POPC  H11X21529   2.303   4.791   4.339  0.2763 -0.3941  1.4383
  187POPC  H11Y21530   2.396   4.642   4.366 -0.4173 -0.1468 -1.1067
  187POPC  C31221531   2.301   4.735   4.543  0.1824  0.6068  0.5703
  187POPC  H12X21532   2.277   4.644   4.603 -3.9863  0.1666 -1.4181
  187POPC  H12Y21533   2.222   4.812   4.545 -0.7495 -0.2907 -0.3466
  187POPC  C31321534   2.442   4.786   4.580 -0.5694  0.2959 -0.6105
  187POPC  H13X21535   2.471   4.851   4.496  2.8437 -1.2406 -0.8074
  187POPC  H13Y21536   2.511   4.701   4.562 -0.0308  0.8669 -1.2469
  187POPC  C31421537   2.447   4.842   4.720 -0.4670  0.0080 -0.7245
  187POPC  H14X21538   2.356   4.906   4.722  1.0637  2.3130 -0.2308
  187POPC  H14Y21539   2.535   4.906   4.743 -1.1600  1.2395 -1.4207
  187POPC  C31521540   2.438   4.740   4.834 -0.6883  0.5457 -0.2018
  187POPC  H15X21541   2.530   4.678   4.836 -1.6975 -1.0742  3.0445
  187POPC  H15Y21542   2.357   4.666   4.821 -0.1909  0.2934 -2.1387
  187POPC  C31621543   2.417   4.798   4.973 -0.1535 -0.3727  0.4527
  187POPC  H16X21544   2.324   4.858   4.963 -0.4514 -0.9662 -0.3722
  187POPC  H16Y21545   2.501   4.864   5.004  0.9773 -1.2782 -0.5828
  187POPC  H16Z21546   2.383   4.737   5.059  3.7560 -2.3160  0.8473
  188POPC     N21547   1.337   3.723   2.424 -0.0890  0.8371  0.1278
  188POPC   C1221548   1.212   3.661   2.496 -0.0065 -0.1317 -0.2368
  188POPC  H12A21549   1.184   3.569   2.447 -0.9924  0.1095 -0.1307
  188POPC  H12B21550   1.124   3.722   2.485  1.5397  2.0874 -0.9919
  188POPC   C1321551   1.451   3.631   2.399  0.3033 -0.1980 -0.0560
  188POPC  H13A21552   1.424   3.531   2.370  0.4823 -0.8684  1.9642
  188POPC  H13B21553   1.507   3.668   2.314 -2.1106  1.2368 -1.1513
  188POPC  H13C21554   1.517   3.629   2.484 -0.0244  0.2941  0.2129
  188POPC   C1421555   1.286   3.772   2.288  0.4574 -0.7984  0.5207
  188POPC  H14A21556   1.266   3.682   2.233 -0.0018 -1.5687  1.9110
  188POPC  H14B21557   1.197   3.832   2.304  1.2507  0.0254  2.1437
  188POPC  H14C21558   1.355   3.827   2.227  0.8610 -0.6205  1.1304
  188POPC   C1521559   1.384   3.846   2.492  0.6171 -0.1662  0.2313
  188POPC  H15A21560   1.393   3.839   2.599  2.2136  0.2406  0.1475
  188POPC  H15B21561   1.309   3.924   2.482  0.4706 -0.2036  0.9571
  188POPC  H15C21562   1.474   3.884   2.446  0.0721 -0.2351 -0.9322
  188POPC   C1121563   1.228   3.614   2.640 -0.0723 -0.4424  0.2811
  188POPC  H11A21564   1.136   3.560   2.672  0.1327 -2.4826 -2.2388
  188POPC  H11B21565   1.231   3.708   2.700 -1.7218  0.3931 -0.8676
  188POPC     P21566   1.334   3.381   2.678 -0.0044  0.0940 -0.2825
  188POPC   O1321567   1.468   3.326   2.647 -0.3521  0.3016 -0.2809
  188POPC   O1421568   1.220   3.327   2.600 -0.4050 -0.3247 -0.6906
  188POPC   O1221569   1.339   3.533   2.663 -0.3957 -0.5406 -0.0278
  188POPC   O1121570   1.299   3.353   2.834  0.2569  0.3646  0.0322
  188POPC    C121571   1.364   3.432   2.933 -0.5496 -0.6290  0.4396
  188POPC    HA21572   1.314   3.414   3.030  1.0950  0.9406  1.6496
  188POPC    HB21573   1.361   3.540   2.906 -0.7737 -1.0113 -1.1807
  188POPC    C221574   1.520   3.406   2.954 -0.0631  0.0407  0.9514
  188POPC    HS21575   1.556   3.445   2.856 -0.5871 -0.0975  0.7021
  188POPC   O2121576   1.547   3.268   2.969  0.2218  0.0429  0.0256
  188POPC   C2121577   1.676   3.238   2.941  0.6776 -0.4914  0.0262
  188POPC   O2221578   1.764   3.318   2.907  0.2166  0.7320 -0.3265
  188POPC   C2221579   1.707   3.094   2.971  0.4040  0.1063 -0.4492
  188POPC   H2R21580   1.760   3.065   2.878 -0.2830  0.8795 -1.0932
  188POPC   H2S21581   1.619   3.029   2.987 -0.4040  1.3585  0.4373
  188POPC    C321582   1.568   3.497   3.070  0.3877  0.3100  0.0183
  188POPC    HX21583   1.521   3.596   3.051  2.2639  1.4173  0.8229
  188POPC    HY21584   1.678   3.516   3.072  0.3872  0.6646  3.8269
  188POPC   O3121585   1.543   3.438   3.199  0.2479  0.5136  0.1703
  188POPC   C3121586   1.452   3.483   3.275  0.4046  0.1178 -0.4568
  188POPC   O3221587   1.364   3.562   3.247 -0.8232  0.1329 -0.6629
  188POPC   C3221588   1.460   3.416   3.417  0.0877 -0.0035 -0.1105
  188POPC   H2X21589   1.461   3.304   3.413 -1.2994 -0.1221  1.9651
  188POPC   H2Y21590   1.370   3.435   3.478 -0.8306 -1.6727 -0.8693
  188POPC   C2321591   1.808   3.075   3.081 -0.2498 -0.0576 -0.7886
  188POPC   H3R21592   1.882   3.158   3.078  1.3017 -1.4089 -0.9474
  188POPC   H3S21593   1.865   2.980   3.079 -0.4837 -0.1946 -1.0789
  188POPC   C2421594   1.735   3.075   3.212  0.6534 -0.3089  0.2777
  188POPC   H4R21595   1.691   2.973   3.216  3.2054 -1.4995  0.2275
  188POPC   H4S21596   1.645   3.140   3.220 -2.5571 -4.4765  1.7643
  188POPC   C2521597   1.829   3.093   3.332  0.7708 -0.4030  0.5923
  188POPC   H5R21598   1.852   3.202   3.334 -1.1192  0.0468  0.0208
  188POPC   H5S21599   1.923   3.036   3.314 -0.6805 -2.4440 -0.9303
  188POPC   C2621600   1.762   3.023   3.449  0.2763 -0.2811  0.4804
  188POPC   H6R21601   1.752   2.918   3.415  2.3084  0.1400 -1.7145
  188POPC   H6S21602   1.663   3.071   3.461  0.0331 -0.3053 -1.1003
  188POPC   C2721603   1.840   3.019   3.580 -0.8894  1.0049 -0.0260
  188POPC   H7R21604   1.946   2.986   3.581 -0.7673  1.1610 -2.2355
  188POPC   H7S21605   1.792   2.940   3.641  1.0150 -0.6136 -0.5315
  188POPC   C2821606   1.823   3.150   3.666  0.3292  0.5677 -0.2298
  188POPC   H8R21607   1.715   3.150   3.692 -0.1137 -0.5860 -1.8608
  188POPC   H8S21608   1.839   3.240   3.603  0.5008  0.9873  0.4024
  188POPC   C2921609   1.911   3.160   3.782 -0.6694 -0.4861  0.4971
  188POPC   H9121610   2.013   3.190   3.753 -1.0451 -0.8911 -1.3508
  188POPC  C21021611   1.893   3.138   3.917 -0.5693  0.6075 -0.1970
  188POPC  H10121612   1.975   3.151   3.989  1.5873 -1.0934 -2.1717
  188POPC  C21121613   1.765   3.098   3.983  0.5935 -0.0746 -0.1338
  188POPC  H11R21614   1.759   2.988   3.971  1.5249 -0.0092 -1.5028
  188POPC  H11S21615   1.685   3.150   3.926  0.8143  0.5676  0.1292
  188POPC  C21221616   1.746   3.145   4.127 -0.1541 -0.0376  0.6065
  188POPC  H12R21617   1.639   3.148   4.155  0.3860  1.2157  2.7670
  188POPC  H12S21618   1.795   3.243   4.145  1.4349 -0.6501 -0.2090
  188POPC  C21321619   1.806   3.048   4.233  0.0862  0.4827  1.0108
  188POPC  H13R21620   1.914   3.034   4.210 -0.2922 -0.0691 -0.5979
  188POPC  H13S21621   1.753   2.956   4.199  1.6778  0.6426 -2.4317
  188POPC  C21421622   1.793   3.079   4.376 -0.6013  0.1551  1.0003
  188POPC  H14R21623   1.812   2.982   4.426 -1.4396  0.7209  2.4777
  188POPC  H14S21624   1.689   3.108   4.403 -1.4038 -0.9291 -0.7543
  188POPC  C21521625   1.895   3.183   4.428  0.6180  0.2475  0.5272
  188POPC  H15R21626   1.866   3.276   4.375 -1.6173  0.5409  2.1221
  188POPC  H15S21627   2.002   3.167   4.405  0.8416  1.2443  0.8409
  188POPC  C21621628   1.883   3.214   4.576  0.4858  0.5785  0.4228
  188POPC  H16R21629   1.779   3.244   4.602  0.3225  0.9673 -0.6240
  188POPC  H16S21630   1.949   3.301   4.594  2.4037 -0.6957 -0.0997
  188POPC  C21721631   1.927   3.101   4.670  0.4112 -0.7169  0.2742
  188POPC  H17R21632   2.035   3.080   4.653  1.1843  1.8482  1.5659
  188POPC  H17S21633   1.861   3.015   4.641  0.9510  0.2677 -4.8663
  188POPC  C21821634   1.913   3.138   4.819 -0.2547 -0.7705 -0.6723
  188POPC  H18R21635   1.978   3.223   4.848  1.4280 -1.1480 -3.0092
  188POPC  H18S21636   1.950   3.049   4.873  1.3475 -0.0573 -0.5336
  188POPC  H18T21637   1.805   3.156   4.839 -0.4188  0.4487 -2.4120
  188POPC   C3321638   1.588   3.466   3.494  0.1088  0.3347 -0.3864
  188POPC   H3X21639   1.663   3.497   3.419  0.2341  0.1636 -0.3311
  188POPC   H3Y21640   1.614   3.386   3.567 -0.1278  0.5155 -0.1038
  188POPC   C3421641   1.574   3.590   3.583 -0.9800 -0.3544  0.5426
  188POPC   H4X21642   1.513   3.669   3.533 -1.6454 -1.7179 -0.8941
  188POPC   H4Y21643   1.675   3.637   3.583 -0.6119 -1.1155  0.0242
  188POPC   C3521644   1.551   3.574   3.729 -0.2008 -0.0462  0.0116
  188POPC   H5X21645   1.445   3.550   3.751  0.4134 -1.2855  1.7849
  188POPC   H5Y21646   1.569   3.676   3.770  2.4121 -0.3963 -0.0976
  188POPC   C3621647   1.635   3.471   3.811  0.7556 -0.5647 -0.3275
  188POPC   H6X21648   1.742   3.492   3.792  1.2585 -0.2783  2.3443
  188POPC   H6Y21649   1.613   3.369   3.774 -1.7122  0.2198 -1.2881
  188POPC   C3721650   1.613   3.478   3.965  0.0328  0.2281 -0.8499
  188POPC   H7X21651   1.678   3.403   4.015 -0.3421  0.4680  0.0231
  188POPC   H7Y21652   1.510   3.446   3.991  0.1739  0.8625  0.6258
  188POPC   C3821653   1.667   3.603   4.033  0.6702 -0.6560  0.0291
  188POPC   H8X21654   1.597   3.690   4.026  0.2236 -0.8355  1.7528
  188POPC   H8Y21655   1.760   3.630   3.979  0.5488 -0.7372 -0.2205
  188POPC   C3921656   1.705   3.576   4.181 -0.0312 -0.4091  0.1723
  188POPC   H9X21657   1.741   3.670   4.229  1.7204 -1.1487  0.3909
  188POPC   H9Y21658   1.787   3.501   4.185  1.0158  0.6222 -1.2890
  188POPC  C31021659   1.580   3.525   4.258  0.1441 -0.0996 -0.2106
  188POPC  H10X21660   1.532   3.436   4.211 -1.9579  0.5085  0.6732
  188POPC  H10Y21661   1.501   3.603   4.244 -0.2540  0.0762  2.4745
  188POPC  C31121662   1.600   3.502   4.409 -0.1752  0.4293  0.6999
  188POPC  H11X21663   1.681   3.427   4.418  0.5417  1.1477  0.3492
  188POPC  H11Y21664   1.509   3.461   4.457 -0.5364 -0.5644 -0.7815
  188POPC  C31221665   1.641   3.636   4.480  0.2737 -0.2645 -0.1115
  188POPC  H12X21666   1.584   3.725   4.445  3.3037  1.7295 -0.3211
  188POPC  H12Y21667   1.740   3.668   4.442 -0.8542  2.0032 -1.3372
  188POPC  C31321668   1.644   3.627   4.634  0.2700 -0.4868 -0.0651
  188POPC  H13X21669   1.556   3.568   4.666  2.0001 -2.2644  1.6853
  188POPC  H13Y21670   1.649   3.728   4.680  0.8018 -0.9404  0.8925
  188POPC  C31421671   1.769   3.545   4.691  0.3941  0.3553 -0.0080
  188POPC  H14X21672   1.863   3.592   4.655  0.0130  1.3383  0.2649
  188POPC  H14Y21673   1.758   3.443   4.647  1.5050  0.1669  0.1211
  188POPC  C31521674   1.773   3.542   4.846 -0.0699 -0.1836 -0.0893
  188POPC  H15X21675   1.817   3.443   4.871  0.9839  0.5601  1.1676
  188POPC  H15Y21676   1.673   3.518   4.890 -0.6746 -0.2588 -1.4663
  188POPC  C31621677   1.830   3.666   4.916 -0.0458 -0.3825 -0.7256
  188POPC  H16X21678   1.761   3.753   4.914  0.8015  0.6024  3.5598
  188POPC  H16Y21679   1.923   3.693   4.860 -0.7364  0.3591 -1.5457
  188POPC  H16Z21680   1.867   3.667   5.021 -0.2872 -0.8034 -0.6356
  189SAPI   C1221681   2.674   2.890   7.089  0.0238 -0.7652 -0.0626
  189SAPI    H221682   2.685   2.967   7.009  0.1395 -0.8407 -0.1192
  189SAPI    O221683   2.606   2.786   7.030 -0.3838  0.7365 -0.1489
  189SAPI   HO221684   2.546   2.811   6.960 -1.2096  1.2965  0.7303
  189SAPI   C1321685   2.811   2.843   7.140  0.0437 -0.2481  0.1152
  189SAPI    H321686   2.854   2.933   7.189 -0.5022 -0.1189  0.3554
  189SAPI    O321687   2.903   2.810   7.039  0.3483  0.6388  0.4007
  189SAPI   HO321688   2.863   2.746   6.980  2.2559  0.3457 -0.6242
  189SAPI   C1421689   2.793   2.739   7.256 -0.6897 -0.7888  0.9440
  189SAPI    H421690   2.762   2.642   7.212  0.1311 -1.1691  1.1829
  189SAPI    O421691   2.912   2.730   7.332  0.2976  0.3678 -0.2138
  189SAPI   HO421692   2.927   2.636   7.331 -2.0099 -0.1369 -3.8068
  189SAPI   C1521693   2.682   2.765   7.354 -0.3856 -0.2593 -0.3071
  189SAPI    H521694   2.725   2.839   7.425 -2.8256  0.6646  0.2822
  189SAPI    O521695   2.648   2.658   7.436 -0.0005 -0.3243 -1.0299
  189SAPI   HO521696   2.593   2.594   7.391 -0.3519  0.6157 -1.9991
  189SAPI   C1621697   2.561   2.848   7.306  0.0631  0.2008  0.7887
  189SAPI    H621698   2.493   2.773   7.259  0.6739 -0.9789  1.7320
  189SAPI    O621699   2.484   2.898   7.413  0.5763  0.0803 -0.4608
  189SAPI   HO621700   2.398   2.855   7.411  1.4476 -1.8309  0.3374
  189SAPI   C1121701   2.593   2.949   7.199  0.1627 -0.1934 -0.4345
  189SAPI    H121702   2.650   3.027   7.254 -1.5052  1.5344 -1.0190
  189SAPI     P21703   2.421   3.154   7.180 -0.0256  0.6517 -0.0870
  189SAPI   O1321704   2.489   3.203   7.295 -0.4253  0.4531  0.0872
  189SAPI   O1421705   2.276   3.167   7.183 -0.1918  0.2396 -0.0688
  189SAPI   O1221706   2.464   3.004   7.148  0.0998  0.2231 -0.3874
  189SAPI   O1121707   2.475   3.234   7.058  0.0357 -0.3274  0.0282
  189SAPI    C121708   2.442   3.371   7.040  0.3368  0.2908 -0.4117
  189SAPI    HA21709   2.331   3.381   7.039  0.4087  1.0666 -1.6192
  189SAPI    HB21710   2.489   3.437   7.116  0.1650 -2.2589  2.0737
  189SAPI    C221711   2.487   3.417   6.901  0.7869 -0.2354  0.3169
  189SAPI    HS21712   2.459   3.522   6.880  0.0054  0.0325  2.5481
  189SAPI   O2121713   2.431   3.335   6.800 -0.2889  0.0669 -0.6365
  189SAPI   C2121714   2.301   3.352   6.765  1.1353  0.0518 -1.0998
  189SAPI   O2221715   2.221   3.429   6.819  0.5269  0.8505 -0.1667
  189SAPI   C2221716   2.285   3.267   6.634 -0.1745  0.0444 -0.6330
  189SAPI   H2R21717   2.378   3.209   6.617  0.4925  1.1240 -0.7947
  189SAPI   H2S21718   2.203   3.195   6.657  0.2482 -0.1960  0.1547
  189SAPI    C321719   2.639   3.420   6.892 -0.1333 -0.2175  0.5198
  189SAPI    HX21720   2.678   3.320   6.922 -1.8182 -1.9310 -2.5001
  189SAPI    HY21721   2.670   3.497   6.966 -0.7101 -0.0023  0.5375
  189SAPI   O3121722   2.697   3.462   6.763  0.5901  0.2731  0.2416
  189SAPI   C3121723   2.718   3.366   6.682 -0.0832  0.6268  0.1085
  189SAPI   O3221724   2.705   3.243   6.693  0.2052  0.4586  0.3260
  189SAPI   C3221725   2.768   3.437   6.548  0.5404  0.1355  0.0804
  189SAPI   H2X21726   2.848   3.507   6.580  0.6173 -0.1060  0.4133
  189SAPI   H2Y21727   2.685   3.501   6.511  2.0635  0.1904 -3.7113
  189SAPI   C2321728   2.256   3.359   6.512 -0.3836  0.5475  0.3929
  189SAPI   H3R21729   2.163   3.410   6.544 -0.1672  0.0073  1.9320
  189SAPI   H3S21730   2.251   3.301   6.417  1.5647  1.1003 -0.0812
  189SAPI   C2421731   2.364   3.470   6.480  0.1494  0.1289 -0.5237
  189SAPI   H4R21732   2.463   3.420   6.479  0.4727  0.7453 -1.6801
  189SAPI   H4S21733   2.362   3.551   6.557  1.5476  0.6159 -0.9696
  189SAPI   C2521734   2.346   3.539   6.347 -0.1369  0.2702  0.4081
  189SAPI   H5R21735   2.293   3.636   6.346 -2.0156 -0.7035 -0.7582
  189SAPI   C2621736   2.388   3.490   6.229 -0.2495 -0.2507 -0.0938
  189SAPI   H6R21737   2.390   3.554   6.139 -1.3723 -0.8355 -0.5456
  189SAPI   C2721738   2.456   3.353   6.213 -0.0930 -0.0061  0.0848
  189SAPI   H7R21739   2.476   3.291   6.302 -0.0288 -0.3829 -0.1902
  189SAPI   H7S21740   2.555   3.370   6.165  0.0304 -0.9435 -0.0147
  189SAPI   C2821741   2.370   3.284   6.105 -0.2472  0.3867  0.0293
  189SAPI   H8R21742   2.310   3.202   6.145  0.0712  0.2774  0.2899
  189SAPI   C2921743   2.383   3.296   5.971 -0.2629  0.2761 -0.1440
  189SAPI   H9R21744   2.318   3.237   5.904 -0.1133  0.5574 -0.5432
  189SAPI  C21021745   2.471   3.387   5.896  0.3480  0.5484  0.1388
  189SAPI  H10R21746   2.498   3.473   5.959  0.8203 -0.2461  1.0430
  189SAPI  H10S21747   2.410   3.429   5.813  0.6546  0.0597 -0.3473
  189SAPI  C21121748   2.593   3.330   5.836 -0.9334  0.0434  0.0391
  189SAPI  H11R21749   2.683   3.328   5.900 -0.2295 -0.9700 -0.9417
  189SAPI  C21221750   2.612   3.288   5.705 -0.2379  0.6618 -1.0076
  189SAPI  H12R21751   2.714   3.254   5.682  0.1307 -0.8426  2.3123
  189SAPI  C21321752   2.508   3.276   5.600 -0.2121 -0.4168 -0.1059
  189SAPI  H13R21753   2.427   3.350   5.618 -2.9374 -2.8861 -1.2721
  189SAPI  H13S21754   2.460   3.176   5.605 -1.2453 -0.0103 -1.3890
  189SAPI  C21421755   2.568   3.299   5.467 -0.4190  0.2746  0.7182
  189SAPI  H14R21756   2.650   3.371   5.456 -1.1455  1.2035  1.2389
  189SAPI  C21521757   2.530   3.233   5.359 -0.2592 -0.3527  0.7635
  189SAPI  H15R21758   2.565   3.265   5.259  2.5708 -1.5463  1.2686
  189SAPI  C21621759   2.426   3.125   5.345  0.1422 -0.4630  0.1408
  189SAPI  H16R21760   2.366   3.100   5.435  1.7988  0.5944  1.5957
  189SAPI  H16S21761   2.476   3.032   5.310  2.7358  0.2517  1.6583
  189SAPI  C21721762   2.323   3.169   5.228 -0.0309 -0.4300 -0.3250
  189SAPI  H17R21763   2.380   3.188   5.134 -0.2833  0.6565 -0.2714
  189SAPI  H17S21764   2.268   3.255   5.270  1.6487  0.5104  0.0420
  189SAPI  C21821765   2.226   3.051   5.202  0.4318 -1.1772 -0.2923
  189SAPI  H18R21766   2.190   3.015   5.300 -1.2023 -1.6243 -1.0178
  189SAPI  H18S21767   2.282   2.966   5.157  1.9650  0.8429 -2.4869
  189SAPI  C21921768   2.108   3.076   5.103 -0.5240 -0.1874  0.3504
  189SAPI  H19R21769   2.048   2.983   5.108 -3.2291  1.4704  0.5532
  189SAPI  H19S21770   2.159   3.089   5.005 -0.6547  1.8521  0.5075
  189SAPI  C22021771   2.016   3.193   5.147  0.0932  0.2120 -0.3228
  189SAPI  H20R21772   1.931   3.191   5.076  1.0723  3.2742 -1.8017
  189SAPI  H20S21773   2.071   3.290   5.143  0.9217 -0.2810 -1.4607
  189SAPI  H20T21774   1.976   3.182   5.250 -1.1580  0.3489 -0.7777
  189SAPI   C3321775   2.815   3.330   6.450  0.5094 -0.1019 -0.3243
  189SAPI   H3X21776   2.739   3.250   6.441  0.2638 -0.0259  0.8819
  189SAPI   H3Y21777   2.907   3.274   6.478  1.7490  1.1883 -1.6164
  189SAPI   C3421778   2.822   3.395   6.314 -0.0507  0.2281 -0.0049
  189SAPI   H4X21779   2.889   3.483   6.322  0.4951 -0.2240  0.4945
  189SAPI   H4Y21780   2.725   3.437   6.279  0.0213  0.6771  0.3164
  189SAPI   C3521781   2.874   3.307   6.195  0.8073  0.4502 -0.4690
  189SAPI   H5X21782   2.801   3.228   6.166 -1.4872  2.2667  0.0591
  189SAPI   H5Y21783   2.971   3.256   6.213  0.5341 -0.1394 -0.6270
  189SAPI   C3621784   2.895   3.408   6.080  0.2239  0.1126  0.0889
  189SAPI   H6X21785   2.963   3.485   6.122 -1.3608  1.0461  1.0073
  189SAPI   H6Y21786   2.796   3.449   6.053  0.1654  0.1652  0.3868
  189SAPI   C3721787   2.954   3.342   5.954 -0.3462  0.1402 -0.3650
  189SAPI   H7X21788   2.875   3.285   5.900 -2.9797  1.4699  1.8301
  189SAPI   H7Y21789   3.028   3.261   5.969  0.0623 -0.3163 -4.0279
  189SAPI   C3821790   3.008   3.439   5.853 -0.9155 -1.0614 -0.1209
  189SAPI   H8X21791   3.109   3.468   5.888 -1.9056 -1.6110  3.5839
  189SAPI   H8Y21792   2.945   3.530   5.865  0.6613 -0.1187  1.6102
  189SAPI   C3921793   2.995   3.383   5.714 -0.1275  0.5233  0.4560
  189SAPI   H9X21794   2.886   3.362   5.713 -0.2480  1.0533  1.1715
  189SAPI   H9Y21795   3.056   3.290   5.713 -2.6026 -1.2862  2.4914
  189SAPI  C31021796   3.045   3.481   5.607  0.4993  0.0008  0.1768
  189SAPI  H10X21797   3.156   3.484   5.613  0.4505  2.1636  1.2577
  189SAPI  H10Y21798   3.007   3.585   5.618  0.3374 -0.1173  0.7676
  189SAPI  C31121799   2.997   3.434   5.474 -0.2939  0.0465  0.0579
  189SAPI  H11X21800   2.899   3.382   5.485 -0.3721  0.2295  0.2277
  189SAPI  H11Y21801   3.065   3.357   5.431  1.1604  2.0771 -1.4902
  189SAPI  C31221802   2.999   3.542   5.371 -0.5518  0.3796 -0.3216
  189SAPI  H12X21803   2.916   3.613   5.393  0.5301  0.5663  3.9091
  189SAPI  H12Y21804   2.980   3.497   5.271 -0.4020 -0.3308 -0.0393
  189SAPI  C31321805   3.138   3.605   5.356 -0.3354 -0.1204  1.0592
  189SAPI  H13X21806   3.208   3.531   5.311 -2.4986 -1.4278 -0.3185
  189SAPI  H13Y21807   3.178   3.644   5.452  1.8962  0.9488 -0.2263
  189SAPI  C31421808   3.133   3.734   5.266 -0.0878  0.9979  0.0608
  189SAPI  H14X21809   3.089   3.713   5.167  0.7046  0.3532 -0.1692
  189SAPI  H14Y21810   3.234   3.772   5.237 -0.0582  0.7147 -0.2083
  189SAPI  C31521811   3.054   3.850   5.327 -0.6671  0.4541 -0.3255
  189SAPI  H15X21812   3.096   3.875   5.427 -1.1446 -0.9241  0.2522
  189SAPI  H15Y21813   2.956   3.807   5.360 -0.7356 -0.2365 -1.3620
  189SAPI  C31621814   3.051   3.973   5.237 -0.0522  0.1431 -1.4808
  189SAPI  H16X21815   3.015   3.950   5.135 -1.3536  0.6658 -1.1594
  189SAPI  H16Y21816   3.153   4.013   5.220  0.2113  0.2447  0.1728
  189SAPI  C31721817   2.964   4.081   5.292  0.3634  0.5290 -0.2194
  189SAPI  H17X21818   2.941   4.046   5.396 -2.4155 -0.8418 -1.1691
  189SAPI  H17Y21819   2.865   4.078   5.242  1.4498  0.5984 -2.4608
  189SAPI  C31821820   3.004   4.226   5.293  0.2885  1.1796  0.2650
  189SAPI  H18X21821   2.967   4.269   5.198  0.0351  2.8125  1.0627
  189SAPI  H18Y21822   3.114   4.243   5.292  0.7577 -0.5923  3.9064
  189SAPI  H18Z21823   2.973   4.295   5.374  1.0153  0.4523  1.1890
  190SAPI   C1221824   2.913   0.581   7.487  0.0912  0.5036  0.1176
  190SAPI    H221825   2.894   0.482   7.438 -0.5975 -0.6909  2.6435
  190SAPI    O221826   3.043   0.589   7.546  0.7852 -0.3875  0.4192
  190SAPI   HO221827   3.009   0.570   7.634 -2.9377 -0.5260 -0.8908
  190SAPI   C1321828   2.900   0.694   7.378 -1.0502 -0.4399 -0.3702
  190SAPI    H321829   2.798   0.683   7.335 -1.5796 -0.6635  0.9125
  190SAPI    O321830   2.986   0.668   7.267  0.3202 -0.0764  0.4232
  190SAPI   HO321831   3.071   0.706   7.290  1.7080 -2.1763 -0.8704
  190SAPI   C1421832   2.923   0.830   7.439  0.1336 -0.1319  0.3330
  190SAPI    H421833   3.032   0.835   7.462 -0.1224  0.9391  1.4244
  190SAPI    O421834   2.889   0.932   7.348  0.3680 -0.4510 -0.2810
  190SAPI   HO421835   2.970   0.978   7.323  0.3198  0.2048  0.7000
  190SAPI   C1521836   2.868   0.856   7.581 -0.7345  0.4423  0.4237
  190SAPI    H521837   2.767   0.899   7.566 -0.4347  1.5445  1.4138
  190SAPI    O521838   2.947   0.951   7.640  0.9077  0.2352 -0.5726
  190SAPI   HO521839   2.888   1.024   7.662  0.0536 -0.7420  0.5634
  190SAPI   C1621840   2.832   0.737   7.670 -0.8168 -0.1127 -0.3994
  190SAPI    H621841   2.918   0.729   7.741 -1.4434  2.3707  0.7539
  190SAPI    O621842   2.725   0.760   7.756  0.1681  0.0011  0.0981
  190SAPI   HO621843   2.689   0.678   7.790 -0.3082 -0.9960 -2.5952
  190SAPI   C1121844   2.816   0.598   7.601 -0.0154  0.4803 -0.3659
  190SAPI    H121845   2.716   0.592   7.554  0.2351 -2.6645 -0.6953
  190SAPI     P21846   2.705   0.409   7.769 -0.1353 -0.0460 -0.3099
  190SAPI   O1321847   2.610   0.512   7.809  0.7252  0.1820 -0.2067
  190SAPI   O1421848   2.769   0.332   7.882 -0.9680  0.5185 -0.1102
  190SAPI   O1221849   2.828   0.485   7.687  0.6556 -0.0228  0.2029
  190SAPI   O1121850   2.652   0.309   7.661  0.1027  0.5468  0.4300
  190SAPI    C121851   2.735   0.211   7.603 -0.7217  0.4688 -0.6899
  190SAPI    HA21852   2.827   0.259   7.561 -1.8262  3.0492 -0.3647
  190SAPI    HB21853   2.760   0.130   7.675 -1.9754  0.8974  0.2564
  190SAPI    C221854   2.679   0.138   7.476 -0.1100  0.3125  0.3325
  190SAPI    HS21855   2.762   0.077   7.435  0.6993  0.5350  1.5809
  190SAPI   O2121856   2.623   0.231   7.382  0.1289 -0.1085  0.4239
  190SAPI   C2121857   2.715   0.283   7.306  0.9375 -0.7650  0.1993
  190SAPI   O2221858   2.829   0.249   7.298 -0.1785 -0.4597  0.2269
  190SAPI   C2221859   2.655   0.401   7.231  0.4738 -0.0914 -0.6740
  190SAPI   H2R21860   2.558   0.370   7.187  0.0754 -1.0492  0.8161
  190SAPI   H2S21861   2.631   0.484   7.301  0.6562  0.2917 -1.0569
  190SAPI    C321862   2.564   0.042   7.515 -0.1018  0.6299 -0.5662
  190SAPI    HX21863   2.492   0.093   7.583  1.8475  3.3374 -0.3604
  190SAPI    HY21864   2.608  -0.038   7.579 -0.3347  1.7806  1.1039
  190SAPI   O3121865   2.485  -0.014   7.406  0.6117  0.1628  0.3801
  190SAPI   C3121866   2.547  -0.079   7.321 -0.7163  0.4722  0.0710
  190SAPI   O3221867   2.662  -0.125   7.333  0.1562  0.4560  0.3413
  190SAPI   C3221868   2.459  -0.098   7.197  1.0010 -0.0320  0.6329
  190SAPI   H2X21869   2.378  -0.022   7.189  0.6072 -0.4917  0.2410
  190SAPI   H2Y21870   2.389  -0.183   7.214 -1.5004  1.6932 -0.4478
  190SAPI   C2321871   2.763   0.460   7.143 -0.0115  0.1417  0.3579
  190SAPI   H3R21872   2.863   0.465   7.192 -0.5203  0.4483  1.3995
  190SAPI   H3S21873   2.738   0.567   7.126  1.0375  0.4508  0.7096
  190SAPI   C2421874   2.781   0.388   7.011 -0.5983 -0.0238  0.1650
  190SAPI   H4R21875   2.823   0.288   7.035  0.1036  0.6062  1.7458
  190SAPI   H4S21876   2.855   0.443   6.949  0.6656 -2.0463 -0.2060
  190SAPI   C2521877   2.653   0.375   6.931  0.2329  0.3171  0.3395
  190SAPI   H5R21878   2.591   0.290   6.966  2.2707 -1.5970 -0.4501
  190SAPI   C2621879   2.614   0.443   6.822 -0.3534  0.0664  0.4754
  190SAPI   H6R21880   2.510   0.430   6.789  0.1826  0.1294 -1.3582
  190SAPI   C2721881   2.690   0.558   6.755 -0.3528  0.3497  0.3699
  190SAPI   H7R21882   2.742   0.531   6.660  0.3597 -0.6789  1.0300
  190SAPI   H7S21883   2.771   0.598   6.820 -1.5735  1.2490  1.3872
  190SAPI   C2821884   2.589   0.668   6.721  0.2523 -0.1122 -0.0028
  190SAPI   H8R21885   2.575   0.744   6.800  2.4423 -0.1490  0.4863
  190SAPI   C2921886   2.522   0.681   6.602  0.1066  0.1686  0.1608
  190SAPI   H9R21887   2.470   0.776   6.585  0.6712  0.7947  1.7101
  190SAPI  C21021888   2.541   0.597   6.481 -0.7752 -0.3994  0.3105
  190SAPI  H10R21889   2.447   0.605   6.423  0.0863  3.4592 -0.8783
  190SAPI  H10S21890   2.561   0.494   6.515  0.0468  0.7919  3.8050
  190SAPI  C21121891   2.666   0.641   6.404 -0.1307  0.2628 -0.1051
  190SAPI  H11R21892   2.754   0.655   6.469  0.0384 -2.8955  0.4927
  190SAPI  C21221893   2.672   0.677   6.276  0.1395  0.4135 -0.2641
  190SAPI  H12R21894   2.768   0.709   6.233  1.2786 -2.1333  0.2262
  190SAPI  C21321895   2.563   0.671   6.175 -0.3792 -0.1502 -0.5315
  190SAPI  H13R21896   2.463   0.655   6.220 -0.6090 -1.2075 -1.3906
  190SAPI  H13S21897   2.577   0.585   6.106 -4.5899 -1.0117 -0.6198
  190SAPI  C21421898   2.565   0.804   6.101  0.6661  0.0739 -0.4014
  190SAPI  H14R21899   2.580   0.890   6.169  0.8969 -1.3055  1.3689
  190SAPI  C21521900   2.551   0.821   5.969 -1.0163 -0.1964 -0.1923
  190SAPI  H15R21901   2.544   0.926   5.937 -0.7599  0.1829  0.9454
  190SAPI  C21621902   2.537   0.725   5.859  0.2789 -0.2966  0.2687
  190SAPI  H16R21903   2.450   0.768   5.804  1.4782  0.5180 -1.0838
  190SAPI  H16S21904   2.511   0.625   5.901  1.7371 -1.7232 -1.9731
  190SAPI  C21721905   2.656   0.700   5.766 -0.3256 -0.0862 -0.2781
  190SAPI  H17R21906   2.710   0.793   5.742  1.9126 -1.1622  0.3492
  190SAPI  H17S21907   2.610   0.655   5.676  0.0932  1.4297 -1.2719
  190SAPI  C21821908   2.765   0.605   5.823 -0.0021 -0.1331  0.1400
  190SAPI  H18R21909   2.719   0.507   5.850  1.3251 -0.1777  2.5698
  190SAPI  H18S21910   2.807   0.645   5.918 -2.5276  1.2278  0.7799
  190SAPI  C21921911   2.874   0.581   5.713 -0.2912  0.9229  0.4975
  190SAPI  H19R21912   2.962   0.537   5.765 -0.7527 -0.3259  0.2544
  190SAPI  H19S21913   2.902   0.683   5.679  1.2736  0.5695  0.6754
  190SAPI  C22021914   2.828   0.489   5.598 -0.4425  0.1740 -0.6264
  190SAPI  H20R21915   2.766   0.545   5.525 -1.7362 -2.3990 -1.6431
  190SAPI  H20S21916   2.771   0.405   5.644  0.3755 -0.7204 -1.2026
  190SAPI  H20T21917   2.918   0.447   5.547 -1.0930 -1.6204 -0.3953
  190SAPI   C3321918   2.538  -0.099   7.072  0.0421 -0.0813  0.3616
  190SAPI   H3X21919   2.618  -0.173   7.090 -1.5660 -2.0903 -0.3537
  190SAPI   H3Y21920   2.583  -0.001   7.043 -1.5223  0.0019 -2.1197
  190SAPI   C3421921   2.462  -0.165   6.951 -0.2252 -0.3933  0.4305
  190SAPI   H4X21922   2.433  -0.095   6.871  0.6632  0.2777  0.6686
  190SAPI   H4Y21923   2.371  -0.211   6.994 -0.5695 -0.8473 -0.7576
  190SAPI   C3521924   2.547  -0.266   6.879 -0.5291 -0.9024 -0.1346
  190SAPI   H5X21925   2.575  -0.350   6.946  1.2243  0.8015  1.4284
  190SAPI   H5Y21926   2.645  -0.223   6.849  0.3559 -2.2470  0.7132
  190SAPI   C3621927   2.499  -0.322   6.748 -0.0237  0.2196  0.0844
  190SAPI   H6X21928   2.409  -0.387   6.753  1.8879 -2.5543  0.2881
  190SAPI   H6Y21929   2.575  -0.396   6.717  0.5224  0.9549 -0.3817
  190SAPI   C3721930   2.483  -0.216   6.641  0.2653  0.5837  0.4516
  190SAPI   H7X21931   2.570  -0.146   6.637  0.7186  0.1708  2.3335
  190SAPI   H7Y21932   2.390  -0.159   6.661 -1.4690 -1.9409  0.0251
  190SAPI   C3821933   2.463  -0.278   6.504  0.5323  0.4203  0.7443
  190SAPI   H8X21934   2.373  -0.343   6.494  1.8159 -1.2429 -0.3862
  190SAPI   H8Y21935   2.541  -0.351   6.477 -0.8771 -0.4606 -1.1654
  190SAPI   C3921936   2.437  -0.176   6.397 -0.1002 -0.0910 -0.4436
  190SAPI   H9X21937   2.523  -0.106   6.387 -1.0860  0.9928 -1.7747
  190SAPI   H9Y21938   2.353  -0.108   6.423  2.0370  2.2843  0.6853
  190SAPI  C31021939   2.421  -0.247   6.262 -0.0236 -0.0472 -0.3474
  190SAPI  H10X21940   2.326  -0.305   6.258  0.2929 -0.8809  2.5309
  190SAPI  H10Y21941   2.500  -0.324   6.253 -1.1687 -1.1825 -0.9992
  190SAPI  C31121942   2.431  -0.152   6.144 -0.2088  0.0285  0.4111
  190SAPI  H11X21943   2.532  -0.106   6.147  0.1703 -0.7179 -0.3974
  190SAPI  H11Y21944   2.368  -0.061   6.151  0.4473  0.4917  0.3638
  190SAPI  C31221945   2.397  -0.221   6.011 -0.8169  0.1958  0.1522
  190SAPI  H12X21946   2.294  -0.263   6.014 -1.0718  0.7240 -0.8163
  190SAPI  H12Y21947   2.463  -0.309   5.992 -0.5479  0.7873 -1.8311
  190SAPI  C31321948   2.390  -0.123   5.896  1.0580  0.1899  0.3008
  190SAPI  H13X21949   2.489  -0.082   5.868  0.1203  1.7478 -0.9605
  190SAPI  H13Y21950   2.327  -0.039   5.933  0.3431 -0.5369  0.7810
  190SAPI  C31421951   2.331  -0.195   5.771 -0.1935 -0.3840 -0.3895
  190SAPI  H14X21952   2.228  -0.219   5.805 -0.5807 -1.7648 -2.4159
  190SAPI  H14Y21953   2.385  -0.290   5.753  0.8084 -0.1150  0.9536
  190SAPI  C31521954   2.321  -0.110   5.641  0.2026  0.5894 -0.0565
  190SAPI  H15X21955   2.281  -0.009   5.664 -5.1356 -1.6110  1.8738
  190SAPI  H15Y21956   2.239  -0.163   5.588 -2.8147  1.2004  3.5798
  190SAPI  C31621957   2.443  -0.108   5.548 -1.0079 -0.4642  0.2754
  190SAPI  H16X21958   2.488  -0.209   5.537  0.9010  0.4023 -0.2670
  190SAPI  H16Y21959   2.519  -0.051   5.605 -0.4470 -0.6881 -0.2455
  190SAPI  C31721960   2.407  -0.064   5.402 -0.1037  1.1273  0.1365
  190SAPI  H17X21961   2.355   0.034   5.401  0.7942  1.6412 -2.1098
  190SAPI  H17Y21962   2.329  -0.136   5.368 -2.5300  1.7515  3.8543
  190SAPI  C31821963   2.520  -0.072   5.293 -0.2627  0.2380  0.3235
  190SAPI  H18X21964   2.491  -0.103   5.190 -0.2868 -0.2457  0.4775
  190SAPI  H18Y21965   2.586  -0.149   5.338  0.0242  1.6401  2.4462
  190SAPI  H18Z21966   2.572   0.026   5.280 -0.7543  0.4935  0.2436
  191SAPI   C1221967   0.424   3.082   2.206  0.1848 -0.4646 -0.2283
  191SAPI    H221968   0.335   3.129   2.253  0.2060 -1.6283  1.0430
  191SAPI    O221969   0.387   2.992   2.107 -0.2803  0.2948  0.4137
  191SAPI   HO221970   0.296   2.968   2.126 -1.0928  1.0940 -2.0562
  191SAPI   C1321971   0.502   3.201   2.152  0.9556 -0.2184 -0.0557
  191SAPI    H321972   0.524   3.268   2.237 -0.0461  1.7109 -1.2592
  191SAPI    O321973   0.418   3.289   2.067  0.5327  0.0929  0.0890
  191SAPI   HO321974   0.358   3.242   2.009  0.7435  0.1299 -0.1634
  191SAPI   C1421975   0.621   3.151   2.080 -0.3021  0.9814  0.1047
  191SAPI    H421976   0.590   3.085   1.996 -3.2904 -0.4981  2.1892
  191SAPI    O421977   0.697   3.256   2.018  0.0625  0.8799  0.4847
  191SAPI   HO421978   0.738   3.301   2.092  1.4222 -0.1242  0.3964
  191SAPI   C1521979   0.713   3.060   2.158 -0.5062 -0.1033  0.3557
  191SAPI    H521980   0.769   3.133   2.219  0.1894  0.9365 -1.4442
  191SAPI    O521981   0.803   2.983   2.077  0.1419  0.6821 -0.4060
  191SAPI   HO521982   0.893   2.978   2.112  0.2607  0.2539 -0.7615
  191SAPI   C1621983   0.644   2.955   2.248 -0.0398 -0.4538  0.4613
  191SAPI    H621984   0.610   2.877   2.177  1.8920  0.3073 -1.4046
  191SAPI    O621985   0.726   2.903   2.347 -0.0359 -0.3865  0.0513
  191SAPI   HO621986   0.664   2.845   2.392 -1.3340  1.8126  1.3042
  191SAPI   C1121987   0.514   3.018   2.310 -0.3346  0.8271  0.4280
  191SAPI    H121988   0.562   3.093   2.376 -0.3711  0.1463  1.2340
  191SAPI     P21989   0.380   2.945   2.531  0.1986 -0.3412  0.6905
  191SAPI   O1321990   0.295   2.834   2.579  0.0083 -0.7967 -0.1485
  191SAPI   O1421991   0.304   3.074   2.518 -0.0159  0.0534 -0.2312
  191SAPI   O1221992   0.443   2.908   2.377  0.3003  0.0718 -0.0334
  191SAPI   O1121993   0.507   2.968   2.622  0.3006 -0.0268 -0.6447
  191SAPI    C121994   0.584   2.861   2.679  0.2199 -0.2803 -0.2260
  191SAPI    HA21995   0.545   2.760   2.653 -0.9940  0.1422 -0.0987
  191SAPI    HB21996   0.686   2.852   2.637 -0.6400 -1.1596 -2.2641
  191SAPI    C221997   0.593   2.865   2.835  0.5459 -0.2379 -0.8029
  191SAPI    HS21998   0.653   2.783   2.881 -1.2987 -1.9982 -1.3729
  191SAPI   O2121999   0.460   2.852   2.892  0.2662 -0.0653  0.6223
  191SAPI   C2122000   0.405   2.731   2.888  0.2294  0.5506 -0.5105
  191SAPI   O2222001   0.458   2.631   2.844 -0.2653  0.3506 -0.0702
  191SAPI   C2222002   0.273   2.723   2.969  0.4885  0.5188 -0.1725
  191SAPI   H2R22003   0.248   2.824   3.007  0.3374  1.9656 -3.7348
  191SAPI   H2S22004   0.202   2.686   2.892  0.3045 -1.0038  0.6921
  191SAPI    C322005   0.653   3.004   2.886 -0.0193  0.7316 -0.2882
  191SAPI    HX22006   0.598   3.080   2.826  1.3288  0.9337 -1.3403
  191SAPI    HY22007   0.760   3.011   2.856 -0.1493 -2.4687 -1.8724
  191SAPI   O3122008   0.632   3.033   3.028  0.5136 -0.3659  0.0854
  191SAPI   C3122009   0.707   2.966   3.104  0.4452  0.0761  0.0449
  191SAPI   O3222010   0.794   2.883   3.073  0.3468  0.4253 -0.5258
  191SAPI   C3222011   0.663   2.998   3.249 -0.2512 -0.3859  0.1846
  191SAPI   H2X22012   0.553   3.001   3.262  0.0116  0.0719  2.8422
  191SAPI   H2Y22013   0.707   3.092   3.288 -3.2877  0.2322  2.5605
  191SAPI   C2322014   0.271   2.624   3.082 -0.2313  0.1096  0.0417
  191SAPI   H3R22015   0.314   2.526   3.050 -1.5353 -0.4425 -0.0976
  191SAPI   H3S22016   0.164   2.605   3.108 -0.2658 -0.3626 -0.4236
  191SAPI   C2422017   0.341   2.666   3.214  0.0062  0.3534  0.4596
  191SAPI   H4R22018   0.446   2.692   3.186 -0.3113 -0.1418 -1.3208
  191SAPI   H4S22019   0.344   2.578   3.281  0.6819 -0.0190 -0.0451
  191SAPI   C2522020   0.282   2.789   3.267  0.4035 -0.1399 -0.4971
  191SAPI   H5R22021   0.297   2.876   3.202  0.5450  0.2566  0.0576
  191SAPI   C2622022   0.213   2.814   3.375 -0.0578  0.2046  0.0079
  191SAPI   H6R22023   0.181   2.918   3.393 -0.6003 -0.1468  1.1751
  191SAPI   C2722024   0.173   2.721   3.483  0.0134  0.7350  0.3444
  191SAPI   H7R22025   0.160   2.619   3.442 -0.9873  1.0856 -0.2372
  191SAPI   H7S22026   0.078   2.764   3.521 -0.4900 -0.1670  0.1163
  191SAPI   C2822027   0.282   2.720   3.587 -0.0098 -0.3784 -0.1319
  191SAPI   H8R22028   0.381   2.727   3.541  0.1162  0.2727  0.2244
  191SAPI   C2922029   0.267   2.720   3.719  0.5611 -0.0005  0.3806
  191SAPI   H9R22030   0.363   2.723   3.774  1.4642 -1.2046 -1.0299
  191SAPI  C21022031   0.147   2.711   3.811 -0.3353  0.1248  0.5912
  191SAPI  H10R22032   0.054   2.734   3.755 -0.7054 -1.2846  0.5821
  191SAPI  H10S22033   0.146   2.792   3.887  1.1935 -0.5890  1.4245
  191SAPI  C21122034   0.131   2.575   3.874  0.7108 -0.0580  0.4539
  191SAPI  H11R22035   0.129   2.500   3.794  2.9371 -1.3759  1.5422
  191SAPI  C21222036   0.120   2.544   4.002  0.0407 -0.1335  0.4824
  191SAPI  H12R22037   0.103   2.441   4.034  2.3192 -1.0777 -1.1265
  191SAPI  C21322038   0.133   2.658   4.100  0.0915 -0.4766 -0.0122
  191SAPI  H13R22039   0.031   2.701   4.110  0.1969 -0.5974  1.9294
  191SAPI  H13S22040   0.198   2.741   4.063  0.7625 -1.0293 -0.0877
  191SAPI  C21422041   0.183   2.602   4.231 -0.2973  0.2868 -0.1671
  191SAPI  H14R22042   0.289   2.620   4.252 -0.0803 -2.2864  1.4047
  191SAPI  C21522043   0.107   2.539   4.322 -0.2692  0.6494 -0.2002
  191SAPI  H15R22044   0.161   2.509   4.413  1.2067  2.2312 -0.5208
  191SAPI  C21622045  -0.042   2.511   4.303  0.2585  0.2278 -0.2330
  191SAPI  H16R22046  -0.052   2.422   4.237 -1.0235 -0.3088  0.6522
  191SAPI  H16S22047  -0.093   2.596   4.253  0.2458  1.6044  1.9689
  191SAPI  C21722048  -0.127   2.479   4.433 -0.2984 -0.4455  0.9467
  191SAPI  H17R22049  -0.232   2.454   4.407 -0.3878  0.5832  0.2646
  191SAPI  H17S22050  -0.132   2.571   4.494 -0.5866 -0.1244  0.4472
  191SAPI  C21822051  -0.070   2.368   4.518  0.0223  0.4586  0.4615
  191SAPI  H18R22052   0.041   2.376   4.526  0.7942 -1.5495 -4.4556
  191SAPI  H18S22053  -0.074   2.273   4.459  2.9227  0.2468  0.4729
  191SAPI  C21922054  -0.135   2.356   4.656  0.4020  0.4356  0.3552
  191SAPI  H19R22055  -0.242   2.326   4.652 -0.0973  2.0211  0.9235
  191SAPI  H19S22056  -0.132   2.459   4.697  2.3332  0.7543 -0.4933
  191SAPI  C22022057  -0.055   2.252   4.742 -0.6163  0.5083 -0.5604
  191SAPI  H20R22058   0.054   2.275   4.736 -0.1840 -1.3091 -0.3156
  191SAPI  H20S22059  -0.066   2.157   4.686 -2.3564 -0.2107  0.9119
  191SAPI  H20T22060  -0.101   2.243   4.843 -2.2586  0.9491 -1.2404
  191SAPI   C3322061   0.716   2.892   3.346  0.2406  0.5657  0.2453
  191SAPI   H3X22062   0.825   2.875   3.333  0.0384 -0.1996 -0.5505
  191SAPI   H3Y22063   0.676   2.789   3.338 -2.6160  1.6102 -0.1146
  191SAPI   C3422064   0.693   2.943   3.490  0.0679  0.6795  0.1876
  191SAPI   H4X22065   0.592   2.988   3.482  0.1251  1.1541  1.7661
  191SAPI   H4Y22066   0.775   3.015   3.512  0.8991 -0.7673  2.1627
  191SAPI   C3522067   0.691   2.835   3.601 -0.3395 -0.4392  0.1138
  191SAPI   H5X22068   0.773   2.761   3.591 -1.5709 -1.8532  0.1373
  191SAPI   H5Y22069   0.601   2.771   3.588 -0.3332 -0.5090  0.4077
  191SAPI   C3622070   0.680   2.887   3.741  0.3225  0.2747 -0.0701
  191SAPI   H6X22071   0.778   2.938   3.751  0.8650 -0.8029  0.2839
  191SAPI   H6Y22072   0.675   2.802   3.813  1.5114  1.5900  1.6366
  191SAPI   C3722073   0.567   2.981   3.756 -0.9566 -0.1996 -0.0395
  191SAPI   H7X22074   0.474   2.937   3.713 -1.0397  0.6107 -0.7285
  191SAPI   H7Y22075   0.588   3.071   3.693 -2.1328  0.4248  0.4109
  191SAPI   C3822076   0.543   3.031   3.894 -0.4547 -0.5369 -0.0748
  191SAPI   H8X22077   0.461   3.106   3.891 -0.8672 -1.0145 -1.5516
  191SAPI   H8Y22078   0.640   3.073   3.927 -0.2487  0.9384 -2.2906
  191SAPI   C3922079   0.513   2.923   4.004 -0.3263  0.9696  0.0435
  191SAPI   H9X22080   0.606   2.861   4.009  0.3204  1.8672 -0.5277
  191SAPI   H9Y22081   0.448   2.851   3.949  0.3850 -0.4440  0.9699
  191SAPI  C31022082   0.471   2.989   4.129  0.6653 -0.2160  0.1803
  191SAPI  H10X22083   0.376   3.038   4.098  1.0373  0.6792  0.4289
  191SAPI  H10Y22084   0.549   3.063   4.155 -0.2286  0.5728  0.7020
  191SAPI  C31122085   0.444   2.895   4.255 -0.1606  0.2181 -0.6940
  191SAPI  H11X22086   0.543   2.854   4.284 -0.0693  0.7096 -0.3015
  191SAPI  H11Y22087   0.381   2.813   4.216 -0.1941 -0.6760  1.1324
  191SAPI  C31222088   0.386   2.959   4.380 -0.0520  0.0348  0.7902
  191SAPI  H12X22089   0.302   3.024   4.348  1.7521  2.2088  0.1647
  191SAPI  H12Y22090   0.464   3.026   4.423 -1.1637  1.4136  0.7480
  191SAPI  C31322091   0.334   2.857   4.489  0.3067 -1.3787  0.5149
  191SAPI  H13X22092   0.239   2.810   4.456  1.1143 -1.4276 -1.9339
  191SAPI  H13Y22093   0.306   2.903   4.586  1.5917 -1.4363  0.9231
  191SAPI  C31422094   0.444   2.748   4.517 -0.1204 -0.4462  0.4250
  191SAPI  H14X22095   0.545   2.784   4.490 -0.2386 -0.4134  0.0149
  191SAPI  H14Y22096   0.434   2.660   4.450  0.0499  0.4239 -0.7905
  191SAPI  C31522097   0.444   2.693   4.660  0.0173  0.1273 -0.3269
  191SAPI  H15X22098   0.432   2.779   4.729 -1.9378 -1.5008  1.5179
  191SAPI  H15Y22099   0.542   2.648   4.687  0.6370  0.1908 -2.3356
  191SAPI  C31622100   0.341   2.593   4.697  0.6460  0.3758  0.6254
  191SAPI  H16X22101   0.361   2.491   4.657 -1.9555 -0.6863  1.7804
  191SAPI  H16Y22102   0.239   2.619   4.659  0.3389 -0.6594  0.7070
  191SAPI  C31722103   0.319   2.569   4.848  0.3335  0.2859  0.1054
  191SAPI  H17X22104   0.268   2.656   4.894  1.6114  1.7551 -1.1658
  191SAPI  H17Y22105   0.418   2.561   4.897 -1.6011 -2.6358  4.0764
  191SAPI  C31822106   0.219   2.453   4.878 -0.7993 -0.7119 -0.0961
  191SAPI  H18X22107   0.115   2.483   4.852 -0.2068  1.8689  0.2541
  191SAPI  H18Y22108   0.235   2.437   4.987  0.2817 -2.2137 -0.4511
  191SAPI  H18Z22109   0.250   2.356   4.834 -1.2057 -0.0922 -1.8333
  192SAPI   C1222110   4.811   0.208   2.799 -0.1361 -0.6857  0.4291
  192SAPI    H222111   4.914   0.233   2.831 -0.2632 -0.8463  0.9849
  192SAPI    O222112   4.770   0.311   2.706 -0.0866 -0.8429  0.0213
  192SAPI   HO222113   4.681   0.339   2.728 -0.8044 -3.2788  0.4545
  192SAPI   C1322114   4.815   0.081   2.725 -0.4615  0.4513  0.7047
  192SAPI    H322115   4.845  -0.000   2.795 -0.0421 -0.6367 -0.6682
  192SAPI    O322116   4.916   0.092   2.620 -0.0480 -0.3829 -0.5363
  192SAPI   HO322117   4.893   0.162   2.558  0.0530  0.0812 -0.0574
  192SAPI   C1422118   4.678   0.031   2.681 -0.4991  0.3756  0.0418
  192SAPI    H422119   4.640   0.103   2.607  2.9684  1.0284 -1.2703
  192SAPI    O422120   4.684  -0.101   2.614  0.7080 -0.0177  0.2883
  192SAPI   HO422121   4.734  -0.159   2.672 -0.0422  0.5686  1.5619
  192SAPI   C1522122   4.571   0.031   2.786  0.7049  0.1735 -0.5110
  192SAPI    H522123   4.591  -0.060   2.847  1.5050  0.5363 -0.2165
  192SAPI    O522124   4.440   0.016   2.733 -0.2310 -0.3389  0.7658
  192SAPI   HO522125   4.410  -0.070   2.763  0.5695 -0.8324  0.1973
  192SAPI   C1622126   4.573   0.153   2.886 -0.9229  0.0391 -0.3923
  192SAPI    H622127   4.521   0.239   2.839 -0.0709 -1.0461 -3.5900
  192SAPI    O622128   4.502   0.122   3.010  0.1958 -0.0646 -0.2338
  192SAPI   HO622129   4.558   0.072   3.069  0.3084  0.5297  0.1692
  192SAPI   C1122130   4.717   0.203   2.916 -0.1762 -0.4108 -0.4214
  192SAPI    H122131   4.759   0.124   2.982 -1.0590 -0.5189  0.0199
  192SAPI     P22132   4.816   0.394   3.066 -0.2724  0.8224  0.5586
  192SAPI   O1322133   4.836   0.534   3.017 -0.2053  0.1117 -0.2619
  192SAPI   O1422134   4.934   0.303   3.066 -0.2822 -0.2502  0.1191
  192SAPI   O1222135   4.693   0.330   2.978  0.2309  0.2374  0.3941
  192SAPI   O1122136   4.766   0.405   3.221  0.4258 -0.3667  0.1712
  192SAPI    C122137   4.661   0.506   3.261 -0.2085  0.2457 -0.0774
  192SAPI    HA22138   4.674   0.538   3.366 -1.4370  2.5852 -0.5760
  192SAPI    HB22139   4.668   0.593   3.191 -0.1183  1.0985  0.9702
  192SAPI    C222140   4.511   0.449   3.237 -0.1422  0.2866  0.6530
  192SAPI    HS22141   4.507   0.445   3.126  1.7048 -1.8911  0.6138
  192SAPI   O2122142   4.416   0.537   3.296 -0.0616 -0.9231  0.4509
  192SAPI   C2122143   4.293   0.528   3.251  0.5830 -0.0661  0.3795
  192SAPI   O2222144   4.261   0.455   3.158  1.2732  0.5961 -0.4309
  192SAPI   C2222145   4.202   0.622   3.331  0.7525 -0.1435  0.0542
  192SAPI   H2R22146   4.179   0.566   3.424  1.0990 -3.0461 -1.4725
  192SAPI   H2S22147   4.259   0.713   3.358  1.1002 -0.2576 -0.2813
  192SAPI    C322148   4.500   0.303   3.292  0.2362 -0.2615 -0.1720
  192SAPI    HX22149   4.587   0.243   3.259  1.5925 -0.5805  3.5297
  192SAPI    HY22150   4.406   0.250   3.262  0.2406 -1.1192  1.2318
  192SAPI   O3122151   4.523   0.288   3.437 -0.2284  0.3009  0.5382
  192SAPI   C3122152   4.429   0.328   3.517 -0.3190 -0.7439  0.0925
  192SAPI   O3222153   4.319   0.360   3.483 -0.7074 -0.5725  0.1058
  192SAPI   C3222154   4.483   0.321   3.654 -0.8252 -0.3397 -0.4624
  192SAPI   H2X22155   4.579   0.378   3.652 -1.2540  0.4093 -2.4149
  192SAPI   H2Y22156   4.516   0.217   3.672 -0.9772 -0.1361  1.0918
  192SAPI   C2322157   4.063   0.658   3.274  0.8029 -0.3073  0.9123
  192SAPI   H3R22158   4.024   0.572   3.216  3.7679 -2.0804  1.3600
  192SAPI   H3S22159   4.080   0.733   3.194 -2.1409 -2.3677 -1.9164
  192SAPI   C2422160   3.966   0.736   3.370  0.0386  0.8884 -0.3011
  192SAPI   H4R22161   3.874   0.763   3.313  0.6917 -1.5535 -2.7132
  192SAPI   H4S22162   4.019   0.830   3.395 -2.2828  1.5695  2.7126
  192SAPI   C2522163   3.921   0.644   3.482  0.1376 -0.2917  0.7076
  192SAPI   H5R22164   3.840   0.576   3.452  2.2024 -3.6608  2.1157
  192SAPI   C2622165   3.963   0.645   3.604 -0.4687  1.0062 -0.2844
  192SAPI   H6R22166   3.938   0.566   3.677 -1.0629  2.6965  1.4245
  192SAPI   C2722167   4.087   0.712   3.651 -0.4544  0.1048 -0.1097
  192SAPI   H7R22168   4.164   0.727   3.571 -0.0541 -0.4424  0.1689
  192SAPI   H7S22169   4.144   0.653   3.726  0.6272  0.4207 -0.6572
  192SAPI   C2822170   4.054   0.852   3.701  0.1404 -0.2015 -0.0269
  192SAPI   H8R22171   4.013   0.922   3.628  2.3859  1.4470  0.1714
  192SAPI   C2922172   4.084   0.894   3.824 -0.0952 -0.1171 -0.0886
  192SAPI   H9R22173   4.067   1.000   3.849 -0.3296 -0.5024  1.5115
  192SAPI  C21022174   4.141   0.812   3.939 -0.0871  0.1706 -1.1290
  192SAPI  H10R22175   4.156   0.881   4.025 -0.9043 -0.7009 -0.2753
  192SAPI  H10S22176   4.247   0.782   3.922 -0.2200 -2.5734  2.0019
  192SAPI  C21122177   4.062   0.689   3.985 -0.0195 -0.3541  0.8645
  192SAPI  H11R22178   3.981   0.655   3.919  0.0684  3.0427 -1.2161
  192SAPI  C21222179   4.073   0.646   4.111 -0.0977 -0.5393  0.0881
  192SAPI  H12R22180   4.000   0.569   4.139 -1.9761  0.9411 -0.5534
  192SAPI  C21322181   4.170   0.689   4.220  0.3962  0.0676 -0.0078
  192SAPI  H13R22182   4.259   0.743   4.180  0.4273 -0.2217 -0.3225
  192SAPI  H13S22183   4.206   0.606   4.284 -3.1808 -0.3166  1.7838
  192SAPI  C21422184   4.100   0.782   4.308  0.6488 -0.2244 -0.4763
  192SAPI  H14R22185   4.063   0.872   4.256 -2.4855 -0.7592  0.6214
  192SAPI  C21522186   4.096   0.792   4.442 -0.4358  0.0574 -0.1839
  192SAPI  H15R22187   4.044   0.879   4.483  1.4950  0.5991  1.2922
  192SAPI  C21622188   4.167   0.699   4.538  0.0753 -0.5438  0.3716
  192SAPI  H16R22189   4.267   0.667   4.503  0.0228 -0.2612 -0.0538
  192SAPI  H16S22190   4.095   0.614   4.541 -1.8143  0.6386 -3.6746
  192SAPI  C21722191   4.185   0.773   4.666  0.2815 -0.2976  0.2758
  192SAPI  H17R22192   4.248   0.859   4.636 -0.8122 -0.2585 -2.0628
  192SAPI  H17S22193   4.247   0.726   4.745  0.5634 -0.3210  0.0430
  192SAPI  C21822194   4.049   0.819   4.730 -0.1326 -0.4324 -0.4765
  192SAPI  H18R22195   3.977   0.734   4.735  0.7003 -1.0459  1.9373
  192SAPI  H18S22196   3.990   0.895   4.674  2.1002  2.1688  0.4904
  192SAPI  C21922197   4.075   0.876   4.868  0.6649  0.2440 -0.3439
  192SAPI  H19R22198   4.110   0.796   4.935  1.8233  2.1086  1.3930
  192SAPI  H19S22199   3.980   0.924   4.900  0.4993  0.1833 -0.7386
  192SAPI  C22022200   4.187   0.987   4.867  0.3265  0.6784 -0.1005
  192SAPI  H20R22201   4.172   1.064   4.788 -0.5809 -0.1063 -0.7095
  192SAPI  H20S22202   4.288   0.941   4.854 -0.3558 -0.7437 -0.4983
  192SAPI  H20T22203   4.177   1.046   4.961 -1.0459  0.8451 -0.3286
  192SAPI   C3322204   4.386   0.380   3.761  0.9054 -0.2271  0.2916
  192SAPI   H3X22205   4.286   0.334   3.775  0.8704 -0.5767 -0.9856
  192SAPI   H3Y22206   4.357   0.486   3.740 -0.1562 -0.6932 -0.7212
  192SAPI   C3422207   4.459   0.374   3.897 -0.6539  0.1549 -1.6373
  192SAPI   H4X22208   4.559   0.421   3.883  0.1267 -0.3914  1.4654
  192SAPI   H4Y22209   4.489   0.269   3.916  1.0923  0.6530 -1.4021
  192SAPI   C3522210   4.400   0.452   4.017  0.2974 -0.2152  0.4817
  192SAPI   H5X22211   4.301   0.403   4.024  0.8626 -1.4691 -0.1290
  192SAPI   H5Y22212   4.389   0.560   3.991  1.5562 -0.0408  0.6220
  192SAPI   C3622213   4.473   0.439   4.152 -0.4456 -0.5543  0.3247
  192SAPI   H6X22214   4.396   0.473   4.224 -2.0646  1.0427 -2.0211
  192SAPI   H6Y22215   4.552   0.517   4.144 -1.4883  0.3856 -1.6095
  192SAPI   C3722216   4.523   0.299   4.197 -0.1279  0.3408 -0.1036
  192SAPI   H7X22217   4.607   0.263   4.134 -0.3301 -0.5118  0.1051
  192SAPI   H7Y22218   4.443   0.223   4.181 -0.6367  0.7631  0.3816
  192SAPI   C3822219   4.564   0.306   4.343  0.2210  0.8502  0.4283
  192SAPI   H8X22220   4.620   0.401   4.359 -0.7706  1.6664 -0.8117
  192SAPI   H8Y22221   4.618   0.210   4.362 -0.5083  0.4632  0.5656
  192SAPI   C3922222   4.448   0.315   4.442  0.0095 -0.4834  0.0626
  192SAPI   H9X22223   4.350   0.273   4.412 -1.3289  1.3808  1.6151
  192SAPI   H9Y22224   4.431   0.422   4.464 -1.1904 -0.6394 -0.0514
  192SAPI  C31022225   4.486   0.247   4.576 -0.3290 -0.3635  0.3138
  192SAPI  H10X22226   4.583   0.288   4.609 -0.8467  0.8795  0.3521
  192SAPI  H10Y22227   4.508   0.142   4.550 -2.1002 -0.1133 -2.7439
  192SAPI  C31122228   4.376   0.270   4.676 -0.3227 -0.3975 -0.5728
  192SAPI  H11X22229   4.279   0.226   4.645 -0.2889 -0.4390 -0.6197
  192SAPI  H11Y22230   4.361   0.377   4.702  0.5247 -0.6118  0.9096
  192SAPI  C31222231   4.418   0.203   4.808  0.2973  0.0222 -0.0018
  192SAPI  H12X22232   4.524   0.231   4.822  0.1494  0.7134 -0.2506
  192SAPI  H12Y22233   4.425   0.093   4.797  2.1380 -0.0108  1.1405
  192SAPI  C31322234   4.326   0.231   4.932 -0.3540  0.0036 -0.1481
  192SAPI  H13X22235   4.292   0.336   4.921  1.6256  0.6578 -0.5703
  192SAPI  H13Y22236   4.385   0.219   5.026  3.1264 -1.4545 -2.2939
  192SAPI  C31422237   4.207   0.138   4.937  0.1247 -0.0857 -0.3623
  192SAPI  H14X22238   4.244   0.035   4.921  2.4791  0.6627 -0.2324
  192SAPI  H14Y22239   4.149   0.158   4.845  0.6112 -1.5642 -1.0125
  192SAPI  C31522240   4.129   0.132   5.073  0.0092 -0.0844 -0.0917
  192SAPI  H15X22241   4.124   0.237   5.109 -1.4801  0.3359 -1.4241
  192SAPI  H15Y22242   4.170   0.064   5.151 -0.5454 -1.7549 -1.2098
  192SAPI  C31622243   3.978   0.097   5.061 -0.1944 -0.6776  0.0109
  192SAPI  H16X22244   3.974  -0.013   5.049  1.0978 -0.6292 -1.1352
  192SAPI  H16Y22245   3.939   0.155   4.975  1.4392  2.0239  0.9545
  192SAPI  C31722246   3.891   0.127   5.177  0.3371 -1.2574  0.5424
  192SAPI  H17X22247   3.789   0.120   5.133 -0.3955 -0.0554  1.9625
  192SAPI  H17Y22248   3.912   0.226   5.223 -2.9320 -0.2912  0.1933
  192SAPI  C31822249   3.880   0.032   5.299 -0.5110 -0.3544  0.5075
  192SAPI  H18X22250   3.834   0.094   5.378  0.3525  1.3473 -0.2618
  192SAPI  H18Y22251   3.982  -0.003   5.326  0.9679  3.1225 -0.0624
  192SAPI  H18Z22252   3.816  -0.057   5.285 -0.6155 -0.2766  0.4893
  193SOD    SOD22253   4.032   5.930   7.863 -0.4001 -0.2415  0.0967
  194SOD    SOD22254   1.874   1.195   7.884  0.1457 -0.2712 -0.2353
  195SOD    SOD22255   0.754   4.652   1.011  0.1500 -0.1754  0.0394
  196SOD    SOD22256   2.460   1.610   7.293 -0.1971  0.1809  0.1237
  197SOD    SOD22257   5.505   5.526   8.855  0.7135  0.5331  0.1125
  198SOD    SOD22258   1.419   1.929   8.247 -0.1294  0.2183  0.1379
  199SOD    SOD22259   2.285   5.054   9.040 -0.2588  0.1776  0.2510
  200SOD    SOD22260   2.831   1.790   8.871  0.3897 -0.5979  0.4129
  201SOD    SOD22261   3.628   6.550   1.482  0.2809 -0.4997 -0.1968
  202SOD    SOD22262   3.834   5.587   2.901 -0.4213  0.1181 -0.0144
  203SOD    SOD22263   2.496   4.050   7.757 -0.0216 -0.7858  0.4181
  204SOD    SOD22264   5.508   1.875   2.178  0.1604 -0.4157 -0.4321
  205SOD    SOD22265   0.463   2.456   2.686  0.4561  0.1682 -0.3734
  206SOD    SOD22266   5.704   4.557   7.158 -0.5913 -0.1546  0.0310
  207SOD    SOD22267   4.287   1.690   1.501 -0.1689 -0.0806  0.0131
  208SOD    SOD22268   3.348   1.795   2.477  0.8239 -0.5281  0.1368
  209SOD    SOD22269   0.816   2.649   1.767 -0.1011 -0.6495 -0.7844
  210SOD    SOD22270   2.400   5.510   1.315  0.1707 -0.3167  0.4845
  211SOD    SOD22271   6.490   0.608   1.273 -0.2341 -0.6189 -0.6832
  212SOD    SOD22272   5.768   1.130   7.782  0.2240  0.4929  0.0423
  213SOD    SOD22273   3.927   4.067   8.105 -0.1601 -0.3846  0.4604
  214SOD    SOD22274   6.150   2.946   8.776 -0.1694  0.5078 -0.0028
  215SOD    SOD22275   6.032   1.312   2.469  0.5421  0.2712  0.3747
  216SOD    SOD22276   5.484   6.468   1.689  0.3898  0.0135 -0.1640
  217SOD    SOD22277   1.431   1.339   0.115  0.3522  0.3761 -0.2476
  218SOD    SOD22278   5.221   3.878   2.753  0.4027 -0.1615 -0.0617
  219SOD    SOD22279   5.309   1.216   0.741  0.1461 -0.0708  0.4076
  220SOD    SOD22280   5.919   3.686   7.319 -0.0517  0.1653 -0.2565
  221SOD    SOD22281   6.437   3.670   2.665 -0.2796  0.0286  0.2622
  222SOD    SOD22282   6.420   4.043   8.062  0.1554  0.1091 -0.3532
  223SOD    SOD22283   0.731   4.255   1.666  0.4348  0.2319 -0.2792
  224SOD    SOD22284   1.979   5.319   7.776  0.0565 -0.1075 -0.0648
  225SOD    SOD22285   5.179   1.939   7.982  0.3577  0.2880  0.2101
  226SOD    SOD22286   2.031   1.023   3.233 -0.3273 -0.2677 -0.2435
  227SOD    SOD22287   0.740   5.729   2.013 -0.0005  0.5630 -0.0156
  228SOD    SOD22288   5.285   0.743   2.003 -0.3006  0.6067 -0.6528
  229SOD    SOD22289   6.313   5.965   0.393  0.2853  0.0258 -0.3265
  230SOD    SOD22290   6.008   0.712   8.507 -0.2743 -0.0021  0.0732
  231SOD    SOD22291   0.029   6.253   1.214  0.5574 -0.2104 -0.5841
  232SOD    SOD22292   6.621   1.666   2.264 -0.1669  0.1065  0.8626
  233SOD    SOD22293   6.221   0.715   2.621 -0.3587 -0.2843 -0.3039
  234CLA    CLA22294   0.478   1.723   1.410  0.0669 -0.2870  0.0240
  235CLA    CLA22295   1.205   4.824   8.659 -0.0562  0.0153  0.1153
  236CLA    CLA22296   6.711   5.074   1.437 -0.4266 -0.1355 -0.0072
  237CLA    CLA22297   6.273   6.375   1.172  0.3253 -0.3196  0.0558
  238CLA    CLA22298   3.213   2.530   0.060  0.0558  0.0055 -0.2904
  239CLA    CLA22299   5.357   0.924   1.165  0.1257 -0.2654  0.0159
  240CLA    CLA22300   1.048   2.919   8.981 -0.4539 -0.0870  0.3389
  241CLA    CLA22301   2.052   0.427   8.475  0.2969  0.0076  0.4082
  242CLA    CLA22302   3.936   4.881   0.217 -0.0841  0.0820  0.0111
  243CLA    CLA22303   5.647   2.643   8.789  0.3133  0.2115 -0.0695
  244CLA    CLA22304   2.620   1.940   7.623 -0.1519 -0.2560  0.0840
  245CLA    CLA22305   5.802   6.167   2.253  0.0140  0.2721 -0.1316
  246CLA    CLA22306   1.793   5.528   1.710 -0.2175  0.1798  0.3505
  247CLA    CLA22307   1.460   4.819   0.772  0.4221  0.1728 -0.2725
  248CLA    CLA22308   5.875   0.340   0.786  0.1017 -0.0421  0.2181
  249CLA    CLA22309   2.497   0.151   2.690  0.2064 -0.3389  0.1514
  250CLA    CLA22310   0.937   4.625   9.002 -0.1714 -0.0289 -0.1732
  251TIP3   OH222311   4.832   6.366   7.512 -0.0635 -0.2416 -0.6432
  251TIP3    H122312   4.795   6.280   7.534 -0.2721 -0.0036 -0.0486
  251TIP3    H222313   4.756   6.424   7.507  0.0144 -0.2012 -1.6167
  252TIP3   OH222314   0.947   6.197   8.232  0.2835 -0.0341 -0.2342
  252TIP3    H122315   0.995   6.264   8.183 -0.0554  0.1029 -0.3847
  252TIP3    H222316   0.909   6.244   8.307 -0.6967  0.1402 -0.8198
  253TIP3   OH222317   1.916   3.326   7.062  0.1274  0.0001 -0.0522
  253TIP3    H122318   1.970   3.258   7.023 -0.0055  0.4643 -1.0671
  253TIP3    H222319   1.864   3.281   7.128  0.4040 -0.7855 -0.3671
  254TIP3   OH222320   4.864   1.845   2.015  0.0243  0.8063 -0.1244
  254TIP3    H122321   4.869   1.754   2.045 -0.6749  1.1527  1.1106
  254TIP3    H222322   4.773   1.857   1.990 -0.2623  1.5863  1.1929
  255TIP3   OH222323   3.486   0.758   8.902  0.2250  0.3613 -0.1092
  255TIP3    H122324   3.540   0.820   8.952  0.5393 -0.0459  0.0679
  255TIP3    H222325   3.516   0.672   8.932 -1.0188  0.1251  0.5238
  256TIP3   OH222326   2.379   3.407   1.043 -0.0138 -0.4655  0.4829
  256TIP3    H122327   2.470   3.427   1.063 -0.7729  1.7632  2.1413
  256TIP3    H222328   2.330   3.446   1.115 -2.5268  1.4857 -2.0535
  257TIP3   OH222329   3.623   3.866   7.941  0.2905  0.6722 -0.2512
  257TIP3    H122330   3.646   3.959   7.940 -0.5552  0.8872 -0.7145
  257TIP3    H222331   3.529   3.865   7.957 -0.9762  0.2342 -5.6365
  258TIP3   OH222332   2.999   5.811   2.682 -0.3967 -1.0902 -0.1193
  258TIP3    H122333   2.963   5.898   2.663 -0.9341 -1.3823 -0.4418
  258TIP3    H222334   2.924   5.752   2.674  0.1794 -1.7236 -0.9583
  259TIP3   OH222335   2.467   3.852   7.643  0.8737  0.3494 -0.3484
  259TIP3    H122336   2.509   3.767   7.629  0.7629  0.3444 -0.6515
  259TIP3    H222337   2.381   3.832   7.679  1.8181  0.4028  2.1349
  260TIP3   OH222338   5.261   3.043   8.174 -0.2468 -0.4862  0.2252
  260TIP3    H122339   5.324   3.084   8.233  0.2804  0.0906 -0.7096
  260TIP3    H222340   5.180   3.036   8.225  0.0799  0.3748  0.8720
  261TIP3   OH222341   1.009   6.648   1.008  0.6204 -0.1970  0.3270
  261TIP3    H122342   0.982   6.561   1.036  0.7777 -0.5348 -0.5317
  261TIP3    H222343   1.051   6.634   0.923 -0.2029  0.8282 -0.2707
  262TIP3   OH222344   1.192   1.100   8.933 -0.1921  0.2238  0.4938
  262TIP3    H122345   1.208   1.132   8.844 -0.9419 -1.5553 -0.3196
  262TIP3    H222346   1.256   1.030   8.946 -0.1896  0.3638  1.3110
  263TIP3   OH222347   5.383   5.553   7.723  0.6740  0.4034 -0.5072
  263TIP3    H122348   5.438   5.599   7.786  1.8128  2.4686 -2.8324
  263TIP3    H222349   5.438   5.480   7.692  0.0455 -0.7235  0.9231
  264TIP3   OH222350   0.188   4.664   8.809 -0.0954 -0.2107  0.1331
  264TIP3    H122351   0.177   4.687   8.902  0.1149 -1.6055  0.5223
  264TIP3    H222352   0.256   4.724   8.778 -1.5786  1.6466  0.3232
  265TIP3   OH222353   1.661   5.185   8.933 -0.2039  0.2186 -0.1745
  265TIP3    H122354   1.579   5.189   8.885  0.6967  1.2645 -1.7052
  265TIP3    H222355   1.644   5.124   9.006 -2.6060  1.1962  0.1567
  266TIP3   OH222356   4.536   6.717   1.117  0.0092  0.5307  0.0007
  266TIP3    H122357   4.485   6.775   1.060  0.6445  0.7471 -0.3503
  266TIP3    H222358   4.625   6.751   1.114  0.3263 -0.2611  0.0593
  267TIP3   OH222359   2.516   1.452   7.081 -0.3993  0.1327 -0.2207
  267TIP3    H122360   2.533   1.474   6.990 -0.5212  2.6096  0.2918
  267TIP3    H222361   2.602   1.444   7.121 -0.3540 -0.4414 -0.4235
  268TIP3   OH222362   5.418   6.255   1.794 -0.5373 -0.1564  0.1867
  268TIP3    H122363   5.427   6.201   1.716 -1.7920  0.6026 -0.5081
  268TIP3    H222364   5.333   6.231   1.830  0.6700 -1.6647  2.2698
  269TIP3   OH222365   3.428   5.170   0.059 -0.2305 -0.1498 -0.4066
  269TIP3    H122366   3.406   5.204   0.146  0.7568  0.3855 -0.3598
  269TIP3    H222367   3.461   5.082   0.075 -2.6192 -1.1577 -0.5127
  270TIP3   OH222368   4.223   0.324   1.774 -0.1864 -0.5540 -0.5769
  270TIP3    H122369   4.127   0.322   1.773 -0.2132  0.0510 -2.5408
  270TIP3    H222370   4.246   0.400   1.721  1.4094  0.3694  1.3196
  271TIP3   OH222371   1.083   1.005   2.247  0.1712 -0.1441 -0.3303
  271TIP3    H122372   1.097   1.094   2.281  2.5767 -0.5756  0.0478
  271TIP3    H222373   1.088   1.015   2.152  0.2084  0.1603 -0.2988
  272TIP3   OH222374   1.075   0.612   7.359 -0.5575 -0.2687  0.1313
  272TIP3    H122375   1.047   0.664   7.434 -0.9684  0.3912 -0.4705
  272TIP3    H222376   1.010   0.629   7.291  1.3100  1.4417 -1.3716
  273TIP3   OH222377   3.223   2.052   1.235 -0.2517 -0.1169  0.3640
  273TIP3    H122378   3.239   1.976   1.291  0.8574  0.5702  1.0241
  273TIP3    H222379   3.246   2.127   1.290 -0.7883  0.6681 -0.4605
  274TIP3   OH222380   2.315   5.579   8.604  0.2561 -0.1994  1.0008
  274TIP3    H122381   2.309   5.663   8.558  1.8261 -1.0192 -0.8616
  274TIP3    H222382   2.281   5.597   8.692 -1.1359  1.9219  0.1150
  275TIP3   OH222383   2.332   0.673   1.480  0.5104 -0.4116 -0.1589
  275TIP3    H122384   2.366   0.584   1.481 -0.8721 -0.9703  0.3965
  275TIP3    H222385   2.296   0.686   1.568 -1.1123 -0.0574 -0.8383
  276TIP3   OH222386   5.593   3.085   2.080  0.2123 -0.1721  0.0601
  276TIP3    H122387   5.558   3.129   2.157 -1.4509 -0.9977 -0.1745
  276TIP3    H222388   5.539   3.116   2.007 -0.6914 -2.1240 -0.1902
  277TIP3   OH222389   3.522   3.289   8.661  1.1229 -0.3662  0.6211
  277TIP3    H122390   3.603   3.247   8.630  1.1741  0.1748  0.0019
  277TIP3    H222391   3.455   3.260   8.599  0.6850 -1.3675  1.5260
  278TIP3   OH222392   3.554   5.422   0.885  0.2812 -0.1119  0.4613
  278TIP3    H122393   3.521   5.508   0.858  0.5964 -0.1602 -0.0997
  278TIP3    H222394   3.577   5.433   0.977  1.5083  0.7779  0.0714
  279TIP3   OH222395   6.034   0.782   8.027  0.4008 -0.0854 -0.6778
  279TIP3    H122396   5.993   0.753   7.946  1.0517  0.6130 -1.2655
  279TIP3    H222397   6.019   0.876   8.030 -3.0263 -0.5031  1.9504
  280TIP3   OH222398   3.693   1.436   0.998  0.1458 -0.3317 -0.2335
  280TIP3    H122399   3.671   1.471   1.084  0.9880 -0.1653 -0.0800
  280TIP3    H222400   3.641   1.356   0.991 -0.3376 -0.0619  0.2033
  281TIP3   OH222401   2.904   3.041   8.294 -0.3356  0.0744 -0.6250
  281TIP3    H122402   2.969   3.033   8.224 -1.7800  1.3681 -2.2045
  281TIP3    H222403   2.838   3.101   8.258 -0.9542  1.0990  2.0018
  282TIP3   OH222404   5.626   5.954   1.275  0.0133 -0.4790  0.2918
  282TIP3    H122405   5.705   5.925   1.321  1.4617 -0.0064 -1.7456
  282TIP3    H222406   5.599   5.879   1.223  1.6262  0.5053 -2.1702
  283TIP3   OH222407   2.133   6.198   0.758  0.1412 -0.6756  0.4138
  283TIP3    H122408   2.103   6.262   0.693 -0.0029  0.7635  1.8256
  283TIP3    H222409   2.054   6.170   0.803  0.2237 -1.7770 -0.1069
  284TIP3   OH222410   0.964   6.565   2.473  0.0116 -0.5174  0.1222
  284TIP3    H122411   1.041   6.510   2.458  1.8768  1.5442  1.5266
  284TIP3    H222412   0.955   6.616   2.393  0.1474 -0.7115 -0.0174
  285TIP3   OH222413   6.157   3.532   2.502  0.1925  0.0558  0.1168
  285TIP3    H122414   6.111   3.591   2.561 -2.9893 -0.6467 -1.4217
  285TIP3    H222415   6.174   3.454   2.554  0.6403  0.7367  1.0182
  286TIP3   OH222416   3.809   4.072   1.851 -0.1099 -0.0923 -0.2205
  286TIP3    H122417   3.836   4.030   1.769 -0.1321  0.8697 -0.7347
  286TIP3    H222418   3.794   3.999   1.912  1.5969 -0.7644 -0.5426
  287TIP3   OH222419   2.489   1.884   0.080  0.0525 -0.4442 -0.0821
  287TIP3    H122420   2.473   1.861   0.171 -1.6275  4.5512  1.2389
  287TIP3    H222421   2.582   1.907   0.077  0.2059 -1.0080  0.2565
  288TIP3   OH222422   6.106   2.469   8.045  0.0660 -0.2219  0.0799
  288TIP3    H122423   6.112   2.401   7.977 -2.8739 -1.0833  0.5129
  288TIP3    H222424   6.167   2.537   8.017  0.1388 -1.2540 -2.5708
  289TIP3   OH222425   3.036   3.332   1.509 -0.4844  0.5461 -0.2205
  289TIP3    H122426   2.978   3.392   1.460  1.5951  1.4606 -1.7436
  289TIP3    H222427   3.047   3.374   1.594 -0.0091  1.7404 -0.8479
  290TIP3   OH222428   5.284   5.645   2.485  0.6940 -0.1524 -0.1449
  290TIP3    H122429   5.300   5.700   2.561  0.2980  1.1098 -0.9377
  290TIP3    H222430   5.352   5.579   2.488  0.0006 -0.8591  1.9329
  291TIP3   OH222431   5.076   2.870   1.051  0.4711  0.1179  0.0106
  291TIP3    H122432   5.032   2.897   0.971  0.2104 -0.8415 -0.1760
  291TIP3    H222433   5.051   2.778   1.063  1.5572 -0.1294  0.4849
  292TIP3   OH222434   5.673   2.520   1.023 -0.5072 -0.0344 -0.1050
  292TIP3    H122435   5.592   2.479   1.053 -0.5674  0.0779 -0.1139
  292TIP3    H222436   5.724   2.448   0.987 -0.3006 -0.2264  0.5523
  293TIP3   OH222437   2.240   2.317   8.495 -0.2633 -0.1060 -0.1294
  293TIP3    H122438   2.322   2.342   8.453  1.0614 -0.1565  2.2693
  293TIP3    H222439   2.173   2.365   8.445  1.3727  1.3613 -1.0556
  294TIP3   OH222440   0.698   3.320   1.099  0.0232 -0.4893 -0.2889
  294TIP3    H122441   0.619   3.313   1.153  0.1986 -1.0601 -0.1044
  294TIP3    H222442   0.665   3.319   1.009 -0.1737 -0.7893 -0.2148
  295TIP3   OH222443   0.963   6.550   2.980 -0.3348  0.5421  0.5520
  295TIP3    H122444   0.978   6.499   3.059 -1.8151 -0.8665 -0.0157
  295TIP3    H222445   0.882   6.599   2.998 -0.3662  0.6497  0.1286
  296TIP3   OH222446   5.095   0.836   7.360 -0.1196 -0.4135 -0.2539
  296TIP3    H122447   5.094   0.749   7.321 -1.7684 -1.3764  1.7150
  296TIP3    H222448   5.137   0.823   7.445 -2.4346  0.1661  1.0477
  297TIP3   OH222449   5.846   5.937   1.459  0.2247 -0.8168  0.3148
  297TIP3    H122450   5.908   5.923   1.531  0.4516 -0.7584  0.1321
  297TIP3    H222451   5.799   5.854   1.451 -0.0542 -0.7045  0.7682
  298TIP3   OH222452   2.381   4.407   7.427 -0.5015 -0.0884 -0.2367
  298TIP3    H122453   2.291   4.436   7.412 -1.0977 -2.4849 -1.9231
  298TIP3    H222454   2.431   4.450   7.357 -0.7068 -0.3371 -0.5363
  299TIP3   OH222455   4.363   1.828   8.089 -0.0499 -0.2932  0.0883
  299TIP3    H122456   4.402   1.749   8.053  0.9356  1.5435 -3.3605
  299TIP3    H222457   4.426   1.898   8.069 -0.4884  1.3660  3.6691
  300TIP3   OH222458   3.770   2.463   0.806  0.4932 -0.3785  0.1508
  300TIP3    H122459   3.709   2.449   0.734  0.7093  2.0894 -0.5987
  300TIP3    H222460   3.715   2.488   0.880  0.4905  0.4404 -0.1245
  301TIP3   OH222461   5.222   3.100   0.744 -0.0935 -0.0266 -0.0915
  301TIP3    H122462   5.132   3.130   0.759  0.3032  1.1406  0.0095
  301TIP3    H222463   5.267   3.116   0.827 -0.0487 -1.6786  0.2477
  302TIP3   OH222464   5.170   2.853   1.458  0.0317  0.4567  0.5566
  302TIP3    H122465   5.191   2.946   1.473  0.7268  0.6484 -1.2812
  302TIP3    H222466   5.077   2.846   1.477 -0.2050  1.7284 -0.0226
  303TIP3   OH222467   4.324   3.136   1.523  0.3363 -0.4204  0.1940
  303TIP3    H122468   4.334   3.181   1.439  2.0265 -1.4573 -0.2293
  303TIP3    H222469   4.329   3.043   1.500 -0.2277 -0.7451  1.3370
  304TIP3   OH222470   0.854   3.638   7.666 -0.5156 -0.0361 -0.1018
  304TIP3    H122471   0.908   3.641   7.588 -0.9356 -1.2531 -0.4595
  304TIP3    H222472   0.793   3.566   7.651 -1.1947  0.2812  0.9683
  305TIP3   OH222473   3.132   0.364   8.985 -0.3399 -0.5470 -0.0915
  305TIP3    H122474   3.070   0.295   8.962 -0.6668  0.0403 -1.0140
  305TIP3    H222475   3.094   0.408   9.060 -0.7266 -0.5891 -0.2645
  306TIP3   OH222476   0.833   0.955   0.333  0.2589  0.2517  0.3854
  306TIP3    H122477   0.802   0.968   0.244 -2.1678  1.2853  1.3011
  306TIP3    H222478   0.821   0.862   0.350 -1.3243  0.4174  0.2980
  307TIP3   OH222479   4.742   0.918   8.678  0.3237  0.2430 -0.2031
  307TIP3    H122480   4.721   0.855   8.746 -0.5674 -0.1489 -0.8242
  307TIP3    H222481   4.751   0.866   8.598  1.3743  0.6922 -0.4048
  308TIP3   OH222482   5.557   0.977   1.568  0.4299 -0.3085  0.5176
  308TIP3    H122483   5.590   1.053   1.521 -0.2194  0.5168  1.3707
  308TIP3    H222484   5.626   0.955   1.631 -0.4445  1.2389  2.1021
  309TIP3   OH222485   1.168   5.786   0.938 -0.6350 -0.2651 -0.1183
  309TIP3    H122486   1.146   5.873   0.904  1.3316  0.6144  0.7135
  309TIP3    H222487   1.090   5.760   0.987 -0.6302  1.8850  1.1869
  310TIP3   OH222488   1.132   0.635   2.203  0.1657 -0.1577 -0.3514
  310TIP3    H122489   1.044   0.628   2.165 -0.3455  1.3201  0.5012
  310TIP3    H222490   1.186   0.578   2.148 -1.7780 -3.2240  0.6753
  311TIP3   OH222491   6.496   5.156   7.005 -0.4761  0.2254 -0.5097
  311TIP3    H122492   6.530   5.092   7.069  2.3784  1.9606 -0.1126
  311TIP3    H222493   6.530   5.125   6.921 -1.4700 -0.2554 -0.7527
  312TIP3   OH222494   5.224   3.274   2.450 -0.5078 -0.5254  0.0275
  312TIP3    H122495   5.140   3.234   2.427 -1.7937  1.3666  1.1387
  312TIP3    H222496   5.221   3.362   2.412  0.3614  0.0626  1.2289
  313TIP3   OH222497   4.387   0.144   0.929 -0.9407 -0.4168  0.0007
  313TIP3    H122498   4.335   0.203   0.983 -1.6011  1.0016 -2.0677
  313TIP3    H222499   4.323   0.091   0.882 -0.4623 -0.2754 -0.8316
  314TIP3   OH222500   2.587   3.593   7.589 -0.1603 -0.4170  0.8073
  314TIP3    H122501   2.582   3.508   7.544  1.9151  0.6128 -1.5958
  314TIP3    H222502   2.671   3.591   7.635  0.0865  0.4600  0.4161
  315TIP3   OH222503   2.853   4.725   0.603  0.0927  0.2082  0.0765
  315TIP3    H122504   2.831   4.809   0.643  0.2544  0.9728 -1.3667
  315TIP3    H222505   2.928   4.693   0.654 -0.2472  0.7136  0.9174
  316TIP3   OH222506   2.723   4.911   0.219  0.2276 -0.2959  0.2450
  316TIP3    H122507   2.726   4.841   0.284 -1.0639  0.2564  0.9299
  316TIP3    H222508   2.701   4.866   0.137 -1.9636 -0.5639  0.9329
  317TIP3   OH222509   3.056   4.754   2.604 -0.1667  0.0693  0.4059
  317TIP3    H122510   3.074   4.845   2.581  1.4116  0.0804  1.5477
  317TIP3    H222511   2.961   4.744   2.593 -0.3484  1.8213  0.2215
  318TIP3   OH222512   0.501   4.769   8.288 -0.7602 -0.2985  0.2609
  318TIP3    H122513   0.453   4.830   8.231 -1.8065 -0.6625  0.7159
  318TIP3    H222514   0.487   4.683   8.247  1.8692 -0.1422 -1.1696
  319TIP3   OH222515   4.507   1.623   1.427 -0.2864 -0.0097 -0.1687
  319TIP3    H122516   4.556   1.658   1.353  0.4824 -0.9302 -0.1086
  319TIP3    H222517   4.493   1.531   1.407  4.1938 -1.6902  2.8268
  320TIP3   OH222518   6.186   6.497   1.635 -0.8578  0.2446 -0.0017
  320TIP3    H122519   6.216   6.488   1.725 -1.3182  0.8336  0.2195
  320TIP3    H222520   6.265   6.488   1.582 -0.4130  0.9385  0.5166
  321TIP3   OH222521   3.992   5.739   3.014  0.2566  0.0794 -0.5852
  321TIP3    H122522   4.045   5.794   2.956  1.0631  0.4792  0.5017
  321TIP3    H222523   3.935   5.800   3.060 -1.0671 -0.3260 -1.5893
  322TIP3   OH222524   0.152   1.130   0.948 -0.0594 -0.0904 -0.5487
  322TIP3    H122525   0.246   1.114   0.954  0.0639  1.0758  1.5606
  322TIP3    H222526   0.112   1.060   1.000 -0.1582  0.7865  0.5983
  323TIP3   OH222527   6.698   5.300   1.633 -0.1423  0.3976  0.3775
  323TIP3    H122528   6.700   5.229   1.568  2.1569  1.7565 -1.1460
  323TIP3    H222529   6.612   5.340   1.622  0.7650  1.6531 -3.1236
  324TIP3   OH222530   0.514   5.318   8.036 -0.3344 -0.1533 -0.0577
  324TIP3    H122531   0.585   5.383   8.038  1.5308 -2.0945  1.4114
  324TIP3    H222532   0.519   5.279   7.949  1.6655 -1.5005  0.6040
  325TIP3   OH222533   2.786   1.893   0.130 -0.3610  0.4268 -0.2282
  325TIP3    H122534   2.838   1.832   0.079 -1.0931  0.2749 -0.8027
  325TIP3    H222535   2.799   1.978   0.087 -0.2350  0.4676 -0.1084
  326TIP3   OH222536   2.068   0.633   1.427  0.0342  0.5753  0.5384
  326TIP3    H122537   2.042   0.605   1.515 -0.1612 -1.9130 -0.2221
  326TIP3    H222538   2.159   0.661   1.436  0.5028 -1.0599  1.3230
  327TIP3   OH222539   1.146   0.866   0.002  0.3559  0.4466  0.5786
  327TIP3    H122540   1.105   0.790   0.043  0.5276  0.3585  0.5879
  327TIP3    H222541   1.187   0.913   0.075 -1.0605  1.3876  0.8042
  328TIP3   OH222542   6.364   5.314   0.967 -0.2528  0.1521 -0.0486
  328TIP3    H122543   6.308   5.269   0.902 -0.6868  0.4202  0.1333
  328TIP3    H222544   6.303   5.342   1.035  0.0699  0.6906  0.0224
  329TIP3   OH222545   6.583   6.441   8.031 -0.2616  0.3550 -0.0532
  329TIP3    H122546   6.571   6.470   8.122 -1.0883 -0.1001 -0.0124
  329TIP3    H222547   6.678   6.435   8.021 -0.1214  1.4227  0.4550
  330TIP3   OH222548   1.186   3.700   8.633 -0.1874  0.3568  0.3095
  330TIP3    H122549   1.168   3.751   8.712  0.7301  0.1644  0.6538
  330TIP3    H222550   1.107   3.648   8.619 -0.2020  0.0907  1.3294
  331TIP3   OH222551   4.740   0.382   7.328 -0.9157 -0.2993 -0.3935
  331TIP3    H122552   4.786   0.353   7.249  1.7649  1.3081  0.4505
  331TIP3    H222553   4.746   0.477   7.325  0.8787 -0.2147  2.5703
  332TIP3   OH222554   4.756   0.115   8.773 -0.4087  0.1928 -0.2379
  332TIP3    H122555   4.712   0.130   8.689 -1.9790  1.3585  0.7385
  332TIP3    H222556   4.743   0.196   8.822  0.8844 -0.2933  0.9816
  333TIP3   OH222557   5.063   6.116   7.683 -0.3296  0.0636 -0.4528
  333TIP3    H122558   5.089   6.077   7.767 -2.2352  1.5590  0.9225
  333TIP3    H222559   4.982   6.070   7.659  0.8770 -1.2614 -2.2151
  334TIP3   OH222560   1.253   4.680   7.609  0.4546 -0.1770 -0.3710
  334TIP3    H122561   1.169   4.701   7.650  0.3730  1.0120 -1.1173
  334TIP3    H222562   1.274   4.756   7.555  1.7254 -0.7072 -0.6718
  335TIP3   OH222563   2.498   5.380   0.116  0.0435  0.5158  0.6097
  335TIP3    H122564   2.441   5.456   0.127  0.5101  0.8942  0.4910
  335TIP3    H222565   2.565   5.391   0.184 -0.9255 -0.7780  1.8120
  336TIP3   OH222566   1.437   5.278   0.754  0.1757  0.5487 -0.9019
  336TIP3    H122567   1.348   5.274   0.788 -0.0104  0.8077 -1.3448
  336TIP3    H222568   1.428   5.324   0.670  0.8353  1.3775 -0.5391
  337TIP3   OH222569   4.990   2.121   0.415  0.3660  0.2264 -0.1442
  337TIP3    H122570   4.928   2.049   0.427  0.7307 -0.3608 -1.5349
  337TIP3    H222571   5.076   2.078   0.418  0.5957  0.6380 -0.6783
  338TIP3   OH222572   3.202   6.453   1.512  0.5348 -0.2236 -0.0517
  338TIP3    H122573   3.239   6.373   1.475  1.0006  0.9955 -2.3714
  338TIP3    H222574   3.254   6.470   1.591  0.9361 -1.7540  0.0376
  339TIP3   OH222575   0.702   1.431   7.260  0.1543 -0.1107  0.2672
  339TIP3    H122576   0.693   1.346   7.217 -0.1396 -0.5146  1.1025
  339TIP3    H222577   0.618   1.475   7.244  0.7416  0.5411 -1.2109
  340TIP3   OH222578   6.593   1.452   0.680 -0.4853 -0.2615  0.6814
  340TIP3    H122579   6.569   1.361   0.664  3.3322 -1.2408 -0.3618
  340TIP3    H222580   6.668   1.447   0.739  0.2982  2.1800 -0.0054
  341TIP3   OH222581   4.630   0.938   1.110  0.0913 -0.2754  0.0506
  341TIP3    H122582   4.697   0.959   1.044  0.5105  0.8767  0.7986
  341TIP3    H222583   4.551   0.920   1.059  0.8426 -1.2057 -0.8349
  342TIP3   OH222584   4.803   0.601   1.138 -0.2554 -0.6734 -0.3644
  342TIP3    H122585   4.893   0.613   1.110 -0.3124  0.0759 -0.2348
  342TIP3    H222586   4.801   0.512   1.175  0.6158 -0.4196  0.3288
  343TIP3   OH222587   4.618   3.616   0.701  0.5031 -0.5833 -0.5985
  343TIP3    H122588   4.688   3.568   0.744 -0.5161 -0.5744  1.1828
  343TIP3    H222589   4.551   3.626   0.769 -1.0271 -0.1964 -2.1006
  344TIP3   OH222590   6.311   4.171   7.456  0.3861 -0.7175 -0.3330
  344TIP3    H122591   6.369   4.220   7.399 -1.1179  0.3365 -1.0221
  344TIP3    H222592   6.278   4.235   7.519 -1.6420 -0.7455 -1.2648
  345TIP3   OH222593   3.298   3.297   1.938 -0.4988 -0.4287 -0.2194
  345TIP3    H122594   3.339   3.212   1.955  1.2207  0.3691 -0.1662
  345TIP3    H222595   3.244   3.314   2.016  2.5952  0.4509  1.9461
  346TIP3   OH222596   0.197   0.475   1.837  0.0817  0.2306 -0.4551
  346TIP3    H122597   0.220   0.432   1.920  1.0518  1.6627  0.0734
  346TIP3    H222598   0.279   0.516   1.808 -0.0530 -0.8566 -2.5487
  347TIP3   OH222599   2.274   2.227   2.719 -0.1246  0.3495 -0.6331
  347TIP3    H122600   2.218   2.150   2.723 -0.8309  0.9110  0.6389
  347TIP3    H222601   2.223   2.292   2.669 -0.9116  1.0603  1.0167
  348TIP3   OH222602   3.116   2.693   2.342 -0.1003  0.3310 -0.3401
  348TIP3    H122603   3.123   2.622   2.406  0.5344  1.0825  0.4496
  348TIP3    H222604   3.108   2.772   2.395  2.7810  1.2494 -1.0935
  349TIP3   OH222605   0.803   1.543   0.940 -0.5549  0.2904  0.1637
  349TIP3    H122606   0.872   1.535   1.006  0.0438  0.5797 -0.4046
  349TIP3    H222607   0.743   1.609   0.975 -0.4839  0.1127  0.6174
  350TIP3   OH222608   3.168   5.927   8.988 -0.2277  0.6856  0.2567
  350TIP3    H122609   3.223   5.943   8.911 -1.9978 -1.1090 -1.5164
  350TIP3    H222610   3.194   5.994   9.051  2.2363  1.3980 -1.3924
  351TIP3   OH222611   6.308   3.066   0.160 -0.3909  0.3559  0.3427
  351TIP3    H122612   6.217   3.074   0.189 -1.0053 -3.5106  0.0141
  351TIP3    H222613   6.322   3.142   0.103 -3.2850  1.2610  0.6954
  352TIP3   OH222614   4.700   3.053   1.804 -0.3403  0.6514  0.0045
  352TIP3    H122615   4.759   3.101   1.745  0.2969 -1.0084 -0.7627
  352TIP3    H222616   4.615   3.095   1.790  0.0463  1.0968 -1.1980
  353TIP3   OH222617   2.442   3.562   0.246 -0.6287 -0.1838  0.2227
  353TIP3    H122618   2.517   3.548   0.188  0.1112 -2.2972  1.5748
  353TIP3    H222619   2.366   3.564   0.187  0.1047 -2.1139 -0.8575
  354TIP3   OH222620   1.673   2.287   7.692 -0.7317 -0.0332 -0.4556
  354TIP3    H122621   1.594   2.236   7.678 -0.1911 -1.0150 -0.0437
  354TIP3    H222622   1.733   2.256   7.624  0.5071 -1.9126  1.3592
  355TIP3   OH222623   3.931   5.713   0.544 -0.1855  0.0330  0.4573
  355TIP3    H122624   3.961   5.758   0.465  0.4888  3.4146  2.4599
  355TIP3    H222625   3.993   5.641   0.555 -0.3359 -0.5989 -2.0519
  356TIP3   OH222626   2.852   3.814   0.921 -0.3810  0.1862 -0.0915
  356TIP3    H122627   2.786   3.823   0.853  0.8577  1.9921 -1.1541
  356TIP3    H222628   2.836   3.887   0.980 -1.0259 -0.9843  1.2370
  357TIP3   OH222629   5.685   1.586   0.120 -0.1379 -0.2873 -0.0707
  357TIP3    H122630   5.763   1.536   0.145 -0.6654 -0.1426  2.1555
  357TIP3    H222631   5.711   1.678   0.131 -0.6208 -0.2413  0.7838
  358TIP3   OH222632   0.655   5.293   8.668  0.1445  0.1304  0.0348
  358TIP3    H122633   0.732   5.239   8.652 -0.0784 -0.4916  0.9433
  358TIP3    H222634   0.591   5.263   8.604  0.5068  0.3454 -0.4342
  359TIP3   OH222635   1.224   5.877   2.364 -0.3265  0.0023  0.5642
  359TIP3    H122636   1.211   5.948   2.427  1.7483  1.1677 -0.2013
  359TIP3    H222637   1.268   5.809   2.415 -0.5852  0.0513  0.8610
  360TIP3   OH222638   5.907   0.231   8.394 -0.2900 -0.3663  0.1901
  360TIP3    H122639   5.985   0.222   8.448  0.2028 -2.1968 -0.7722
  360TIP3    H222640   5.918   0.167   8.324 -2.3189 -0.1689 -0.3764
  361TIP3   OH222641   4.626   5.613   0.587  0.6370  0.4119  0.2180
  361TIP3    H122642   4.718   5.634   0.601  0.3437  2.1051 -0.1643
  361TIP3    H222643   4.578   5.681   0.635 -0.4059 -0.0057 -0.1923
  362TIP3   OH222644   2.391   1.392   1.801  0.7412  0.0317 -0.5450
  362TIP3    H122645   2.383   1.406   1.896 -1.3471 -1.9868 -0.3400
  362TIP3    H222646   2.384   1.479   1.764  0.4019  0.7496  1.0919
  363TIP3   OH222647   0.191   2.500   9.021 -0.1423  0.1009 -0.0986
  363TIP3    H122648   0.141   2.541   9.091 -0.6964  0.5849 -0.7669
  363TIP3    H222649   0.152   2.413   9.012 -0.3055  0.1673 -0.0410
  364TIP3   OH222650   3.752   6.705   1.618 -0.3099 -0.2305  0.1635
  364TIP3    H122651   3.727   6.795   1.597 -0.6221 -0.5089 -0.6706
  364TIP3    H222652   3.781   6.710   1.709  1.5392  1.1008 -0.4182
  365TIP3   OH222653   5.809   2.264   1.574 -0.5157  0.2516  0.3826
  365TIP3    H122654   5.810   2.321   1.497 -1.2452 -2.1045 -1.4653
  365TIP3    H222655   5.897   2.275   1.613  0.3325  0.5442 -1.5196
  366TIP3   OH222656   5.515   4.677   7.244  0.5010  0.5214  0.0660
  366TIP3    H122657   5.422   4.667   7.225  0.7232 -1.0654 -0.3372
  366TIP3    H222658   5.518   4.734   7.321 -1.0046 -1.7586  1.9774
  367TIP3   OH222659   3.279   0.628   1.366 -0.3436  0.2543 -0.4551
  367TIP3    H122660   3.365   0.626   1.325 -0.8962  1.5349 -1.7834
  367TIP3    H222661   3.274   0.547   1.417  1.5882  0.1097 -0.4261
  368TIP3   OH222662   2.672   4.873   7.463 -0.0493  0.1074  0.7979
  368TIP3    H122663   2.734   4.902   7.396 -0.5223 -1.1574 -0.2095
  368TIP3    H222664   2.711   4.793   7.498 -0.1971  0.3308  1.4847
  369TIP3   OH222665   1.076   4.106   7.889 -0.0185 -0.2373  0.2298
  369TIP3    H122666   0.989   4.102   7.927  0.3555 -0.9199  1.0495
  369TIP3    H222667   1.109   4.193   7.913 -0.5254  0.0878 -0.2279
  370TIP3   OH222668   3.391   1.733   1.119 -0.0360 -0.0154 -0.2589
  370TIP3    H122669   3.416   1.684   1.041  1.9645 -0.4335  0.5997
  370TIP3    H222670   3.340   1.671   1.171 -0.2518 -0.1441 -0.6171
  371TIP3   OH222671   4.261   2.207   7.867  0.6873  0.8468 -0.1306
  371TIP3    H122672   4.211   2.207   7.786 -1.4399  1.6286  1.1081
  371TIP3    H222673   4.245   2.121   7.905  1.2332  0.6843 -0.2568
  372TIP3   OH222674   5.852   3.194   1.590 -0.3279 -0.6904  0.0579
  372TIP3    H122675   5.864   3.277   1.543 -0.3424 -0.9161 -0.3481
  372TIP3    H222676   5.758   3.187   1.602 -0.4930 -1.5022 -1.4881
  373TIP3   OH222677   1.674   2.195   8.101  0.4477  0.3509 -0.2674
  373TIP3    H122678   1.619   2.251   8.155  0.4402 -0.6215  0.7650
  373TIP3    H222679   1.715   2.255   8.039  0.2565  1.4585  0.6446
  374TIP3   OH222680   6.067   3.939   2.545 -0.0962  0.3120  0.2776
  374TIP3    H122681   6.055   4.013   2.604 -0.1593  0.0959  0.5371
  374TIP3    H222682   5.978   3.914   2.520 -0.0520  0.7049 -0.2878
  375TIP3   OH222683   4.521   5.963   7.946 -0.3620 -0.0975 -0.6811
  375TIP3    H122684   4.615   5.952   7.931 -0.4829 -0.0546 -1.5785
  375TIP3    H222685   4.499   6.045   7.900 -0.4949  0.9622  1.1866
  376TIP3   OH222686   1.444   5.824   1.408  0.2554 -0.6769 -0.1590
  376TIP3    H122687   1.366   5.769   1.414 -0.0228 -0.1550  1.4952
  376TIP3    H222688   1.515   5.766   1.436  0.3674 -0.9279 -0.9303
  377TIP3   OH222689   4.953   0.639   0.002  0.9755  0.0049  0.2050
  377TIP3    H122690   4.970   0.571  -0.062  0.0332  0.1027 -0.1757
  377TIP3    H222691   4.971   0.721  -0.044  1.6250  0.0389  0.5061
  378TIP3   OH222692   1.320   1.759   8.138 -0.3044  0.0132 -0.2248
  378TIP3    H122693   1.363   1.744   8.054  0.8973 -1.2187  0.5599
  378TIP3    H222694   1.237   1.710   8.132 -0.7497  0.8448 -1.0662
  379TIP3   OH222695   3.119   6.595   1.263  0.1641  0.3538 -0.6480
  379TIP3    H122696   3.145   6.523   1.319 -0.9781 -0.6426 -1.3532
  379TIP3    H222697   3.046   6.561   1.211  0.1174  1.7524 -1.5761
  380TIP3   OH222698   4.227   2.000   8.969  0.0576 -0.8207  0.0709
  380TIP3    H122699   4.247   2.031   8.880  1.0991 -0.2042  0.5062
  380TIP3    H222700   4.277   2.058   9.026 -0.5316 -1.2747  1.0624
  381TIP3   OH222701   3.526   1.499   1.372 -0.0660  0.4562 -0.1508
  381TIP3    H122702   3.473   1.421   1.387  0.3882  0.2771  0.5738
  381TIP3    H222703   3.473   1.553   1.314  0.1656 -0.9388 -1.7113
  382TIP3   OH222704   6.404   2.679   1.374  0.2489 -0.4452  0.6962
  382TIP3    H122705   6.496   2.657   1.355  0.7049  1.8954 -0.1534
  382TIP3    H222706   6.355   2.641   1.301  0.4614 -1.9800  1.3153
  383TIP3   OH222707   5.939   3.921   8.033 -0.0062  0.2385  0.2175
  383TIP3    H122708   5.986   3.850   7.989  0.6520  1.1905 -0.6514
  383TIP3    H222709   5.863   3.878   8.073  1.3198 -1.2743  1.2703
  384TIP3   OH222710   3.619   2.446   7.697  0.7668  0.0686 -0.0449
  384TIP3    H122711   3.568   2.404   7.766  1.3337 -0.0005  0.3381
  384TIP3    H222712   3.660   2.374   7.649 -0.3012  0.0672 -1.0103
  385TIP3   OH222713   0.005   0.358   1.683  0.1409 -0.1260 -0.1466
  385TIP3    H122714   0.065   0.401   1.743 -0.3578 -2.1517  2.0009
  385TIP3    H222715  -0.070   0.334   1.738 -0.6509 -1.5015 -1.7224
  386TIP3   OH222716   5.484   1.391   8.813  0.2626  0.1756 -0.3204
  386TIP3    H122717   5.565   1.441   8.813 -0.1866  0.9855 -1.7706
  386TIP3    H222718   5.421   1.447   8.858  0.4997 -0.4907  0.8845
  387TIP3   OH222719   6.597   4.739   8.436 -0.2931  0.8014 -0.0943
  387TIP3    H122720   6.512   4.695   8.432 -1.0393  2.0039  1.6793
  387TIP3    H222721   6.648   4.687   8.498  0.1304  0.3626 -0.7908
  388TIP3   OH222722   5.790   6.136   8.154 -0.0454 -0.2280  0.1855
  388TIP3    H122723   5.852   6.202   8.121  0.7806 -0.9371  0.2656
  388TIP3    H222724   5.710   6.185   8.172  0.5695  0.7666  0.3087
  389TIP3   OH222725   0.367   0.062   1.751  0.1953 -0.1490  0.5259
  389TIP3    H122726   0.352   0.058   1.657  1.7977  0.3278  0.2076
  389TIP3    H222727   0.424   0.138   1.762 -2.4429  1.7441  2.2710
  390TIP3   OH222728   6.728   5.973   8.883 -0.3187 -0.5054  0.1539
  390TIP3    H122729   6.807   5.947   8.837  0.5022  2.0009 -0.0337
  390TIP3    H222730   6.686   6.036   8.824 -2.9549 -2.3530 -0.1172
  391TIP3   OH222731   2.160   2.858   8.616  0.4435  0.2309 -0.0224
  391TIP3    H122732   2.076   2.842   8.575  0.5189  0.8131 -0.4212
  391TIP3    H222733   2.215   2.784   8.589  0.0811 -0.1150  0.1892
  392TIP3   OH222734   6.192   0.864   1.490  0.0022 -0.0042 -0.4410
  392TIP3    H122735   6.261   0.866   1.556 -2.0768  0.6521  1.8571
  392TIP3    H222736   6.224   0.802   1.424  3.0521  0.8173  0.1194
  393TIP3   OH222737   0.511   5.096   0.609  0.2292 -0.4334 -0.8247
  393TIP3    H122738   0.463   5.119   0.529  1.2490 -0.4253 -1.4549
  393TIP3    H222739   0.475   5.155   0.676  1.4437  1.7478 -1.9763
  394TIP3   OH222740   2.054   3.624   2.208 -0.7110 -0.5073 -0.1098
  394TIP3    H122741   2.131   3.655   2.160 -1.1938 -0.6603 -1.0277
  394TIP3    H222742   1.997   3.701   2.215 -0.4159 -0.3579  0.6970
  395TIP3   OH222743   0.428   2.260   2.569  0.4723  0.9655  0.6586
  395TIP3    H122744   0.398   2.224   2.486  2.1198  0.6250  0.1793
  395TIP3    H222745   0.399   2.197   2.635  2.2332 -0.6696 -0.0488
  396TIP3   OH222746   3.737   2.393   7.370 -0.2496  0.4071  0.2042
  396TIP3    H122747   3.716   2.481   7.338 -1.4285 -0.3292 -1.1982
  396TIP3    H222748   3.744   2.340   7.291 -1.7191 -1.1866  1.0660
  397TIP3   OH222749   3.668   1.679   8.462 -0.0006 -0.5601  0.6231
  397TIP3    H122750   3.697   1.762   8.499  0.3730 -0.6368  0.5162
  397TIP3    H222751   3.747   1.643   8.421 -0.7471  0.3248 -1.7534
  398TIP3   OH222752   0.367   6.007   2.133 -0.2335  0.7769  0.1725
  398TIP3    H122753   0.308   5.943   2.093  0.5999 -0.0090  0.1509
  398TIP3    H222754   0.372   5.981   2.225 -0.0512  0.9327  0.2086
  399TIP3   OH222755   5.969   0.446   2.119  0.0519 -0.1106 -0.2329
  399TIP3    H122756   6.060   0.429   2.095 -0.3328 -0.6590 -1.3800
  399TIP3    H222757   5.968   0.537   2.148  1.2974 -0.6122  1.5551
  400TIP3   OH222758   4.120   3.782   1.190 -0.1921 -0.2812 -0.7665
  400TIP3    H122759   4.094   3.777   1.098 -0.4474 -1.3909 -0.6500
  400TIP3    H222760   4.191   3.718   1.199 -0.1688 -0.1834 -0.1992
  401TIP3   OH222761   6.408   3.440   2.725  0.4687 -0.1433  0.0395
  401TIP3    H122762   6.379   3.383   2.797 -2.0077  0.8868 -0.0285
  401TIP3    H222763   6.351   3.417   2.652  1.6090  0.2074 -0.9834
  402TIP3   OH222764   3.012   5.872   0.688 -0.3323  0.6050 -0.2841
  402TIP3    H122765   3.011   5.916   0.603  0.5392  0.9231 -0.1434
  402TIP3    H222766   2.959   5.793   0.676  0.8595 -0.0414 -1.5073
  403TIP3   OH222767   6.609   2.952   7.228  0.1432 -0.0653 -0.4492
  403TIP3    H122768   6.617   2.995   7.313 -1.5380  0.0796 -0.3243
  403TIP3    H222769   6.531   2.896   7.237  0.2205 -0.4176 -1.7390
  404TIP3   OH222770   4.953   0.257   0.059 -0.2079 -0.0818  0.5418
  404TIP3    H122771   4.892   0.265  -0.015 -1.7375  0.3930  1.7941
  404TIP3    H222772   4.919   0.319   0.124  2.3177  1.0700  0.8556
  405TIP3   OH222773   4.489   1.999   0.702  0.4146  0.3379  0.1596
  405TIP3    H122774   4.584   2.013   0.713  0.3456  1.0810 -0.1214
  405TIP3    H222775   4.454   2.009   0.791  0.6289 -0.2332  0.3145
  406TIP3   OH222776   0.347   5.392   1.391  0.3431  0.1822  0.3081
  406TIP3    H122777   0.442   5.393   1.397  0.9133  1.8201 -4.5641
  406TIP3    H222778   0.321   5.483   1.404 -0.3771  0.0180  0.0498
  407TIP3   OH222779   3.397   5.590   2.790  0.0911 -0.0714  0.2422
  407TIP3    H122780   3.430   5.679   2.793 -1.8133  0.7350 -1.0166
  407TIP3    H222781   3.322   5.590   2.849  0.1183 -0.8807  0.2928
  408TIP3   OH222782   4.852   1.317   8.694  0.6249 -0.0281 -0.1462
  408TIP3    H122783   4.840   1.412   8.695 -1.8502 -0.2484  2.3592
  408TIP3    H222784   4.763   1.282   8.693  1.4274 -2.2754  0.9296
  409TIP3   OH222785   6.398   6.574   7.882  0.0286 -0.4154  0.3136
  409TIP3    H122786   6.378   6.663   7.911  1.1302 -0.4439  1.2583
  409TIP3    H222787   6.474   6.548   7.935 -0.2730 -1.9214  0.0640
  410TIP3   OH222788   5.175   4.666   7.698 -0.1666 -0.3578  0.5662
  410TIP3    H122789   5.106   4.726   7.668 -0.5940 -0.8783  0.4987
  410TIP3    H222790   5.193   4.610   7.623  1.7158  0.9974 -0.0674
  411TIP3   OH222791   5.909   0.794   1.407 -0.0858 -0.1664 -0.3115
  411TIP3    H122792   5.999   0.786   1.375 -0.1197 -0.5569 -0.3082
  411TIP3    H222793   5.872   0.866   1.355 -0.3775 -1.2726 -1.7171
  412TIP3   OH222794   3.914   5.838   1.964 -0.1843  0.7434 -0.5617
  412TIP3    H122795   3.957   5.754   1.959 -0.9079  0.3437 -0.2782
  412TIP3    H222796   3.841   5.824   2.024  0.5046  1.9330  0.6008
  413TIP3   OH222797   5.304   5.127   2.969 -0.1575  0.3886  0.0125
  413TIP3    H122798   5.374   5.076   3.010  0.4686 -0.2411 -1.7396
  413TIP3    H222799   5.228   5.115   3.026  0.2491 -1.7081  0.1854
  414TIP3   OH222800   5.243   0.609   3.232  0.0027  0.2042 -0.5958
  414TIP3    H122801   5.185   0.533   3.235  0.1594  0.0857 -0.5413
  414TIP3    H222802   5.200   0.670   3.172  1.0717 -0.9315 -2.6621
  415TIP3   OH222803   1.979   5.129   1.382  0.1365  0.4962  0.0732
  415TIP3    H122804   1.998   5.211   1.428 -1.7441  1.3410 -0.5838
  415TIP3    H222805   2.015   5.141   1.295 -1.3619  1.2129 -0.4689
  416TIP3   OH222806   5.881   3.739   7.697  0.2817 -0.3616 -0.5359
  416TIP3    H122807   5.944   3.750   7.769 -0.3909 -0.3793  0.0734
  416TIP3    H222808   5.900   3.653   7.661 -0.6391 -1.2263  0.9161
  417TIP3   OH222809   0.738   2.328   8.714 -0.1400  0.1786 -0.0624
  417TIP3    H122810   0.820   2.375   8.729 -0.2310 -0.3262  2.4514
  417TIP3    H222811   0.761   2.236   8.717 -0.9630 -0.0419  2.6775
  418TIP3   OH222812   1.031   3.662   7.466 -0.2224 -0.0953 -0.4532
  418TIP3    H122813   1.009   3.580   7.423 -0.2700  0.0032 -0.6174
  418TIP3    H222814   1.126   3.671   7.454  0.1252 -1.1052  1.2712
  419TIP3   OH222815   2.874   2.879   8.520 -0.3832 -0.5694  0.0164
  419TIP3    H122816   2.783   2.863   8.547 -0.0862  0.2094  1.5690
  419TIP3    H222817   2.867   2.949   8.456 -0.7294  1.3999  2.0812
  420TIP3   OH222818   1.921   2.314   2.478 -0.2815 -0.4899 -0.4904
  420TIP3    H122819   1.961   2.233   2.445 -0.4860 -1.3639  1.2954
  420TIP3    H222820   1.995   2.364   2.513 -0.4535 -1.2777  1.1121
  421TIP3   OH222821   3.732   2.058   7.965  0.8662 -0.1623  0.5214
  421TIP3    H122822   3.824   2.086   7.966  0.8464  0.1366 -1.5292
  421TIP3    H222823   3.735   1.963   7.956  1.0224 -0.0659 -0.6569
  422TIP3   OH222824   4.497   4.449   2.279  0.4981 -0.1991 -0.2177
  422TIP3    H122825   4.528   4.393   2.351 -1.4321 -1.3937 -0.2583
  422TIP3    H222826   4.402   4.444   2.285  0.2223  3.3294 -0.0837
  423TIP3   OH222827   2.183   5.749   8.805  0.0604  0.4266  0.3921
  423TIP3    H122828   2.164   5.835   8.769  0.6205 -0.1643 -1.4856
  423TIP3    H222829   2.266   5.760   8.851  0.7462  0.6848 -0.8488
  424TIP3   OH222830   6.429   5.444   8.071  0.3201  0.1949  0.0734
  424TIP3    H122831   6.442   5.505   8.143  1.6469  1.7401 -1.3846
  424TIP3    H222832   6.447   5.495   7.992 -0.0167 -1.6934 -1.3150
  425TIP3   OH222833   4.016   6.019   8.326  0.6630 -0.0532  0.2968
  425TIP3    H122834   3.980   5.939   8.364 -0.1686  0.1222 -0.1054
  425TIP3    H222835   3.943   6.081   8.324  0.6088 -0.1097 -1.7395
  426TIP3   OH222836   6.502   0.064   0.411 -0.4215 -0.2184 -0.3737
  426TIP3    H122837   6.412   0.034   0.426  0.1250 -1.4647  0.5874
  426TIP3    H222838   6.556  -0.001   0.456  0.9234  1.0226 -0.1482
  427TIP3   OH222839   4.970   4.209   1.902 -0.8935  0.4123 -0.0007
  427TIP3    H122840   5.003   4.128   1.861 -1.8678  0.0959 -0.1936
  427TIP3    H222841   4.954   4.268   1.829  0.0655  0.8985  0.1584
  428TIP3   OH222842   1.573   4.415   7.588  0.0012 -0.5240  0.4555
  428TIP3    H122843   1.647   4.367   7.552 -0.1383 -0.8104  0.5467
  428TIP3    H222844   1.503   4.350   7.595 -0.3055 -0.2234  0.2283
  429TIP3   OH222845   2.353   5.657   8.240 -0.3661  0.0043  0.1740
  429TIP3    H122846   2.433   5.609   8.218 -1.3603 -1.5155 -0.2473
  429TIP3    H222847   2.350   5.729   8.177  1.1647  0.6869  0.8375
  430TIP3   OH222848   2.204   2.675   8.357 -0.4398 -0.1317  0.2660
  430TIP3    H122849   2.233   2.636   8.439 -1.3732 -0.6329  0.3753
  430TIP3    H222850   2.125   2.725   8.381 -2.8375 -3.0842 -0.8162
  431TIP3   OH222851   5.807   2.293   0.887 -0.8148  0.5911  0.1766
  431TIP3    H122852   5.889   2.266   0.927 -0.9875  1.8854  1.5355
  431TIP3    H222853   5.826   2.302   0.794  1.4338  3.5574  0.7784
  432TIP3   OH222854   6.048   0.717   8.991  0.1663 -0.8091  0.7702
  432TIP3    H122855   6.012   0.725   8.902 -0.0381 -1.4003  0.7939
  432TIP3    H222856   6.135   0.679   8.978  1.2640  1.6057  0.6325
  433TIP3   OH222857   2.937   6.731   0.399 -0.4116  0.1108 -0.6449
  433TIP3    H122858   2.949   6.652   0.346 -1.8438 -2.0018  1.9358
  433TIP3    H222859   2.841   6.739   0.406 -0.4146 -1.3438  3.6377
  434TIP3   OH222860   2.936   3.795   7.439  1.0074  0.3533  0.1386
  434TIP3    H122861   3.022   3.835   7.423  1.6713 -0.2495  1.8731
  434TIP3    H222862   2.944   3.707   7.404  1.6429 -0.1832  1.5339
  435TIP3   OH222863   2.674   0.357   0.306 -0.6560  0.2036  0.4627
  435TIP3    H122864   2.723   0.312   0.238 -2.5024  1.0293 -1.5290
  435TIP3    H222865   2.725   0.342   0.386  1.9155 -0.3210 -1.1458
  436TIP3   OH222866   2.812   0.813   7.043  0.3420 -0.1103  0.3032
  436TIP3    H122867   2.858   0.777   7.119  0.3509 -1.6883 -0.4114
  436TIP3    H222868   2.882   0.829   6.979  0.0419 -1.8078 -0.5088
  437TIP3   OH222869   3.775   5.370   0.717 -0.1092 -0.0787 -0.1049
  437TIP3    H122870   3.764   5.409   0.630 -1.2315  0.3839  0.2191
  437TIP3    H222871   3.720   5.424   0.774  0.7061 -0.3054  0.9166
  438TIP3   OH222872   5.133   1.577   8.823 -0.0301 -0.2263 -0.4224
  438TIP3    H122873   5.213   1.630   8.820  0.6389 -1.2382 -0.9276
  438TIP3    H222874   5.093   1.590   8.737 -1.1124  1.2948  0.2687
  439TIP3   OH222875   4.255   4.198   0.132 -0.2815  0.5956  0.0970
  439TIP3    H122876   4.190   4.223   0.066  1.4916  1.6694 -1.3413
  439TIP3    H222877   4.282   4.282   0.171  0.7313  0.2528  0.1600
  440TIP3   OH222878   5.051   3.030   7.332  0.6567  0.2738 -0.5492
  440TIP3    H122879   5.057   3.119   7.366  2.2101 -0.0162  0.0082
  440TIP3    H222880   5.095   3.033   7.247  0.6782  0.0426 -0.5478
  441TIP3   OH222881   6.642   6.546   0.845  0.4112  0.0284 -0.4028
  441TIP3    H122882   6.632   6.568   0.752 -2.9090  1.8075  0.2169
  441TIP3    H222883   6.636   6.451   0.848 -1.3725  0.0299 -1.9025
  442TIP3   OH222884   3.511   6.475   1.262 -0.2025  0.6606  0.0291
  442TIP3    H122885   3.575   6.414   1.226  1.8943  1.6828  1.7991
  442TIP3    H222886   3.509   6.547   1.199 -0.1526  0.2793 -0.4081
  443TIP3   OH222887   2.497   5.958   0.313  0.0873  0.3270  0.0621
  443TIP3    H122888   2.526   6.047   0.296  0.1409  0.1543 -0.8235
  443TIP3    H222889   2.420   5.947   0.257 -0.2781  0.0070  0.6121
  444TIP3   OH222890   1.804   4.716   8.747 -0.1542 -0.3770  0.5101
  444TIP3    H122891   1.772   4.737   8.660  1.3508  1.6295  0.3537
  444TIP3    H222892   1.752   4.641   8.775 -2.3980  0.4933 -1.0882
  445TIP3   OH222893   0.474   1.786   1.751 -0.4340  0.1841  0.1122
  445TIP3    H122894   0.454   1.755   1.663  0.9127 -2.3761  0.6236
  445TIP3    H222895   0.556   1.742   1.774  0.6017  2.7007  1.7478
  446TIP3   OH222896   0.949   0.715   2.686 -0.2002 -0.1384 -0.2759
  446TIP3    H122897   1.001   0.793   2.666 -0.4311 -0.2803 -1.4843
  446TIP3    H222898   0.973   0.652   2.618  0.3570 -1.3214  0.9699
  447TIP3   OH222899   5.963   4.035   1.628  0.1514  0.5840  0.1212
  447TIP3    H122900   6.009   4.033   1.544 -0.8093 -0.7237 -0.4121
  447TIP3    H222901   6.016   4.093   1.683  3.0971 -1.6532 -0.1013
  448TIP3   OH222902   0.874   6.662   7.972  0.4814  0.7812 -0.5881
  448TIP3    H122903   0.961   6.693   7.950  0.6230 -0.1789 -1.4438
  448TIP3    H222904   0.868   6.673   8.067  1.7695  0.2749 -0.4268
  449TIP3   OH222905   2.815   5.619   2.658  0.3248 -0.2756 -0.0442
  449TIP3    H122906   2.763   5.634   2.579 -0.7000 -2.8655  0.0603
  449TIP3    H222907   2.752   5.625   2.730  0.6355 -0.9511  0.2973
  450TIP3   OH222908   0.429   4.676   1.601 -0.9157  0.0166  0.1066
  450TIP3    H122909   0.505   4.689   1.545 -1.4940  0.8957 -0.4844
  450TIP3    H222910   0.375   4.753   1.587 -0.7609  0.6183  2.3914
  451TIP3   OH222911   5.779   3.666   1.459 -0.4832  0.0227  0.4639
  451TIP3    H122912   5.798   3.667   1.365  1.3514 -0.8649  0.7819
  451TIP3    H222913   5.693   3.708   1.467 -0.1968  1.0843 -1.4967
  452TIP3   OH222914   4.286   3.801   8.437  0.8070 -0.1199 -0.0923
  452TIP3    H122915   4.327   3.848   8.509  0.5374 -0.1191  0.0631
  452TIP3    H222916   4.238   3.729   8.478 -1.0440  1.0592 -0.0396
  453TIP3   OH222917   1.872   0.672   8.472 -0.1247  0.6621  0.1964
  453TIP3    H122918   1.905   0.582   8.475  0.3745  0.8457  0.4399
  453TIP3    H222919   1.932   0.717   8.412  2.5274  1.9324  3.4692
  454TIP3   OH222920   0.168   1.705   0.013 -0.4990  0.3598 -0.4407
  454TIP3    H122921   0.212   1.680  -0.068  0.9442  0.0889  0.4000
  454TIP3    H222922   0.079   1.670   0.004  0.0131 -0.7464 -1.3939
  455TIP3   OH222923   5.013   2.864   0.364 -0.1239  0.1238  0.2880
  455TIP3    H122924   4.948   2.934   0.370 -1.0589 -0.7101  0.1580
  455TIP3    H222925   5.082   2.889   0.426  0.8061  2.3997 -1.5086
  456TIP3   OH222926   3.723   0.638   7.856  0.0492  0.3827 -0.2048
  456TIP3    H122927   3.793   0.637   7.791 -0.2155  0.2377 -0.4909
  456TIP3    H222928   3.649   0.678   7.810 -0.5355 -0.8807 -0.4013
  457TIP3   OH222929   4.904   5.659   0.593 -0.5541  0.2017 -0.4567
  457TIP3    H122930   4.984   5.682   0.546 -0.3739  1.1950  0.3220
  457TIP3    H222931   4.933   5.634   0.681 -1.2016  1.9801  0.3038
  458TIP3   OH222932   0.520   0.066   0.607 -0.2105 -0.6645  0.4085
  458TIP3    H122933   0.588   0.054   0.674  0.0774 -0.9066  0.0735
  458TIP3    H222934   0.549   0.011   0.534 -0.1332  0.1886 -0.2095
  459TIP3   OH222935   4.461   1.540   1.794 -0.5739 -0.0424  0.2279
  459TIP3    H122936   4.371   1.557   1.767 -0.6193  1.1825  1.0577
  459TIP3    H222937   4.461   1.556   1.888  0.5999  0.4318  0.1688
  460TIP3   OH222938   3.349   6.517   0.639 -0.0390  0.6757  0.1504
  460TIP3    H122939   3.332   6.427   0.664 -0.7061  0.3172 -1.4777
  460TIP3    H222940   3.395   6.555   0.714  0.3549 -1.0385  0.8100
  461TIP3   OH222941   0.972   0.281   2.868 -0.4276  1.0063 -0.2804
  461TIP3    H122942   1.049   0.252   2.916 -1.8599 -2.1041  0.4016
  461TIP3    H222943   0.989   0.253   2.778 -0.8493 -0.0081 -0.0616
  462TIP3   OH222944   5.913   2.501   0.192  0.0336 -0.3313  0.1553
  462TIP3    H122945   5.851   2.559   0.149  1.4189  0.0090 -1.4896
  462TIP3    H222946   5.958   2.456   0.120  2.0111 -0.2026  1.2408
  463TIP3   OH222947   2.935   3.060   0.358 -0.3627  0.5935  0.0078
  463TIP3    H122948   2.851   3.095   0.328 -0.6759 -1.3152 -1.5191
  463TIP3    H222949   2.913   2.978   0.402  0.5306  1.1823  1.6369
  464TIP3   OH222950   1.350   3.579   7.911  0.7088 -0.3378 -0.0420
  464TIP3    H122951   1.433   3.610   7.876 -0.1163  0.0260 -1.8243
  464TIP3    H222952   1.291   3.655   7.904  0.1467 -0.6626  0.9428
  465TIP3   OH222953   5.119   0.853   2.281  0.0197  0.2180  0.3321
  465TIP3    H122954   5.159   0.940   2.283  1.3367 -0.3844  1.8228
  465TIP3    H222955   5.187   0.796   2.247  0.1152 -0.6481  1.8913
  466TIP3   OH222956   0.548   6.727   1.307  0.0439  0.1987  0.0254
  466TIP3    H122957   0.549   6.817   1.276  1.8092  0.7929  1.6061
  466TIP3    H222958   0.590   6.730   1.393 -0.4612 -2.0369  0.4304
  467TIP3   OH222959   5.863   0.486   2.636 -0.1614 -0.0808 -0.5305
  467TIP3    H122960   5.841   0.423   2.705  0.9754  1.6373  1.5475
  467TIP3    H222961   5.781   0.534   2.622 -0.6853 -1.1314 -1.1893
  468TIP3   OH222962   0.580   3.036   8.292 -0.1558 -0.2490 -0.2400
  468TIP3    H122963   0.590   3.043   8.197  1.3394 -1.2330 -0.1872
  468TIP3    H222964   0.667   3.012   8.323 -0.1655  1.7923  1.5813
  469TIP3   OH222965   1.571   0.539   1.524 -0.6925 -0.3838 -0.1234
  469TIP3    H122966   1.640   0.472   1.528 -0.6202 -0.3006  0.0309
  469TIP3    H222967   1.603   0.609   1.580 -1.4493 -0.8524  0.9375
  470TIP3   OH222968   5.060   5.170   8.440  0.0816 -0.4416 -0.0781
  470TIP3    H122969   5.115   5.157   8.362 -0.0878  0.2366 -0.3154
  470TIP3    H222970   5.055   5.083   8.480 -0.7135 -1.0539 -1.4157
  471TIP3   OH222971   0.324   4.477   8.533  0.0018 -0.4395 -0.2285
  471TIP3    H122972   0.386   4.534   8.580 -2.1451  2.0040 -0.1591
  471TIP3    H222973   0.268   4.441   8.601 -1.2432  0.7380 -0.5880
  472TIP3   OH222974   6.589   1.509   1.620 -0.2350 -0.9231  0.9664
  472TIP3    H122975   6.566   1.538   1.708 -2.4023  2.4746 -0.5444
  472TIP3    H222976   6.658   1.569   1.591 -0.4455 -1.1542 -0.0815
  473TIP3   OH222977   1.772   0.404   1.262  0.2249  0.0200 -0.0500
  473TIP3    H122978   1.846   0.397   1.202 -0.5436  1.3390 -1.2137
  473TIP3    H222979   1.730   0.487   1.239 -2.9818 -1.6773 -1.0447
  474TIP3   OH222980   6.547   6.139   7.924  0.0084 -0.1871  1.0405
  474TIP3    H122981   6.598   6.083   7.982 -0.4707 -1.9762 -0.2010
  474TIP3    H222982   6.605   6.214   7.907  0.7630 -0.4033  2.5420
  475TIP3   OH222983   1.467   3.874   1.712 -0.6400 -0.7026  0.9374
  475TIP3    H122984   1.400   3.829   1.763  0.1752 -0.4145  2.3435
  475TIP3    H222985   1.515   3.805   1.668 -1.2834 -0.9716  0.6425
  476TIP3   OH222986   5.744   4.668   7.979  0.0891  0.3723 -0.6662
  476TIP3    H122987   5.763   4.581   8.012  1.0606  0.9125  0.2196
  476TIP3    H222988   5.669   4.698   8.031  1.5698  1.1949  1.0950
  477TIP3   OH222989   1.204   1.230   0.058 -0.2095  0.6780  0.1786
  477TIP3    H122990   1.190   1.199  -0.032  1.6879 -0.5309  0.2506
  477TIP3    H222991   1.116   1.233   0.096 -0.7544 -2.8128 -0.4591
  478TIP3   OH222992   5.865   2.556   7.539 -0.1316  0.5321 -0.0832
  478TIP3    H122993   5.829   2.530   7.454  0.8498 -1.0093 -0.0567
  478TIP3    H222994   5.954   2.521   7.539 -0.3190 -0.0416  1.8270
  479TIP3   OH222995   6.368   1.970   8.638 -0.1709  0.0251 -0.1784
  479TIP3    H122996   6.353   2.063   8.621 -0.4915  0.0846  0.4077
  479TIP3    H222997   6.287   1.939   8.678  0.4853 -0.1230  1.1197
  480TIP3   OH222998   3.324   4.072   8.829 -0.7668 -0.8478 -0.0456
  480TIP3    H122999   3.315   4.075   8.734 -0.4135  2.1889 -0.0918
  480TIP3    H223000   3.260   4.137   8.860 -1.9109 -2.7918  1.9447
  481TIP3   OH223001   3.058   3.197   9.105 -0.0139 -0.4883  0.2239
  481TIP3    H123002   3.022   3.109   9.092  0.0854 -0.5631  0.4589
  481TIP3    H223003   3.087   3.198   9.196  1.4673 -0.7552 -0.2221
  482TIP3   OH223004   2.735   4.936   0.726 -0.1815  0.1002 -0.6440
  482TIP3    H123005   2.718   5.030   0.733 -3.2398 -0.0637 -3.1588
  482TIP3    H223006   2.658   4.895   0.766  0.9113 -1.3623  0.0383
  483TIP3   OH223007   4.328   3.129   8.865 -0.5745  0.4090  0.6929
  483TIP3    H123008   4.324   3.129   8.769 -1.0811 -0.1052  0.7102
  483TIP3    H223009   4.417   3.099   8.886 -0.6873 -0.1443  0.3889
  484TIP3   OH223010   4.993   4.596   8.282  0.5525  0.1727 -0.1339
  484TIP3    H123011   4.897   4.598   8.285  0.4904  3.4241 -0.2574
  484TIP3    H223012   5.020   4.584   8.373  0.0709 -1.4779 -0.1900
  485TIP3   OH223013   3.192   3.385   7.853  0.2908  0.1230 -0.1784
  485TIP3    H123014   3.279   3.423   7.851  0.8234 -1.0751 -1.2059
  485TIP3    H223015   3.158   3.406   7.940  1.1736  1.5220 -0.1551
  486TIP3   OH223016   4.084   5.402   2.123 -0.6310  0.9840  0.0298
  486TIP3    H123017   4.117   5.478   2.076  0.9860 -0.2655 -0.9982
  486TIP3    H223018   4.115   5.412   2.212  0.6640  0.9376 -0.4008
  487TIP3   OH223019   4.527   4.873   1.720  0.3901  0.1980 -0.3302
  487TIP3    H123020   4.463   4.854   1.789 -0.0305 -0.2491 -0.8454
  487TIP3    H223021   4.575   4.791   1.708  0.5085  0.2960 -0.5295
  488TIP3   OH223022   5.643   4.734   0.230  0.2605 -0.0233  0.2090
  488TIP3    H123023   5.666   4.689   0.148  0.7758  0.2129  0.2202
  488TIP3    H223024   5.633   4.826   0.205  1.5977  0.2543  0.6113
  489TIP3   OH223025   3.550   5.183   7.567  0.2149  0.2649 -0.1338
  489TIP3    H123026   3.638   5.211   7.592  0.9586 -1.5578 -0.5771
  489TIP3    H223027   3.541   5.095   7.605 -1.0816  0.0780 -0.8154
  490TIP3   OH223028   2.639   0.711   1.118 -0.1573  0.8332  0.3139
  490TIP3    H123029   2.652   0.757   1.036 -0.6412 -1.5170 -1.1760
  490TIP3    H223030   2.672   0.771   1.185  2.0580  2.0655 -1.7391
  491TIP3   OH223031   5.426   2.473   0.648  0.1901  0.6262 -0.3128
  491TIP3    H123032   5.506   2.511   0.681 -0.4100  0.2766  1.6869
  491TIP3    H223033   5.455   2.407   0.585  1.5063  0.1572  0.7388
  492TIP3   OH223034   0.065   1.347   1.411  0.4443  0.1185 -0.2106
  492TIP3    H123035   0.084   1.347   1.317 -1.0856  1.4385 -0.5688
  492TIP3    H223036   0.089   1.259   1.440 -1.3904 -1.2481 -2.3770
  493TIP3   OH223037   4.780   2.287   8.776 -0.7583 -0.1774  0.4101
  493TIP3    H123038   4.825   2.350   8.720  0.6108 -2.0677 -0.7557
  493TIP3    H223039   4.732   2.340   8.839 -0.7035  2.0160 -1.2871
  494TIP3   OH223040   4.275   2.405   2.540  0.7395 -0.6153  0.2425
  494TIP3    H123041   4.268   2.331   2.479 -0.0936 -0.9038  0.6751
  494TIP3    H223042   4.287   2.481   2.484  1.5378 -1.0600 -0.2158
  495TIP3   OH223043   2.987   1.177   0.687 -0.2705 -0.2810  0.0897
  495TIP3    H123044   2.908   1.231   0.676 -0.7973 -1.1686 -0.6963
  495TIP3    H223045   3.053   1.222   0.635 -0.0545  0.8152  1.2606
  496TIP3   OH223046   5.251   1.523   7.830  0.1612  0.1375  0.3430
  496TIP3    H123047   5.327   1.468   7.850  0.3323 -0.0675 -0.7733
  496TIP3    H223048   5.237   1.510   7.736 -1.6278 -0.3053  0.6313
  497TIP3   OH223049   2.988   4.773   0.970  0.1515 -0.9186  0.6415
  497TIP3    H123050   3.043   4.799   1.044 -1.7163  0.9183  1.4861
  497TIP3    H223051   3.023   4.821   0.896  0.9728 -1.4363  0.6777
  498TIP3   OH223052   6.000   1.869   8.620 -0.2615  0.3890 -0.6284
  498TIP3    H123053   6.054   1.814   8.676  1.4264  1.2142 -1.3695
  498TIP3    H223054   5.910   1.841   8.637  0.4578 -1.8056 -0.1911
  499TIP3   OH223055   3.827   1.751   0.660 -0.1416  0.0829 -0.0131
  499TIP3    H123056   3.889   1.678   0.664 -0.0439  0.1500 -0.3048
  499TIP3    H223057   3.748   1.717   0.703 -0.1934 -0.2928 -0.4021
  500TIP3   OH223058   0.100   2.219   8.962 -0.1482 -0.2453 -0.3640
  500TIP3    H123059   0.026   2.175   8.921 -0.4477 -1.6851  1.5644
  500TIP3    H223060   0.169   2.220   8.895 -1.1182 -1.0369 -1.3989
  501TIP3   OH223061   0.093   5.805   7.606  0.6835  0.6516 -0.2563
  501TIP3    H123062   0.118   5.723   7.650  0.2112  0.6436  0.0001
  501TIP3    H223063   0.003   5.821   7.634  0.6318  1.0420 -0.6378
  502TIP3   OH223064   3.002   5.836   0.076  0.0231 -0.0039 -0.4032
  502TIP3    H123065   3.055   5.889   0.017 -0.1909  0.0398 -0.5574
  502TIP3    H223066   2.993   5.890   0.155 -2.3541  1.3615 -1.4818
  503TIP3   OH223067   3.175   4.738   0.230  0.1263  0.7894  0.4373
  503TIP3    H123068   3.134   4.825   0.226 -0.6284  0.5572  2.1194
  503TIP3    H223069   3.254   4.746   0.177 -0.2008  2.3422  0.1303
  504TIP3   OH223070   5.347   0.298   7.627  0.1758 -0.1462 -0.0188
  504TIP3    H123071   5.290   0.371   7.606 -3.7738 -2.1071  2.6435
  504TIP3    H223072   5.289   0.231   7.664  3.8939 -3.5009  0.5337
  505TIP3   OH223073   0.009   0.317   8.612  0.3894 -0.1882 -0.3046
  505TIP3    H123074  -0.048   0.359   8.547 -0.6712  0.3193  0.9156
  505TIP3    H223075  -0.048   0.255   8.657  0.5611  0.8922  1.4741
  506TIP3   OH223076   4.942   5.454   0.229 -0.2583 -0.2977 -0.1780
  506TIP3    H123077   4.982   5.392   0.168  0.6217  0.2020 -0.1133
  506TIP3    H223078   4.854   5.419   0.242 -0.3105 -0.6732 -1.3620
  507TIP3   OH223079   2.012   3.669   0.881 -0.2975  0.0164  0.1483
  507TIP3    H123080   2.075   3.612   0.837  0.1374  0.2625  0.4406
  507TIP3    H223081   2.036   3.758   0.853 -2.2070 -0.0376 -1.8935
  508TIP3   OH223082   6.696   2.598   1.361 -0.5036  0.3020 -0.4962
  508TIP3    H123083   6.726   2.687   1.343  1.2779 -0.1615 -0.0549
  508TIP3    H223084   6.710   2.551   1.280 -3.2432  0.7924 -1.3560
  509TIP3   OH223085   2.698   1.382   2.299 -0.3097  0.2144 -0.0103
  509TIP3    H123086   2.755   1.459   2.303  1.8040 -1.2010 -1.1397
  509TIP3    H223087   2.731   1.325   2.369 -1.7915  0.2300  0.7462
  510TIP3   OH223088   2.035   3.844   1.480  0.0990  0.0012  0.0003
  510TIP3    H123089   2.031   3.819   1.388  1.0260  1.5117 -0.4912
  510TIP3    H223090   1.958   3.901   1.493  0.6704  0.8501 -0.2177
  511TIP3   OH223091   2.732   3.807   0.018  0.3810  0.3295  0.2733
  511TIP3    H123092   2.825   3.815  -0.007  0.1750  2.1688 -0.0837
  511TIP3    H223093   2.733   3.751   0.096  1.7223 -0.1848 -0.0763
  512TIP3   OH223094   4.344   0.694   2.067 -0.7238 -0.1225  0.1317
  512TIP3    H123095   4.344   0.599   2.063  0.9802 -0.1040 -2.1546
  512TIP3    H223096   4.419   0.716   2.122 -0.1575 -0.1032 -0.6404
  513TIP3   OH223097   4.592   2.462   0.383  0.0077 -0.2647  0.5600
  513TIP3    H123098   4.647   2.530   0.343 -0.3951  0.4505  1.2039
  513TIP3    H223099   4.558   2.502   0.462 -0.3983 -1.1611  0.8520
  514TIP3   OH223100   3.348   6.216   8.965  0.2298  0.4910 -0.9348
  514TIP3    H123101   3.262   6.207   9.007  0.9936  2.4279  1.2426
  514TIP3    H223102   3.342   6.160   8.888 -1.5834 -2.7103  1.2652
  515TIP3   OH223103   2.493   3.074   8.014 -0.4438  0.4577 -0.1409
  515TIP3    H123104   2.534   3.010   7.956  0.6607 -1.2420  2.3392
  515TIP3    H223105   2.416   3.028   8.048 -0.6298  1.1216  0.3404
  516TIP3   OH223106   1.485   2.716   2.950  0.5184 -0.5221 -0.4464
  516TIP3    H123107   1.527   2.636   2.981  0.4024 -0.0785  0.9386
  516TIP3    H223108   1.391   2.696   2.953  0.4667 -0.1954  0.3569
  517TIP3   OH223109   6.109   2.145   2.178 -0.1113  0.4240 -0.2099
  517TIP3    H123110   6.050   2.168   2.250 -1.3519 -0.4141 -0.9224
  517TIP3    H223111   6.053   2.144   2.101  0.9776  0.2260 -1.0151
  518TIP3   OH223112   1.808   0.226   3.015  0.2681 -0.1354 -0.0657
  518TIP3    H123113   1.842   0.252   2.929  0.9671  0.5541  0.4081
  518TIP3    H223114   1.865   0.270   3.078 -0.4246 -0.3894  0.7583
  519TIP3   OH223115   2.831   6.566   2.332  0.2853  0.1231  0.5749
  519TIP3    H123116   2.870   6.560   2.245  0.6456 -0.0321  0.7436
  519TIP3    H223117   2.855   6.484   2.375  0.8344  0.5539  1.1143
  520TIP3   OH223118   3.970   5.396   8.500 -0.2540 -0.4420  0.3633
  520TIP3    H123119   3.917   5.461   8.454  0.3178 -0.4919 -0.3910
  520TIP3    H223120   3.910   5.324   8.518 -1.0714  0.5492  1.8128
  521TIP3   OH223121   3.956   3.061   8.154 -0.9108 -0.0202  0.0841
  521TIP3    H123122   4.005   3.136   8.187  0.3233 -0.2332 -1.1728
  521TIP3    H223123   3.868   3.094   8.138 -0.1288  1.4442 -1.4268
  522TIP3   OH223124   6.523   2.644   0.717  0.4810 -0.0583  0.2345
  522TIP3    H123125   6.605   2.687   0.691  0.4521  0.3351  0.7697
  522TIP3    H223126   6.551   2.557   0.747  1.1733  1.0924  3.3570
  523TIP3   OH223127   3.303   1.426   0.080 -0.1036  0.0986  0.6618
  523TIP3    H123128   3.287   1.350   0.024  1.1937  1.1925 -1.2846
  523TIP3    H223129   3.387   1.408   0.121 -0.7837 -0.4371  1.8751
  524TIP3   OH223130   3.418   0.609   1.612  0.3943 -0.1666 -0.2809
  524TIP3    H123131   3.356   0.587   1.681  0.1762  1.7647  0.2006
  524TIP3    H223132   3.363   0.637   1.539  0.6614 -0.8199 -0.7411
  525TIP3   OH223133   3.909   1.668   8.338 -0.2596  0.1312 -1.0109
  525TIP3    H123134   3.975   1.684   8.405 -0.6559 -0.6563 -0.4219
  525TIP3    H223135   3.926   1.736   8.272  1.3781 -0.2971 -1.0740
  526TIP3   OH223136   4.137   5.721   2.330 -0.2076  0.1424  0.1854
  526TIP3    H123137   4.091   5.706   2.248  0.0747 -2.3079  0.3885
  526TIP3    H223138   4.103   5.654   2.389  0.3577  1.1859  1.7530
  527TIP3   OH223139   4.957   1.692   1.543 -0.4723  0.4649  0.5775
  527TIP3    H123140   5.026   1.679   1.608  0.0774  3.8721  0.8691
  527TIP3    H223141   4.877   1.705   1.596 -0.6988 -0.0999  0.3843
  528TIP3   OH223142   4.207   0.016   8.026  0.3897  0.5451 -0.0486
  528TIP3    H123143   4.201  -0.070   8.069 -1.7324  1.0218  0.7298
  528TIP3    H223144   4.129   0.020   7.970  0.4311  1.9929 -0.0283
  529TIP3   OH223145   4.597   3.852   0.561  0.0834 -0.5508  0.5493
  529TIP3    H123146   4.504   3.869   0.577  0.1950 -0.1689  0.7791
  529TIP3    H223147   4.611   3.764   0.596 -0.5085 -1.1803 -0.7150
  530TIP3   OH223148   2.992   3.881   9.007  0.1171 -0.4775  0.3201
  530TIP3    H123149   2.986   3.929   8.925 -1.9655 -2.0506 -0.5729
  530TIP3    H223150   3.027   3.944   9.071  0.2831  1.2520 -1.4005
  531TIP3   OH223151   6.111   5.830   2.763  0.1987  0.1723  0.6894
  531TIP3    H123152   6.021   5.815   2.793 -0.6141 -0.2732 -1.7583
  531TIP3    H223153   6.165   5.818   2.842 -1.9920  2.6668  2.7640
  532TIP3   OH223154   5.374   0.859   2.200  0.3596 -0.3311  0.5559
  532TIP3    H123155   5.439   0.822   2.259 -0.3129 -1.3388  0.6958
  532TIP3    H223156   5.379   0.953   2.214  1.2961 -0.4459  1.0659
  533TIP3   OH223157   6.195   1.533   1.309 -0.1406 -0.1270  0.5759
  533TIP3    H123158   6.256   1.602   1.337 -1.6083  0.9895  1.1749
  533TIP3    H223159   6.110   1.563   1.340 -0.8132 -2.3454  1.0676
  534TIP3   OH223160   1.512   2.071   0.913  0.6772  0.4284 -0.2488
  534TIP3    H123161   1.571   2.128   0.864  0.4474  0.1920 -0.8099
  534TIP3    H223162   1.462   2.024   0.846  0.1102  0.3525  0.2174
  535TIP3   OH223163   2.371   0.642   1.128 -0.4358  0.0509  0.0717
  535TIP3    H123164   2.353   0.617   1.038 -0.4690 -0.9429  0.3434
  535TIP3    H223165   2.465   0.633   1.137 -0.4835 -0.2873  0.2559
  536TIP3   OH223166   3.257   5.657   8.892 -0.0690 -0.6892  0.2580
  536TIP3    H123167   3.298   5.739   8.865 -0.6550 -0.6950 -0.6949
  536TIP3    H223168   3.246   5.666   8.986  0.8601 -0.1267  0.3297
  537TIP3   OH223169   3.312   5.077   1.481  0.5409  0.4935  0.0759
  537TIP3    H123170   3.268   5.115   1.405  2.3274  3.5794  0.4099
  537TIP3    H223171   3.398   5.049   1.448  1.7445  2.7942  0.9959
  538TIP3   OH223172   6.226   4.771   1.301  0.0615  0.7555  0.2587
  538TIP3    H123173   6.168   4.794   1.228  0.4311  1.5799  0.2094
  538TIP3    H223174   6.236   4.853   1.350  0.6944  0.4739  0.6133
  539TIP3   OH223175   2.174   0.226   1.405 -0.0084  0.0038  0.5111
  539TIP3    H123176   2.221   0.303   1.371 -0.3250 -0.2903 -0.6366
  539TIP3    H223177   2.125   0.193   1.330  0.9052 -1.9221  0.7115
  540TIP3   OH223178   4.311   1.449   0.695 -0.3324  0.2860 -0.6353
  540TIP3    H123179   4.377   1.510   0.662  0.8019 -0.5389  0.0275
  540TIP3    H223180   4.351   1.410   0.773 -1.4322 -0.5560 -0.4650
  541TIP3   OH223181   2.467   1.613   0.516 -0.4847 -0.5235 -0.3122
  541TIP3    H123182   2.558   1.622   0.543 -0.0286 -0.5466 -1.7752
  541TIP3    H223183   2.419   1.600   0.598  0.9574 -1.7253  0.3871
  542TIP3   OH223184   1.469   4.831   7.469  0.5552  0.2586  0.6148
  542TIP3    H123185   1.534   4.835   7.539  1.7131  1.4027 -0.4716
  542TIP3    H223186   1.481   4.745   7.429  0.3209 -0.1440  1.3899
  543TIP3   OH223187   4.078   0.871   8.692 -0.4906  0.2756  0.3246
  543TIP3    H123188   4.011   0.918   8.742 -1.9258 -0.4407 -0.8297
  543TIP3    H223189   4.114   0.937   8.632 -1.2945  0.3248 -0.1232
  544TIP3   OH223190   3.974   5.195   7.631 -0.1125  0.3855  0.3353
  544TIP3    H123191   3.980   5.242   7.548  0.2152  1.7840  1.1176
  544TIP3    H223192   3.889   5.220   7.668  0.0577  0.3575  0.7577
  545TIP3   OH223193   4.817   3.607   6.897 -0.7209 -0.1420 -0.0505
  545TIP3    H123194   4.740   3.620   6.952 -1.3277  0.5623 -1.0223
  545TIP3    H223195   4.786   3.550   6.826  0.6271 -3.0239  1.4757
  546TIP3   OH223196   5.590   5.349   0.165 -0.2053  0.6026 -0.3446
  546TIP3    H123197   5.539   5.330   0.244 -0.9712  1.8470 -0.5165
  546TIP3    H223198   5.646   5.422   0.190 -1.5459  2.0266 -1.3748
  547TIP3   OH223199   2.199   2.473   7.398  0.2545  0.1373 -0.0094
  547TIP3    H123200   2.133   2.542   7.390 -1.8564 -1.8611 -0.9373
  547TIP3    H223201   2.157   2.406   7.452  0.8812 -1.8369 -1.8138
  548TIP3   OH223202   4.816   0.017   1.079  0.4825 -0.0998 -0.2160
  548TIP3    H123203   4.887  -0.033   1.120 -0.2817 -0.6509  0.4671
  548TIP3    H223204   4.798  -0.030   0.997  0.4986 -0.3111 -0.0984
  549TIP3   OH223205   4.175   2.613   2.767  0.5297  0.1182  0.9791
  549TIP3    H123206   4.205   2.682   2.708 -0.2752 -2.3266 -2.6683
  549TIP3    H223207   4.191   2.532   2.718 -1.1237 -2.1093  3.8222
  550TIP3   OH223208   4.230   0.826   0.541 -0.2396 -0.0476  0.3175
  550TIP3    H123209   4.229   0.765   0.468  1.9138  0.3557 -0.0950
  550TIP3    H223210   4.142   0.865   0.540 -0.7169 -1.0749 -1.1435
  551TIP3   OH223211   1.167   3.934   0.334 -0.2071  0.1582  0.2530
  551TIP3    H123212   1.259   3.962   0.336  0.4734 -1.8625 -0.1282
  551TIP3    H223213   1.172   3.839   0.323 -2.3613  0.0903 -0.5029
  552TIP3   OH223214   3.476   0.515   8.707 -0.6951  0.3193 -0.1632
  552TIP3    H123215   3.469   0.437   8.762 -1.2666  0.6919  0.2964
  552TIP3    H223216   3.571   0.531   8.701 -0.5091 -0.8825 -0.9507
  553TIP3   OH223217   2.741   5.863   2.078 -0.4103  0.6405  0.2205
  553TIP3    H123218   2.729   5.794   2.143  0.4742  1.9877  1.9213
  553TIP3    H223219   2.669   5.924   2.094 -0.2492  0.9300 -0.1253
  554TIP3   OH223220   3.181   3.628   8.581 -0.1204  0.0726 -0.2579
  554TIP3    H123221   3.182   3.675   8.665  0.9399 -2.6705  1.3821
  554TIP3    H223222   3.139   3.545   8.600 -0.5290 -0.3467 -2.6811
  555TIP3   OH223223   0.123   2.909   2.751  0.3729 -0.1360 -0.0899
  555TIP3    H123224   0.160   2.997   2.758 -0.2105  0.1211 -0.1630
  555TIP3    H223225   0.187   2.861   2.700  1.8511 -0.4297  1.9265
  556TIP3   OH223226   5.587   3.395   7.236 -0.4540  0.2219 -0.2362
  556TIP3    H123227   5.546   3.427   7.155 -0.1325 -0.1451 -0.5462
  556TIP3    H223228   5.544   3.311   7.252 -0.6237  0.3627  0.0619
  557TIP3   OH223229   6.597   0.797   1.379  0.4603  0.1514  0.0778
  557TIP3    H123230   6.572   0.880   1.420 -0.9301  0.4653 -1.2989
  557TIP3    H223231   6.692   0.791   1.392  0.5196  1.7522  0.5606
  558TIP3   OH223232   0.222   4.145   9.066  0.2121  0.0835  0.7763
  558TIP3    H123233   0.169   4.212   9.108 -0.0509 -0.2289  0.9444
  558TIP3    H223234   0.312   4.178   9.073  0.0091  0.7955  0.1511
  559TIP3   OH223235   5.546   5.911   1.979  0.0487 -0.0825  0.3322
  559TIP3    H123236   5.494   5.857   2.038  0.1933 -2.3014 -1.4188
  559TIP3    H223237   5.637   5.886   1.996  0.5015  2.4292  2.0872
  560TIP3   OH223238   4.930   6.256   0.421  0.0917  0.0523  0.2145
  560TIP3    H123239   5.010   6.306   0.439  1.5826 -1.1437 -2.5012
  560TIP3    H223240   4.864   6.322   0.404  0.7596  1.0817  1.4497
  561TIP3   OH223241   0.491   2.686   7.820  0.0675 -0.2907 -0.1139
  561TIP3    H123242   0.533   2.634   7.751  0.2832 -1.3892  0.8223
  561TIP3    H223243   0.402   2.652   7.825  0.2271 -0.6288  0.5436
  562TIP3   OH223244   4.040   0.590   1.900  0.0336 -1.1524  0.4314
  562TIP3    H123245   3.977   0.661   1.906  1.0596 -0.2433  0.8767
  562TIP3    H223246   4.007   0.533   1.830  1.1383  1.8139 -2.7953
  563TIP3   OH223247   5.054   4.632   1.949  0.1198  0.0434  0.6331
  563TIP3    H123248   5.066   4.709   1.893 -1.4052 -2.6090 -3.8459
  563TIP3    H223249   5.133   4.580   1.935  0.1536 -0.2744  1.8453
  564TIP3   OH223250   3.007   0.504   1.333 -0.0122 -0.0872 -0.7672
  564TIP3    H123251   3.081   0.563   1.318 -1.9040  2.4853 -0.5258
  564TIP3    H223252   2.976   0.525   1.421 -2.6759  0.9048 -1.8385
  565TIP3   OH223253   1.038   4.734   7.779 -0.4968 -0.3472 -0.1552
  565TIP3    H123254   0.983   4.811   7.761  0.2027  0.2766  0.3027
  565TIP3    H223255   0.984   4.680   7.837 -0.4810  0.4778  0.6631
  566TIP3   OH223256   0.735   6.217   9.102  0.2265  0.7356  0.1170
  566TIP3    H123257   0.781   6.162   9.164  1.6617  0.6744 -0.9616
  566TIP3    H223258   0.651   6.172   9.087  0.7901 -0.4024  0.3055
  567TIP3   OH223259   0.703   5.849   7.924 -0.4814  0.1141 -0.0806
  567TIP3    H123260   0.779   5.825   7.977  0.7019 -0.8163 -2.0608
  567TIP3    H223261   0.667   5.765   7.896 -1.4326  0.5747 -0.2568
  568TIP3   OH223262   0.915   1.151   8.026  0.4091 -0.0277  0.3655
  568TIP3    H123263   0.867   1.231   8.005  0.3204 -0.2374 -0.2539
  568TIP3    H223264   0.862   1.081   7.987  0.8081 -0.3336  0.3689
  569TIP3   OH223265   1.756   0.261   1.488  0.3200  0.3272 -0.2899
  569TIP3    H123266   1.833   0.263   1.545  0.1873  1.3870 -0.1245
  569TIP3    H223267   1.785   0.302   1.407  0.3048 -0.5210 -0.7352
  570TIP3   OH223268   0.943   2.431   1.252 -0.0653 -0.2324  0.1093
  570TIP3    H123269   0.958   2.337   1.264 -0.2001 -0.3537 -0.6073
  570TIP3    H223270   1.014   2.473   1.301 -1.7479 -0.5977  3.0894
  571TIP3   OH223271   5.089   2.849   7.545 -0.4378  0.0097  0.0913
  571TIP3    H123272   5.153   2.783   7.518 -1.3043 -0.5620 -0.6132
  571TIP3    H223273   5.084   2.909   7.471  0.9004  1.3353  1.0200
  572TIP3   OH223274   3.266   3.870   0.302  0.2750  0.3670 -0.2008
  572TIP3    H123275   3.190   3.839   0.351 -0.5960 -1.0543 -2.2880
  572TIP3    H223276   3.314   3.789   0.281 -0.0683  0.7534 -2.6899
  573TIP3   OH223277   4.345   3.691   7.640  0.5818  0.0579 -0.0817
  573TIP3    H123278   4.322   3.780   7.611 -1.5937 -0.6669 -0.7417
  573TIP3    H223279   4.267   3.639   7.623  1.5667 -1.8651  0.9570
  574TIP3   OH223280   3.712   5.090   1.923 -0.4266  0.1128  0.0436
  574TIP3    H123281   3.616   5.088   1.929 -0.3409  0.1409  2.9044
  574TIP3    H223282   3.737   4.997   1.922 -0.4551  0.0937 -1.4544
  575TIP3   OH223283   6.041   3.447   8.595  0.3421 -0.2818  0.6540
  575TIP3    H123284   5.984   3.489   8.659 -0.1366 -0.6574  0.4771
  575TIP3    H223285   6.125   3.439   8.640 -0.2445 -1.4484  1.6203
  576TIP3   OH223286   2.185   5.429   1.793 -0.7653  0.4327 -0.2192
  576TIP3    H123287   2.178   5.489   1.867 -2.0912 -1.5534  1.3880
  576TIP3    H223288   2.279   5.423   1.775 -0.3882  0.7736  1.4948
  577TIP3   OH223289   6.407   3.585   0.388 -0.0322 -0.2941 -0.3633
  577TIP3    H123290   6.318   3.551   0.386 -0.3929  0.6318 -0.8516
  577TIP3    H223291   6.448   3.541   0.463 -1.3465  0.3650  0.7959
  578TIP3   OH223292   3.675   5.847   1.418  0.1949 -0.1951  0.4412
  578TIP3    H123293   3.692   5.843   1.512 -1.0549 -0.3839  0.6806
  578TIP3    H223294   3.591   5.802   1.407  0.5529 -0.6014 -0.8324
  579TIP3   OH223295   5.378   4.077   3.117  0.2892  0.3118 -0.1299
  579TIP3    H123296   5.395   3.993   3.074  0.4908 -0.4164  1.2839
  579TIP3    H223297   5.427   4.141   3.065  1.9508 -0.7705 -0.0021
  580TIP3   OH223298   3.021   0.770   1.798 -0.4490 -0.6984 -0.3442
  580TIP3    H123299   3.093   0.748   1.856  0.5072  0.3649 -1.0638
  580TIP3    H223300   3.040   0.722   1.717  1.4252  2.0951 -1.7728
  581TIP3   OH223301   1.073   1.493   1.037 -0.5121  0.1131 -0.4964
  581TIP3    H123302   1.123   1.571   1.061 -0.8045  0.1299  0.0868
  581TIP3    H223303   1.112   1.423   1.089  0.2695 -0.2989 -1.6114
  582TIP3   OH223304   4.633   0.166   2.014 -0.4812 -0.1264  0.4720
  582TIP3    H123305   4.586   0.148   1.933 -1.2841  1.1774  0.6202
  582TIP3    H223306   4.668   0.081   2.041  0.3931 -0.4685 -1.5765
  583TIP3   OH223307   4.973   6.193   9.079  0.4455  0.5649  0.2257
  583TIP3    H123308   4.933   6.109   9.059 -1.4751  1.5252 -0.2014
  583TIP3    H223309   4.976   6.196   9.175 -1.4177  0.8118  0.3228
  584TIP3   OH223310   5.167   0.597   1.894 -0.4680 -0.0461  0.1986
  584TIP3    H123311   5.198   0.510   1.919 -1.1092 -0.0468  1.0251
  584TIP3    H223312   5.189   0.604   1.801 -0.9645 -1.3325 -0.0391
  585TIP3   OH223313   1.030   6.038   1.473 -0.1355 -0.0334 -0.2126
  585TIP3    H123314   1.086   6.021   1.398 -0.3555  0.0596 -0.3985
  585TIP3    H223315   0.960   5.973   1.467 -0.5305  0.4108 -0.4759
  586TIP3   OH223316   3.048   3.982   1.373 -0.3386 -0.4510  0.2219
  586TIP3    H123317   3.060   3.941   1.287  0.5825 -1.5751  0.8403
  586TIP3    H223318   2.980   4.048   1.360 -0.5268 -0.9045 -1.2629
  587TIP3   OH223319   1.091   1.846   7.945  0.5206  0.0970 -0.1825
  587TIP3    H123320   1.109   1.863   8.038 -0.2748  0.5500 -0.1080
  587TIP3    H223321   0.997   1.835   7.940  0.6362 -0.6651 -0.8319
  588TIP3   OH223322   2.242   3.763   2.076  0.2333  0.5224 -0.0137
  588TIP3    H123323   2.333   3.790   2.075  0.9877 -1.7232  1.4136
  588TIP3    H223324   2.226   3.730   1.987  1.4010 -0.7403  0.2105
  589TIP3   OH223325   3.690   5.911   8.417  0.0370  0.1984  0.2701
  589TIP3    H123326   3.599   5.912   8.386 -0.1347 -1.5408  0.5949
  589TIP3    H223327   3.697   5.989   8.473 -2.0978 -1.0202  2.4574
  590TIP3   OH223328   4.882   3.619   7.261 -0.1392  0.2971 -0.2240
  590TIP3    H123329   4.842   3.561   7.326  1.2772 -0.2704  0.1623
  590TIP3    H223330   4.809   3.675   7.231 -1.4293 -1.3218 -0.2513
  591TIP3   OH223331   0.780   0.359   0.606  0.0061 -0.0932  0.0284
  591TIP3    H123332   0.850   0.422   0.590 -0.6507  0.4254 -0.8733
  591TIP3    H223333   0.823   0.287   0.651  0.5779  1.4791  2.1900
  592TIP3   OH223334   5.002   3.887   2.838 -0.1737 -0.0052 -0.2277
  592TIP3    H123335   4.970   3.955   2.897 -0.4771 -0.0041 -0.3898
  592TIP3    H223336   4.923   3.854   2.795 -0.0561 -0.5903 -0.0117
  593TIP3   OH223337   5.779   2.805   1.924 -0.1173 -0.6533 -0.1642
  593TIP3    H123338   5.824   2.869   1.980 -0.8906 -0.6344  0.4638
  593TIP3    H223339   5.831   2.725   1.932  1.2532  0.0504 -1.4983
  594TIP3   OH223340   4.228   6.271   8.002 -0.2459  0.0250 -0.3480
  594TIP3    H123341   4.230   6.176   8.011  0.7281 -0.0733 -1.3893
  594TIP3    H223342   4.163   6.288   7.933 -0.0842  0.0871 -0.4852
  595TIP3   OH223343   3.096   4.388   0.109  0.3654 -0.1215  0.1129
  595TIP3    H123344   3.122   4.448   0.039 -2.1854  0.7326 -0.2400
  595TIP3    H223345   3.119   4.434   0.190  0.5348  0.3066 -0.1729
  596TIP3   OH223346   6.060   1.395   0.521  0.2710 -0.2103  0.0462
  596TIP3    H123347   6.089   1.416   0.609  2.0053 -1.0834 -0.2914
  596TIP3    H223348   5.986   1.454   0.506 -0.1707 -0.1675  2.1226
  597TIP3   OH223349   4.463   0.099   7.973 -0.0608  0.3534 -0.0348
  597TIP3    H123350   4.499   0.017   8.007 -1.3759 -0.6579 -0.9593
  597TIP3    H223351   4.369   0.088   7.979 -0.2643  1.7198 -0.3895
  598TIP3   OH223352   6.064   0.102   7.625  0.1271 -0.1210  0.6568
  598TIP3    H123353   6.057   0.050   7.545  0.8679  2.2097 -1.0161
  598TIP3    H223354   5.976   0.101   7.663 -0.3498 -0.8719 -0.4335
  599TIP3   OH223355   0.536   6.706   8.213 -0.0581 -0.1034 -0.7719
  599TIP3    H123356   0.497   6.725   8.299 -1.5217 -2.7605 -0.7365
  599TIP3    H223357   0.618   6.754   8.213 -2.4055  4.4393 -0.1175
  600TIP3   OH223358   4.666   4.450   1.191  0.2274  0.5743  0.1531
  600TIP3    H123359   4.619   4.525   1.155 -2.0010 -0.3965  0.9054
  600TIP3    H223360   4.705   4.484   1.272 -0.2069  1.0930  0.1547
  601TIP3   OH223361   6.695   2.891   1.342 -0.3962 -0.1928 -0.0491
  601TIP3    H123362   6.675   2.964   1.282 -0.1573  0.8957  1.1486
  601TIP3    H223363   6.664   2.921   1.427 -1.7760 -2.1778  0.2258
  602TIP3   OH223364   1.822   5.772   7.993 -0.5075 -0.1331 -0.1532
  602TIP3    H123365   1.799   5.754   7.902 -1.6844  0.3862  0.0234
  602TIP3    H223366   1.738   5.777   8.039  0.0921 -1.3307  1.1624
  603TIP3   OH223367   0.141   3.580   8.959  0.0883  0.1523  0.7356
  603TIP3    H123368   0.126   3.516   8.890 -1.1293  0.4848  0.6724
  603TIP3    H223369   0.235   3.598   8.955  0.0537  0.0969 -0.7658
  604TIP3   OH223370   0.081   5.147   3.084  0.1275  0.6556  0.7989
  604TIP3    H123371   0.046   5.236   3.094  1.6769  1.1383  2.7005
  604TIP3    H223372   0.017   5.091   3.127 -0.6864  0.8767 -0.0935
  605TIP3   OH223373   4.794   4.987   2.994 -0.3587 -0.2099 -0.1866
  605TIP3    H123374   4.811   5.009   3.085  1.3035  2.9048 -1.1120
  605TIP3    H223375   4.733   5.055   2.964  1.3390  0.5676 -2.0698
  606TIP3   OH223376   2.411   1.546   1.146  0.3225 -0.2404 -0.4177
  606TIP3    H123377   2.357   1.548   1.225  0.3283 -0.6568 -0.3988
  606TIP3    H223378   2.465   1.625   1.152  0.1042 -0.1066 -0.1637
  607TIP3   OH223379   3.367   4.765   0.004 -0.5467 -0.0815  0.4079
  607TIP3    H123380   3.322   4.810  -0.067 -1.0326 -1.0510  0.0982
  607TIP3    H223381   3.445   4.819   0.020  0.5059 -0.7610 -2.0133
  608TIP3   OH223382   3.292   1.111   8.830  0.3242  0.0568  0.2688
  608TIP3    H123383   3.243   1.172   8.775 -1.0104  0.5286  1.9295
  608TIP3    H223384   3.246   1.028   8.820  1.3321 -0.3988 -0.9140
  609TIP3   OH223385   5.817   1.885   7.088  0.0090 -0.1013 -0.0851
  609TIP3    H123386   5.780   1.945   7.153 -0.9340  0.7214 -1.3312
  609TIP3    H223387   5.892   1.845   7.132 -0.4131  0.6593  1.3920
  610TIP3   OH223388   4.653   2.042   9.050 -0.2152  0.3478  0.7341
  610TIP3    H123389   4.723   2.105   9.064  0.5795 -0.6346  1.3143
  610TIP3    H223390   4.576   2.095   9.031  0.8952  1.4397 -1.0133
  611TIP3   OH223391   1.638   0.714   7.852  0.4489 -0.1764 -0.0800
  611TIP3    H123392   1.650   0.721   7.757 -0.1366  1.4622 -0.0802
  611TIP3    H223393   1.551   0.751   7.868  0.8074  0.1936  1.1552
  612TIP3   OH223394   5.940   4.660   1.221  0.3622  0.5041  0.6855
  612TIP3    H123395   5.956   4.583   1.167 -3.5848  0.1387 -0.2556
  612TIP3    H223396   5.954   4.734   1.162 -2.1862  0.1640 -0.4883
  613TIP3   OH223397   3.008   4.286   1.890  0.0601  0.1209 -0.1617
  613TIP3    H123398   2.999   4.348   1.963 -1.2195  0.0034 -0.2074
  613TIP3    H223399   2.971   4.331   1.815  4.0277  1.4862 -1.5916
  614TIP3   OH223400   3.517   2.963   8.338 -0.6259  0.7325  0.7489
  614TIP3    H123401   3.491   2.908   8.412  0.8010 -1.5331 -0.3190
  614TIP3    H223402   3.439   2.966   8.282 -0.5961 -0.7226  0.5758
  615TIP3   OH223403   4.721   4.560   8.297 -0.0795 -0.3091  0.2505
  615TIP3    H123404   4.652   4.627   8.292  0.3226  0.0732 -0.4664
  615TIP3    H223405   4.704   4.504   8.221 -0.7829 -1.4131  1.1892
  616TIP3   OH223406   2.514   6.036   1.814  0.1602  0.1239 -0.1954
  616TIP3    H123407   2.512   6.131   1.819  0.5168  0.1539 -0.6267
  616TIP3    H223408   2.511   6.016   1.720  1.4118 -0.2531 -0.1767
  617TIP3   OH223409   3.332   5.074   1.182  0.0620 -0.0528 -0.6282
  617TIP3    H123410   3.289   5.041   1.103 -0.6665 -1.0300  0.1471
  617TIP3    H223411   3.277   5.147   1.211  0.4750  0.4794 -1.1425
  618TIP3   OH223412   2.075   1.620   1.648 -0.1518  0.0635  0.0532
  618TIP3    H123413   2.052   1.528   1.661  0.9010 -0.1107  0.7638
  618TIP3    H223414   2.057   1.636   1.555  0.5698 -1.1301 -0.3137
  619TIP3   OH223415   3.699   0.004   9.051  0.7541  0.1924 -0.0636
  619TIP3    H123416   3.751   0.005   8.971 -0.2306  1.7709 -0.7212
  619TIP3    H223417   3.744  -0.059   9.107  1.2724 -1.2353 -1.9654
  620TIP3   OH223418   2.443   0.437   1.538 -0.0729  0.5964  0.6366
  620TIP3    H123419   2.527   0.460   1.579 -1.5823  2.8202  2.7983
  620TIP3    H223420   2.459   0.354   1.495  2.2222 -1.1660  4.3914
  621TIP3   OH223421   3.936   2.256   8.048 -0.1840 -0.4598 -0.7099
  621TIP3    H123422   3.897   2.301   7.974  1.3394 -0.3877 -1.5068
  621TIP3    H223423   4.003   2.316   8.081 -1.4577 -0.0808  1.3595
  622TIP3   OH223424   5.004   4.055   7.967 -0.0938 -0.1343 -0.1893
  622TIP3    H123425   5.020   3.966   7.934  0.8981 -0.3210  0.7291
  622TIP3    H223426   4.995   4.108   7.888 -1.8254 -1.2051 -0.7652
  623TIP3   OH223427   4.341   0.299   8.448 -0.4799  0.1864  0.1491
  623TIP3    H123428   4.265   0.349   8.420  0.9319  1.6920 -1.2633
  623TIP3    H223429   4.398   0.297   8.371  0.7253 -1.2801  1.0165
  624TIP3   OH223430   5.235   4.149   0.093 -0.1661 -0.1325  0.0305
  624TIP3    H123431   5.217   4.165   0.001  0.4501 -2.4421 -0.5466
  624TIP3    H223432   5.166   4.089   0.122  1.2315 -1.7060  0.2591
  625TIP3   OH223433   0.604   4.728   1.402 -0.1330 -0.1901 -0.3557
  625TIP3    H123434   0.697   4.704   1.400  0.4440  1.8437  0.2783
  625TIP3    H223435   0.593   4.789   1.329 -0.1181  2.2462  1.5376
  626TIP3   OH223436   0.902   0.450   9.024 -0.0613 -0.7317 -0.1002
  626TIP3    H123437   0.894   0.509   9.100 -0.0362 -1.1855  0.2583
  626TIP3    H223438   0.956   0.499   8.962 -1.9357  0.5824 -0.7754
  627TIP3   OH223439   2.090   2.031   0.112  0.3931 -0.7437  0.3050
  627TIP3    H123440   2.169   2.060   0.159 -0.5240 -0.7694  1.9280
  627TIP3    H223441   2.035   2.109   0.109 -1.0330 -1.5907  2.4660
  628TIP3   OH223442   2.705   0.132   8.048  0.1482  0.3838 -0.1375
  628TIP3    H123443   2.629   0.171   8.093  0.4443  1.0497 -0.2024
  628TIP3    H223444   2.723   0.192   7.976  0.2291 -0.2119 -0.6194
  629TIP3   OH223445   2.664   3.624   7.263 -0.5548 -0.0739 -0.6484
  629TIP3    H123446   2.757   3.634   7.243 -1.0300 -0.1281 -3.1175
  629TIP3    H223447   2.662   3.557   7.332  1.2734  0.8465  0.3889
  630TIP3   OH223448   1.061   1.082   8.474 -0.0327  0.2798  0.0911
  630TIP3    H123449   1.142   1.080   8.423  0.2458 -1.5902  0.5182
  630TIP3    H223450   0.992   1.073   8.408  0.2796 -1.1788 -0.0794
  631TIP3   OH223451   2.769   5.889   2.366  0.2615 -0.3940  0.3467
  631TIP3    H123452   2.733   5.978   2.355 -0.3468 -0.8008 -1.1434
  631TIP3    H223453   2.699   5.841   2.412  0.3322 -0.2794  0.5783
  632TIP3   OH223454   4.880   2.284   1.716  0.0175 -0.7777  0.1040
  632TIP3    H123455   4.921   2.338   1.648 -0.1768 -0.9604 -0.1595
  632TIP3    H223456   4.950   2.269   1.780 -0.1784  0.6262  0.6979
  633TIP3   OH223457   2.825   0.248   1.519  0.1511  0.0372  0.4057
  633TIP3    H123458   2.730   0.248   1.506  0.0555 -2.1686  0.8174
  633TIP3    H223459   2.850   0.156   1.520  2.1003  0.5025  1.7572
  634TIP3   OH223460   4.715   2.772   0.482 -0.5106  0.2500  0.0939
  634TIP3    H123461   4.779   2.733   0.541 -0.4837 -0.7505 -0.5843
  634TIP3    H223462   4.756   2.768   0.396 -1.3408 -0.0803 -0.2906
  635TIP3   OH223463   0.285   5.180   3.287 -0.8920  0.4324  0.3181
  635TIP3    H123464   0.328   5.243   3.230  0.7111 -2.4081 -1.9224
  635TIP3    H223465   0.198   5.167   3.248 -0.7913  0.4645  0.0779
  636TIP3   OH223466   1.943   5.619   8.955  0.2488 -0.4108 -0.0744
  636TIP3    H123467   2.011   5.668   8.908  1.3703  1.2497  2.9500
  636TIP3    H223468   1.861   5.659   8.927  0.5922 -1.1872 -2.3948
  637TIP3   OH223469   4.485   0.955   9.018 -0.7473  0.5185  0.0055
  637TIP3    H123470   4.522   1.018   9.080 -0.5223  0.9730 -0.5718
  637TIP3    H223471   4.560   0.926   8.966 -0.3038 -2.3829  2.0231
  638TIP3   OH223472   3.955   2.913   7.877 -0.2042  0.2577  0.0077
  638TIP3    H123473   4.012   2.991   7.875  0.0792  0.0397 -0.7721
  638TIP3    H223474   3.952   2.889   7.970  4.6865 -2.3952 -0.1848
  639TIP3   OH223475   6.377   3.953   2.880 -0.7953 -0.0430 -0.1096
  639TIP3    H123476   6.315   3.961   2.953 -1.7902  0.2937 -0.9845
  639TIP3    H223477   6.463   3.949   2.923 -1.4087 -0.5336  1.1171
  640TIP3   OH223478   0.706   2.683   0.752  0.0491  0.3352 -0.3288
  640TIP3    H123479   0.695   2.767   0.708  1.4290  0.7961  0.1702
  640TIP3    H223480   0.665   2.695   0.838 -0.4669  0.2271 -0.5564
  641TIP3   OH223481   3.373   6.655   2.380 -0.1804 -0.3445 -0.1313
  641TIP3    H123482   3.424   6.735   2.395  0.4239 -0.6836 -0.3539
  641TIP3    H223483   3.301   6.660   2.444 -1.2193  1.2649 -1.3294
  642TIP3   OH223484   5.412   5.434   8.462  0.0565  0.4631  0.2050
  642TIP3    H123485   5.420   5.529   8.466  2.5812  0.3672 -0.7453
  642TIP3    H223486   5.406   5.414   8.369 -3.7048 -0.2506  0.4183
  643TIP3   OH223487   3.518   4.103   2.159 -0.5818 -0.0130 -0.2094
  643TIP3    H123488   3.555   4.188   2.134 -1.2442  1.0680  2.1135
  643TIP3    H223489   3.497   4.114   2.252 -1.8536 -2.3290 -0.1681
  644TIP3   OH223490   4.652   3.466   8.428  0.1711 -0.1496 -0.2418
  644TIP3    H123491   4.686   3.534   8.369 -1.7483 -0.5911 -1.9621
  644TIP3    H223492   4.591   3.512   8.485 -1.1575 -0.3549 -1.4308
  645TIP3   OH223493   3.338   2.251   1.432  0.4378 -0.0402 -0.5229
  645TIP3    H123494   3.372   2.189   1.496  0.9568 -0.1894 -0.9365
  645TIP3    H223495   3.408   2.260   1.367 -0.4769 -0.7143 -1.6427
  646TIP3   OH223496   3.216   0.450   2.553 -0.3201 -0.4740  0.1007
  646TIP3    H123497   3.238   0.392   2.626 -0.6434 -1.0922 -0.2851
  646TIP3    H223498   3.144   0.406   2.509 -0.5388  0.2094 -0.2250
  647TIP3   OH223499   1.278   4.425   8.136  0.6435  0.0939  0.9915
  647TIP3    H123500   1.312   4.336   8.145  0.1224 -0.3976 -1.4110
  647TIP3    H223501   1.347   4.473   8.091  0.1203  0.3605  0.4585
  648TIP3   OH223502   2.318   4.872   8.579 -0.1547  0.0326 -0.0975
  648TIP3    H123503   2.275   4.845   8.660 -1.4076 -0.4621 -0.8972
  648TIP3    H223504   2.381   4.801   8.561 -3.2452 -2.4646 -2.0448
  649TIP3   OH223505   3.274   5.752   1.902  0.1805 -0.0433 -0.5637
  649TIP3    H123506   3.330   5.675   1.896  1.0200  0.5623 -0.6930
  649TIP3    H223507   3.187   5.717   1.919  0.2379 -1.1087 -2.2580
  650TIP3   OH223508   1.049   5.108   9.046 -0.9375 -0.2133  0.4123
  650TIP3    H123509   1.076   5.102   8.954 -0.6909 -0.8941  0.5226
  650TIP3    H223510   1.024   5.200   9.058 -2.9199 -0.5275 -0.8789
  651TIP3   OH223511   6.126   4.288   1.278  0.3359  0.2589 -0.2086
  651TIP3    H123512   6.198   4.233   1.309  0.2714  0.7195  0.7809
  651TIP3    H223513   6.048   4.252   1.321  0.1390  0.4735 -0.3858
  652TIP3   OH223514   0.931   5.354   0.102 -0.4021 -0.7886  0.1440
  652TIP3    H123515   0.882   5.421   0.055 -1.3495 -1.3643  0.2933
  652TIP3    H223516   0.885   5.272   0.083 -0.3984 -1.1318  1.4922
  653TIP3   OH223517   6.487   4.334   2.715 -0.3647  0.0894 -0.1871
  653TIP3    H123518   6.565   4.292   2.753 -0.5620  1.0994  1.4229
  653TIP3    H223519   6.417   4.270   2.727 -0.1018 -0.2156 -0.2597
  654TIP3   OH223520   3.213   4.882   8.071 -0.0255  0.1716 -0.0029
  654TIP3    H123521   3.232   4.957   8.127 -1.1339  0.3687  0.1264
  654TIP3    H223522   3.237   4.911   7.983  1.6342 -0.1085  0.3276
  655TIP3   OH223523   0.571   5.024   1.552 -0.3250  0.1067 -0.2549
  655TIP3    H123524   0.512   4.949   1.546  1.0329 -1.3382  2.3607
  655TIP3    H223525   0.648   4.998   1.503 -0.3777  0.3720 -0.4789
  656TIP3   OH223526   4.667   0.603   7.842  0.0020  0.0945 -0.5520
  656TIP3    H123527   4.694   0.692   7.819 -0.8274  0.5460  0.1558
  656TIP3    H223528   4.581   0.614   7.884  1.4061 -0.6119  2.8876
  657TIP3   OH223529   3.154   4.565   2.396  0.3996 -0.2329 -0.0942
  657TIP3    H123530   3.125   4.589   2.484 -0.7097  0.4046 -0.6164
  657TIP3    H223531   3.161   4.469   2.398  1.1515 -0.1747  0.8992
  658TIP3   OH223532   6.570   4.786   0.881  0.5431  0.1384  0.0450
  658TIP3    H123533   6.652   4.763   0.925 -0.6840 -1.5623  1.6146
  658TIP3    H223534   6.597   4.832   0.802  3.0623 -1.5336 -0.1768
  659TIP3   OH223535   5.472   0.609   2.356 -0.1695 -0.3555 -0.3055
  659TIP3    H123536   5.433   0.677   2.412  0.1904 -1.6864  1.6594
  659TIP3    H223537   5.533   0.563   2.413 -1.1690 -3.0231 -1.2444
  660TIP3   OH223538   1.676   5.770   0.070 -0.2784 -0.1605  0.0935
  660TIP3    H123539   1.606   5.721   0.112  0.3291 -1.7487 -0.6716
  660TIP3    H223540   1.752   5.757   0.127 -0.0162 -0.4399 -0.3153
  661TIP3   OH223541   3.076   3.129   7.826  0.2415 -0.2464 -0.3679
  661TIP3    H123542   3.103   3.220   7.810  1.2201 -0.3140  0.7433
  661TIP3    H223543   3.158   3.079   7.822 -0.0148 -0.7990  0.8501
  662TIP3   OH223544   4.917   4.913   3.242 -0.3903  0.3102  0.1816
  662TIP3    H123545   4.910   4.817   3.244  2.5315 -0.0078 -0.2639
  662TIP3    H223546   4.966   4.935   3.321 -0.6296  1.4188  0.0326
  663TIP3   OH223547   0.282   3.911   8.861 -0.0945 -0.2098 -0.0059
  663TIP3    H123548   0.307   4.001   8.882 -2.4120  0.0093  2.3746
  663TIP3    H223549   0.364   3.862   8.859  1.0381  1.5671  0.6739
  664TIP3   OH223550   2.617   3.453   0.070  0.5556  0.7577 -0.2746
  664TIP3    H123551   2.656   3.366   0.077  1.4952  1.2374  0.7171
  664TIP3    H223552   2.663   3.494  -0.004  1.6457  1.1512  0.5945
  665TIP3   OH223553   3.791   1.402   7.242 -0.2629  0.8605  0.0122
  665TIP3    H123554   3.822   1.489   7.214 -0.8322  1.0112 -0.1495
  665TIP3    H223555   3.861   1.342   7.215 -0.0203  1.2251 -0.1804
  666TIP3   OH223556   4.220   5.439   7.810  0.6492 -0.1337  0.3953
  666TIP3    H123557   4.313   5.419   7.822  0.5533  0.0711  1.6545
  666TIP3    H223558   4.175   5.362   7.845  0.3126 -1.5873 -2.9253
  667TIP3   OH223559   5.006   5.228   1.121 -0.3625 -0.5079  0.2859
  667TIP3    H123560   4.929   5.248   1.173 -1.6590 -3.0238 -0.5291
  667TIP3    H223561   5.057   5.167   1.175 -0.3711 -1.0466 -0.3059
  668TIP3   OH223562   1.304   4.401   2.095  0.4040 -0.0166 -0.2066
  668TIP3    H123563   1.303   4.382   2.189  0.1060 -0.7310 -0.3447
  668TIP3    H223564   1.390   4.372   2.065 -0.2974 -1.8889 -0.5432
  669TIP3   OH223565   0.451   2.669   2.250 -0.3297 -0.1099  0.1307
  669TIP3    H123566   0.363   2.647   2.221 -0.1172  0.1117 -0.7085
  669TIP3    H223567   0.440   2.744   2.308 -0.6993 -0.1708  0.1407
  670TIP3   OH223568   5.611   4.208   1.924 -0.4622 -0.0214 -0.4289
  670TIP3    H123569   5.524   4.169   1.915  0.3004 -1.5755 -1.4224
  670TIP3    H223570   5.622   4.220   2.018 -1.8062  0.3835 -0.2955
  671TIP3   OH223571   2.016   4.217   1.769  0.1659 -0.0757  0.0582
  671TIP3    H123572   1.986   4.140   1.817  1.2112 -2.2423 -2.5143
  671TIP3    H223573   1.938   4.250   1.725  0.1752 -1.5404 -1.1582
  672TIP3   OH223574   0.222   5.061   2.750 -0.4077 -0.5717  0.5137
  672TIP3    H123575   0.234   5.074   2.656 -2.4465 -1.5973  0.0392
  672TIP3    H223576   0.295   5.107   2.791  0.2193  0.3691 -1.5424
  673TIP3   OH223577   2.044   4.539   8.142  0.0789  0.1565  0.0402
  673TIP3    H123578   2.131   4.577   8.132 -0.0198  1.0001  1.9323
  673TIP3    H223579   1.984   4.607   8.109  0.1128 -0.5992 -1.6786
  674TIP3   OH223580   2.622   2.421   1.842 -1.0273 -0.1112  0.0379
  674TIP3    H123581   2.698   2.363   1.845 -0.6426  0.4053  0.3370
  674TIP3    H223582   2.562   2.383   1.906 -1.6229 -1.3231 -1.1816
  675TIP3   OH223583   0.814   4.695   2.408  0.4298  0.1450  0.3215
  675TIP3    H123584   0.822   4.613   2.458 -1.8384 -0.9391 -0.9477
  675TIP3    H223585   0.886   4.690   2.345  0.6493 -0.6080  0.6073
  676TIP3   OH223586   4.647   3.865   0.100  0.1122 -0.3360 -0.5154
  676TIP3    H123587   4.595   3.939   0.132  1.8065  0.7626 -0.1602
  676TIP3    H223588   4.668   3.815   0.179 -1.9441 -1.8890 -0.8722
  677TIP3   OH223589   1.056   2.530   2.248 -0.0838 -0.4459 -0.2966
  677TIP3    H123590   1.141   2.572   2.262  0.4669 -1.3590 -0.8407
  677TIP3    H223591   0.999   2.601   2.219  0.4353  0.2143  0.2524
  678TIP3   OH223592   4.524   4.357   1.577  0.3429 -0.2248  0.0820
  678TIP3    H123593   4.451   4.345   1.637  0.7043  0.3853  0.6561
  678TIP3    H223594   4.558   4.269   1.561 -0.9892 -0.6030 -0.8019
  679TIP3   OH223595   0.345   3.549   6.877 -0.2266  0.3122  0.3918
  679TIP3    H123596   0.412   3.494   6.836  0.4403  1.2204  0.2239
  679TIP3    H223597   0.394   3.615   6.926 -0.9777  1.2402 -0.0559
  680TIP3   OH223598   0.513   0.477   1.349  0.2023  0.2563 -0.0847
  680TIP3    H123599   0.574   0.543   1.382 -0.9556  1.0292  0.6044
  680TIP3    H223600   0.431   0.495   1.396 -0.2321 -1.4859 -0.1055
  681TIP3   OH223601   4.415   0.300   8.171 -0.0127 -0.2539  0.6059
  681TIP3    H123602   4.468   0.222   8.158 -0.9413 -0.9255  0.7519
  681TIP3    H223603   4.360   0.305   8.093 -0.1535  0.1041  0.7228
  682TIP3   OH223604   6.628   0.701   8.201 -0.1439 -0.3448 -0.1816
  682TIP3    H123605   6.693   0.635   8.224  0.5265 -0.1262 -1.3690
  682TIP3    H223606   6.592   0.672   8.118  0.6425  1.1046 -1.0708
  683TIP3   OH223607   3.839   5.615   1.701 -0.0161 -0.2401 -0.2236
  683TIP3    H123608   3.902   5.679   1.732 -1.3804  1.0336 -0.0021
  683TIP3    H223609   3.756   5.640   1.741 -0.7497 -1.6990 -0.7319
  684TIP3   OH223610   6.324   3.037   7.330 -0.1803  0.0834  0.6550
  684TIP3    H123611   6.342   2.943   7.332 -1.0307 -0.1357 -0.5841
  684TIP3    H223612   6.274   3.053   7.410  0.5057 -0.3986  1.1886
  685TIP3   OH223613   6.729   2.364   8.108  0.2056 -0.6169  0.0480
  685TIP3    H123614   6.717   2.287   8.052  1.2934 -0.9902  0.2881
  685TIP3    H223615   6.822   2.361   8.131  0.3432  0.9738 -0.2320
  686TIP3   OH223616   1.998   6.721   0.667 -0.0048 -0.8289 -0.9048
  686TIP3    H123617   2.083   6.678   0.656  0.4857  0.2172 -1.3134
  686TIP3    H223618   1.959   6.677   0.743  0.9880 -1.1875 -0.5841
  687TIP3   OH223619   3.528   5.142   0.917 -0.3115  0.1730  0.0411
  687TIP3    H123620   3.518   5.236   0.908  2.0249  0.6218  1.2070
  687TIP3    H223621   3.559   5.130   1.007  0.0852 -1.6318 -0.2931
  688TIP3   OH223622   3.349   6.026   0.805 -0.1440 -0.5950 -0.3276
  688TIP3    H123623   3.334   6.059   0.716 -1.5620 -0.9268 -0.2407
  688TIP3    H223624   3.444   6.024   0.814  0.0091  0.9267 -1.2714
  689TIP3   OH223625   1.860   6.351   2.104  0.5077 -0.3545  0.2505
  689TIP3    H123626   1.937   6.342   2.158  1.1990 -0.5827 -0.7472
  689TIP3    H223627   1.815   6.428   2.139 -0.0002 -1.4867  2.2245
  690TIP3   OH223628   3.143   4.231   7.653  0.5379  0.1132  0.2399
  690TIP3    H123629   3.135   4.304   7.591  0.7449 -0.2442 -0.2131
  690TIP3    H223630   3.155   4.273   7.738 -1.2261  0.6420  0.2857
  691TIP3   OH223631   2.224   0.897   7.624 -0.2805  0.0688  0.2386
  691TIP3    H123632   2.193   0.940   7.703 -0.1269  0.6342 -0.0074
  691TIP3    H223633   2.218   0.964   7.556  0.1343 -0.2410 -0.1096
  692TIP3   OH223634   5.963   5.589   1.093  0.5466  0.7997  0.1004
  692TIP3    H123635   6.008   5.528   1.034 -0.3155 -0.9288  1.1546
  692TIP3    H223636   5.951   5.668   1.041 -0.1770 -0.6502 -2.0661
  693TIP3   OH223637   5.388   6.354   0.216  0.7145  0.0744  0.4760
  693TIP3    H123638   5.446   6.399   0.277  1.5602 -1.6955  1.0194
  693TIP3    H223639   5.422   6.377   0.129  2.2296 -0.9191  0.7902
  694TIP3   OH223640   2.846   6.451   0.274  0.3517 -0.1758 -0.5576
  694TIP3    H123641   2.782   6.514   0.241 -0.5132 -1.1258 -0.7606
  694TIP3    H223642   2.806   6.365   0.258  0.2426 -0.7314  2.2313
  695TIP3   OH223643   4.034   1.910   0.298 -0.2160  0.5954  0.9310
  695TIP3    H123644   4.006   2.000   0.285 -0.1437  0.3082 -1.6420
  695TIP3    H223645   4.019   1.867   0.214 -0.6726 -1.9338  2.1863
  696TIP3   OH223646   1.413   5.281   7.369 -0.1009  0.2386 -0.0636
  696TIP3    H123647   1.382   5.231   7.294 -1.5494 -0.4401  0.9393
  696TIP3    H223648   1.338   5.284   7.428  1.1996  0.1600  1.6621
  697TIP3   OH223649   3.412   3.539   7.847 -0.0668  0.1538  0.2694
  697TIP3    H123650   3.425   3.498   7.932 -0.9195 -3.0170 -1.0044
  697TIP3    H223651   3.492   3.519   7.798 -0.2727  0.4930 -0.2186
  698TIP3   OH223652   4.362   2.892   7.898  0.4097  0.1852 -0.5624
  698TIP3    H123653   4.314   2.878   7.817  0.1892  3.1837 -1.0635
  698TIP3    H223654   4.448   2.853   7.883 -0.8223 -2.7199 -0.7002
  699TIP3   OH223655   6.712   0.147   1.474  0.9512 -0.0998 -0.0839
  699TIP3    H123656   6.718   0.235   1.513 -1.3984  0.6008 -1.1610
  699TIP3    H223657   6.778   0.148   1.404 -1.0928  2.0296 -2.1692
  700TIP3   OH223658   1.653   3.922   7.439  0.7377 -0.1969 -0.4345
  700TIP3    H123659   1.705   3.982   7.493  1.6155 -1.1368 -0.2112
  700TIP3    H223660   1.697   3.838   7.447 -1.5116 -1.3693  0.8025
  701TIP3   OH223661   1.786   2.571   1.007 -0.5424 -0.0816  0.1599
  701TIP3    H123662   1.840   2.499   1.040  1.7981  0.9650 -1.1702
  701TIP3    H223663   1.826   2.650   1.044 -1.0030  0.7473 -1.0524
  702TIP3   OH223664   1.672   2.274   0.833 -0.9764 -0.5614 -0.0284
  702TIP3    H123665   1.755   2.229   0.822 -0.5691  0.1645 -0.0037
  702TIP3    H223666   1.688   2.363   0.802 -0.9815  0.3559  2.3589
  703TIP3   OH223667   0.882   6.326   2.819  0.3152  0.0737  0.6280
  703TIP3    H123668   0.904   6.409   2.861 -0.3421 -0.3845  1.9326
  703TIP3    H223669   0.794   6.306   2.850  0.5363 -1.1990  0.4948
  704TIP3   OH223670   5.571   2.050   2.457 -0.1400 -0.2062  0.4259
  704TIP3    H123671   5.503   2.040   2.525 -0.3256 -1.8578  0.0495
  704TIP3    H223672   5.595   1.960   2.435  2.1226  0.3349  0.4550
  705TIP3   OH223673   4.715   2.666   1.842 -0.1577 -0.3618  0.6102
  705TIP3    H123674   4.655   2.733   1.875  0.3463  0.6158 -0.3497
  705TIP3    H223675   4.746   2.620   1.920 -0.5579  0.5035  1.2965
  706TIP3   OH223676   2.944   4.023   1.836 -0.3025  0.0035 -0.0477
  706TIP3    H123677   2.902   4.019   1.750  0.9892 -1.7500 -0.6502
  706TIP3    H223678   2.973   4.114   1.845 -0.4513  0.2059 -1.4546
  707TIP3   OH223679   4.281   1.722   0.333  0.1686  0.2053  0.4345
  707TIP3    H123680   4.192   1.758   0.330  0.3705  0.7700  1.2399
  707TIP3    H223681   4.318   1.755   0.414  1.1314 -0.0147  0.0921
  708TIP3   OH223682   4.252   6.020   0.532  0.2545  0.1691  0.4203
  708TIP3    H123683   4.343   6.024   0.502 -0.1518 -0.5023 -1.0268
  708TIP3    H223684   4.242   5.932   0.568  0.2169  0.2894  0.7037
  709TIP3   OH223685   0.635   0.813   1.722 -0.4028  0.9758 -0.0325
  709TIP3    H123686   0.554   0.825   1.673 -0.6577 -0.5885 -0.0493
  709TIP3    H223687   0.700   0.862   1.672 -0.9631  0.6523 -1.1097
  710TIP3   OH223688   2.941   4.348   1.572 -0.4140  0.2585  0.3644
  710TIP3    H123689   2.955   4.443   1.578 -0.8949  0.3385  0.2840
  710TIP3    H223690   2.912   4.334   1.482 -3.9728  0.5569  1.3016
  711TIP3   OH223691   5.520   2.263   8.859  0.0300 -0.7967  0.1553
  711TIP3    H123692   5.604   2.216   8.861 -0.0757 -0.9745  0.6518
  711TIP3    H223693   5.541   2.349   8.823  0.6587 -0.3960  1.4173
  712TIP3   OH223694   3.025   6.406   2.085  0.8777  0.2807  0.1928
  712TIP3    H123695   3.039   6.358   2.167 -1.7628  1.2314  1.2860
  712TIP3    H223696   3.061   6.493   2.101 -1.0122  0.9725  1.0079
  713TIP3   OH223697   1.778   5.679   7.739  0.1050  0.2128 -0.7562
  713TIP3    H123698   1.832   5.743   7.693  0.6813  0.0538 -0.3027
  713TIP3    H223699   1.689   5.713   7.731 -0.1724 -0.9438 -3.9459
  714TIP3   OH223700   1.001   1.232   2.381 -0.1004  0.5029 -0.3155
  714TIP3    H123701   0.988   1.168   2.450 -1.1299  0.5693 -0.4385
  714TIP3    H223702   1.063   1.295   2.417  2.5349 -1.5835 -0.8793
  715TIP3   OH223703   6.234   4.114   8.173 -0.0666 -0.4017 -0.1853
  715TIP3    H123704   6.164   4.146   8.115 -0.1496  1.0284  0.6659
  715TIP3    H223705   6.254   4.188   8.230  1.1312 -1.2696  0.5676
  716TIP3   OH223706   1.456   5.551   9.093  0.1673  0.3445  0.5205
  716TIP3    H123707   1.419   5.463   9.096 -1.1103  0.8465  0.2851
  716TIP3    H223708   1.468   5.574   9.185 -1.6191  0.7373  0.7091
  717TIP3   OH223709   1.638   4.549   8.866 -0.3278  0.2291  0.0101
  717TIP3    H123710   1.668   4.463   8.837 -2.1018 -0.4791  0.0889
  717TIP3    H223711   1.552   4.532   8.905  0.2588  1.7164  2.1447
  718TIP3   OH223712   5.301   5.064   0.133  0.4076  0.0227  1.2095
  718TIP3    H123713   5.283   5.158   0.145  0.5376  0.1285  0.6180
  718TIP3    H223714   5.276   5.024   0.217 -2.9250  0.1080  0.3876
  719TIP3   OH223715   4.172   3.893   1.504  0.1934 -0.6637 -0.2499
  719TIP3    H123716   4.138   3.804   1.506  0.5512 -0.8090 -0.5754
  719TIP3    H223717   4.247   3.889   1.445 -1.3605  0.4135 -2.3998
  720TIP3   OH223718   0.766   0.223   8.183  0.6171 -0.1613 -0.2944
  720TIP3    H123719   0.811   0.282   8.123  0.7490 -1.0323 -1.0706
  720TIP3    H223720   0.829   0.154   8.202 -0.7304 -2.1068 -2.4189
  721TIP3   OH223721   5.178   4.484   7.498 -0.0681  0.4221 -0.6111
  721TIP3    H123722   5.231   4.412   7.532 -0.9474  0.1682  0.2857
  721TIP3    H223723   5.201   4.490   7.406  0.1453 -0.8943 -0.6578
  722TIP3   OH223724   3.197   2.115   7.673  0.0214 -0.0818 -0.8985
  722TIP3    H123725   3.243   2.197   7.656  1.6662 -0.9973 -1.0545
  722TIP3    H223726   3.186   2.075   7.586 -2.3328  0.7098 -1.0460
  723TIP3   OH223727   1.592   3.968   1.404 -0.5354  0.6612  0.8981
  723TIP3    H123728   1.526   3.989   1.339 -0.0238  0.7764  0.4141
  723TIP3    H223729   1.648   3.903   1.362 -1.4956 -0.9571  2.0096
  724TIP3   OH223730   3.100   0.147   2.063  0.2050  0.2011 -0.4150
  724TIP3    H123731   3.124   0.071   2.011 -0.7090 -0.2161 -0.2498
  724TIP3    H223732   3.004   0.146   2.064  0.2003  0.6597  0.6077
  725TIP3   OH223733   1.128   3.252   7.571 -0.1280 -0.0991 -0.2447
  725TIP3    H123734   1.061   3.243   7.639  0.2291 -1.1669 -0.0009
  725TIP3    H223735   1.210   3.262   7.620  0.3089 -2.2160 -0.4546
  726TIP3   OH223736   1.203   5.646   1.345  0.1456 -0.1267 -0.2147
  726TIP3    H123737   1.200   5.567   1.291 -1.3643  0.5330 -1.1437
  726TIP3    H223738   1.157   5.622   1.426  0.3548 -0.4079 -0.1756
  727TIP3   OH223739   2.982   1.706   2.388 -0.5498 -0.0452  0.1220
  727TIP3    H123740   2.969   1.651   2.312 -0.0844 -0.1394  0.1056
  727TIP3    H223741   2.906   1.689   2.444 -0.9694  0.1428 -0.3865
  728TIP3   OH223742   1.187   6.191   3.026 -0.0146 -0.6528 -0.6398
  728TIP3    H123743   1.169   6.233   2.942 -0.3697  0.9845  0.2230
  728TIP3    H223744   1.198   6.263   3.088  2.0960 -1.7524  0.3923
  729TIP3   OH223745   5.312   3.628   1.367 -0.2961  0.2748  0.2602
  729TIP3    H123746   5.331   3.535   1.354 -1.3709 -0.0178  0.5905
  729TIP3    H223747   5.347   3.671   1.289 -0.0864 -0.4560 -0.0632
  730TIP3   OH223748   2.523   2.047   7.881  0.4317 -0.3693  0.2053
  730TIP3    H123749   2.451   2.110   7.887  0.6686 -0.1484  0.8534
  730TIP3    H223750   2.526   2.022   7.789  0.5685  0.8456 -0.1353
  731TIP3   OH223751   6.180   0.825   1.977 -0.4411 -0.4247  0.7780
  731TIP3    H123752   6.167   0.841   2.071 -1.0536 -1.8713  0.9612
  731TIP3    H223753   6.255   0.880   1.954 -0.7082  0.4726  1.9605
  732TIP3   OH223754   2.444   2.758   1.135 -0.1479  0.0040  0.3721
  732TIP3    H123755   2.420   2.773   1.226  0.0767  0.1433  0.4092
  732TIP3    H223756   2.420   2.667   1.119 -0.9054  0.2040  0.3374
  733TIP3   OH223757   1.988   0.746   8.109 -0.2797  0.6336  0.0696
  733TIP3    H123758   2.082   0.763   8.106 -0.3147  0.8630  0.1729
  733TIP3    H223759   1.958   0.759   8.020 -0.2283  0.6545  0.0558
  734TIP3   OH223760   3.550   6.164   1.543  0.5082 -0.5924  0.3672
  734TIP3    H123761   3.514   6.188   1.458  2.4368 -0.4370 -0.4606
  734TIP3    H223762   3.645   6.174   1.533  0.8197 -1.0118  2.4014
  735TIP3   OH223763   2.320   2.617   1.623  0.2134 -0.5534  0.1691
  735TIP3    H123764   2.382   2.544   1.629 -0.2193 -1.3376 -3.0354
  735TIP3    H223765   2.342   2.673   1.697  3.7859 -1.5111  0.0415
  736TIP3   OH223766   0.267   2.867   8.900  0.0330 -0.0167 -0.4631
  736TIP3    H123767   0.351   2.830   8.928  0.5192 -0.4499 -2.3914
  736TIP3    H223768   0.261   2.950   8.947  2.0711  0.5450 -1.1096
  737TIP3   OH223769   1.201   5.277   0.168  0.4880 -0.2099 -0.0643
  737TIP3    H123770   1.118   5.318   0.146  0.2763 -0.9362 -0.6816
  737TIP3    H223771   1.187   5.184   0.150  2.0545 -0.1214 -2.2075
  738TIP3   OH223772   4.116   0.867   7.379  0.1617  0.3569 -0.1754
  738TIP3    H123773   4.176   0.916   7.323  0.6082 -0.6067 -0.5509
  738TIP3    H223774   4.044   0.842   7.321  0.9633 -1.2476 -0.5208
  739TIP3   OH223775   1.197   5.202   2.384  0.0421 -0.2673  0.2198
  739TIP3    H123776   1.187   5.263   2.457 -0.4178 -1.2041  0.9538
  739TIP3    H223777   1.110   5.199   2.344  0.4233  0.6696 -0.7395
  740TIP3   OH223778   4.833   3.129   8.291 -0.1029 -0.4698  0.4412
  740TIP3    H123779   4.869   3.166   8.210 -1.6020 -1.8745 -0.9505
  740TIP3    H223780   4.846   3.035   8.281 -1.5200 -0.7608  1.2232
  741TIP3   OH223781   2.947   5.081   1.186  0.0030  0.1871 -0.0635
  741TIP3    H123782   2.879   5.032   1.141  0.7046  0.2377 -1.2084
  741TIP3    H223783   3.000   5.015   1.230 -0.3290  0.0869  0.1814
  742TIP3   OH223784   5.289   3.188   2.104 -0.0005  0.1535 -0.1478
  742TIP3    H123785   5.259   3.148   2.023  0.3712  0.1496 -0.2834
  742TIP3    H223786   5.277   3.282   2.090  0.0409  0.1513 -0.1962
  743TIP3   OH223787   0.575   3.127   0.299 -0.0462  0.0184  0.4351
  743TIP3    H123788   0.600   3.035   0.287 -1.4443 -0.3262 -0.0177
  743TIP3    H223789   0.480   3.125   0.311 -0.4179  1.5715 -1.6631
  744TIP3   OH223790   1.570   5.739   2.791 -0.1572 -0.1413 -0.0855
  744TIP3    H123791   1.606   5.665   2.742 -1.5361 -0.8320 -0.1271
  744TIP3    H223792   1.646   5.789   2.820  0.7094 -0.0034 -2.4538
  745TIP3   OH223793   5.049   4.128   8.991 -0.3420  0.1654 -0.2454
  745TIP3    H123794   4.963   4.094   9.017 -0.6519 -0.5924 -2.1330
  745TIP3    H223795   5.087   4.060   8.936  1.3117  0.6729  0.2031
  746TIP3   OH223796   2.613   1.146   8.727 -1.2946  0.0202  0.1677
  746TIP3    H123797   2.645   1.127   8.815 -0.2234  0.8566 -0.0268
  746TIP3    H223798   2.523   1.112   8.726 -0.9516 -0.9828  1.2239
  747TIP3   OH223799   5.629   3.016   7.835 -0.0164  0.2675  0.0232
  747TIP3    H123800   5.604   2.925   7.818  0.5917 -0.0304  0.7059
  747TIP3    H223801   5.711   3.010   7.883 -0.5895  1.1541  1.1427
  748TIP3   OH223802   3.160   3.170   1.343 -0.1189  0.0233 -0.1348
  748TIP3    H123803   3.098   3.229   1.387 -0.8437 -1.1225  0.4071
  748TIP3    H223804   3.224   3.148   1.411  0.4823  0.6246 -0.4947
  749TIP3   OH223805   1.408   6.458   8.753 -0.7440 -0.3035 -0.8863
  749TIP3    H123806   1.336   6.428   8.809 -0.3381 -0.1423 -0.2751
  749TIP3    H223807   1.365   6.492   8.674 -1.2815 -1.2801 -1.0324
  750TIP3   OH223808   3.311   5.528   8.581  0.0181 -0.3085  0.1839
  750TIP3    H123809   3.290   5.475   8.505  0.6687 -2.3999  1.3829
  750TIP3    H223810   3.228   5.567   8.607 -0.2748  0.1650 -1.3495
  751TIP3   OH223811   1.665   1.846   0.661 -0.5979  0.3540 -0.0646
  751TIP3    H123812   1.710   1.863   0.743  0.4115  0.9955 -0.7263
  751TIP3    H223813   1.612   1.925   0.646 -0.3675  0.4683 -0.2880
  752TIP3   OH223814   5.580   0.669   1.451 -0.7506  0.1685  0.0846
  752TIP3    H123815   5.551   0.760   1.445  0.8085  0.7289  0.6153
  752TIP3    H223816   5.593   0.654   1.545 -1.6140 -0.8299  0.0669
  753TIP3   OH223817   4.186   2.402   8.056 -0.1570 -0.6485  0.1021
  753TIP3    H123818   4.256   2.460   8.088 -0.1566 -0.1920 -0.7064
  753TIP3    H223819   4.232   2.339   8.001 -0.2664 -0.9338  0.3363
  754TIP3   OH223820   4.981   5.299   1.565 -0.0260  0.0605  0.2482
  754TIP3    H123821   5.017   5.213   1.541  2.5316  0.9012  0.7043
  754TIP3    H223822   4.935   5.328   1.487  0.2814 -1.1195 -0.4067
  755TIP3   OH223823   5.415   2.026   8.738 -0.1962 -0.2849 -0.8069
  755TIP3    H123824   5.492   2.009   8.684 -0.0765  0.0440 -0.7449
  755TIP3    H223825   5.444   2.093   8.800 -0.3486 -0.6232 -0.3666
  756TIP3   OH223826   4.361   3.850   0.329  0.8818 -0.3983 -0.1156
  756TIP3    H123827   4.425   3.915   0.300  1.2424 -0.6751  0.0592
  756TIP3    H223828   4.342   3.799   0.250  1.3048 -0.6794 -0.0348
  757TIP3   OH223829   0.343   0.083   7.508 -0.0126  0.1377 -0.4365
  757TIP3    H123830   0.382   0.168   7.490  1.5591 -0.5486 -0.4401
  757TIP3    H223831   0.277   0.071   7.439 -0.4474  1.4359 -0.2731
  758TIP3   OH223832   4.698   6.699   1.596  0.1867 -0.4158  0.1181
  758TIP3    H123833   4.710   6.668   1.686  0.0105 -2.9164 -0.6396
  758TIP3    H223834   4.612   6.665   1.571  1.4101 -2.2613 -1.8915
  759TIP3   OH223835   6.690   2.121   0.919  0.1284 -0.2732 -0.3428
  759TIP3    H123836   6.629   2.047   0.917 -1.1619  0.7763 -1.0141
  759TIP3    H223837   6.688   2.152   1.009  0.2627 -0.6930 -0.1888
  760TIP3   OH223838   4.139   1.407   8.331 -0.7211  0.1386  0.4700
  760TIP3    H123839   4.077   1.429   8.400 -2.2902  1.2191 -1.2063
  760TIP3    H223840   4.087   1.358   8.267 -0.4588  2.7310 -1.9205
  761TIP3   OH223841   6.598   1.311   8.778  0.0489  0.0897  0.4964
  761TIP3    H123842   6.649   1.286   8.854  0.5925 -1.3371 -0.2870
  761TIP3    H223843   6.509   1.279   8.797 -0.0444  0.5832  0.9140
  762TIP3   OH223844   6.669   0.715   0.143 -0.2644  0.3085  0.4831
  762TIP3    H123845   6.678   0.773   0.067  1.2218 -1.1903 -0.5424
  762TIP3    H223846   6.743   0.738   0.199 -0.1963  0.0461  0.5032
  763TIP3   OH223847   5.968   0.546   1.301  0.3118  0.8394  0.4775
  763TIP3    H123848   5.902   0.483   1.330  0.5726 -0.3117 -1.2774
  763TIP3    H223849   5.922   0.629   1.296 -0.8114  0.2176  0.0825
  764TIP3   OH223850   3.912   0.588   7.665 -0.9305 -0.2176  0.0846
  764TIP3    H123851   3.997   0.544   7.659 -0.5871  0.3731  0.5768
  764TIP3    H223852   3.877   0.585   7.575  0.1331  0.5906 -0.3691
  765TIP3   OH223853   0.020   1.803   7.948  0.3307  0.7712  0.3568
  765TIP3    H123854  -0.046   1.818   8.016 -0.7206  1.2683 -0.7503
  765TIP3    H223855  -0.027   1.813   7.866  1.6530  0.4717 -0.4645
  766TIP3   OH223856   0.536   1.377   0.814 -0.0175  0.5003 -0.8052
  766TIP3    H123857   0.625   1.360   0.784 -0.1391  0.8118 -1.3597
  766TIP3    H223858   0.543   1.458   0.865 -0.2520  1.4838 -2.2745
  767TIP3   OH223859   0.751   4.463   1.136  0.1517  0.1949  0.1529
  767TIP3    H123860   0.672   4.413   1.156 -0.3760  1.9820  3.4294
  767TIP3    H223861   0.820   4.420   1.187  0.4578  0.7441  0.2131
  768TIP3   OH223862   1.859   3.554   1.581  0.2382  0.3759 -0.9153
  768TIP3    H123863   1.775   3.562   1.535 -0.7157 -0.6410  0.5718
  768TIP3    H223864   1.925   3.577   1.515 -0.9721 -2.2813 -3.2133
  769TIP3   OH223865   3.525   4.397   2.173  0.1508 -0.4326 -0.0028
  769TIP3    H123866   3.497   4.482   2.139  0.0133 -0.4930 -0.0425
  769TIP3    H223867   3.497   4.398   2.265 -2.7621 -1.6772 -0.7690
  770TIP3   OH223868   3.668   0.056   2.623 -0.1091 -0.3256  0.3156
  770TIP3    H123869   3.588   0.085   2.578  0.3814  1.1651  0.3636
  770TIP3    H223870   3.636  -0.004   2.690 -1.1642 -0.0788  0.0655
  771TIP3   OH223871   4.062   0.563   8.696 -0.1631  0.1870 -0.8532
  771TIP3    H123872   4.086   0.640   8.748  2.1687 -0.3621 -1.0118
  771TIP3    H223873   3.991   0.593   8.639  0.6550  2.2138 -0.8684
  772TIP3   OH223874   2.558   5.480   8.190  0.3114 -0.2069  0.2630
  772TIP3    H123875   2.544   5.428   8.269 -0.0748 -0.8631 -0.2323
  772TIP3    H223876   2.645   5.519   8.201 -0.2565  0.7471  1.5993
  773TIP3   OH223877   5.317   3.512   7.110  0.5128 -0.0380 -0.0200
  773TIP3    H123878   5.234   3.559   7.097  0.5045 -0.3177 -1.0711
  773TIP3    H223879   5.296   3.421   7.092  0.9999 -0.1532 -0.0222
  774TIP3   OH223880   0.784   5.329   0.432  0.6159  0.6428 -0.1649
  774TIP3    H123881   0.701   5.322   0.385  1.0619  3.5258 -1.6298
  774TIP3    H223882   0.814   5.239   0.440 -1.5829 -0.3155 -1.5779
  775TIP3   OH223883   3.089   6.064   1.273  0.2407 -1.0802  0.3655
  775TIP3    H123884   3.161   6.112   1.316  1.0672 -2.7752  0.9637
  775TIP3    H223885   3.098   6.087   1.180  0.1498  0.4582  0.7023
  776TIP3   OH223886   5.433   3.417   7.669  0.0117 -0.0265 -0.5436
  776TIP3    H123887   5.438   3.390   7.577  0.1509  0.6719 -0.7445
  776TIP3    H223888   5.390   3.502   7.666 -0.1521 -0.0879  0.0573
  777TIP3   OH223889   5.724   4.548   2.610  0.1575  0.1270 -0.0835
  777TIP3    H123890   5.670   4.560   2.688  0.6079  0.3204  0.2039
  777TIP3    H223891   5.801   4.501   2.641 -0.2591 -0.9601 -0.6617
  778TIP3   OH223892   1.142   0.531   8.941  0.2880 -0.1844  0.2919
  778TIP3    H123893   1.185   0.512   9.024 -0.5063  1.4794  1.1510
  778TIP3    H223894   1.186   0.476   8.877  0.9429 -1.4887  1.8067
  779TIP3   OH223895   2.865   4.579   8.974 -0.2449  0.6311  0.3494
  779TIP3    H123896   2.904   4.545   8.894  0.2965  1.9177  0.0368
  779TIP3    H223897   2.811   4.507   9.007  0.2585 -0.2388 -0.6627
  780TIP3   OH223898   2.548   5.971   1.542 -0.1987 -0.6372  0.0360
  780TIP3    H123899   2.551   5.987   1.448  1.5659 -0.0005  0.1656
  780TIP3    H223900   2.616   5.906   1.558 -0.9400 -1.2480  0.7970
  781TIP3   OH223901   4.394   1.842   7.784 -0.2131 -0.0625 -0.5621
  781TIP3    H123902   4.332   1.774   7.811 -0.1912  0.2469  0.2786
  781TIP3    H223903   4.472   1.794   7.756 -0.5898 -0.4249 -0.9957
  782TIP3   OH223904   0.123   3.162   8.428 -0.2558 -0.4183 -0.3219
  782TIP3    H123905   0.142   3.254   8.446 -0.7492 -0.3284 -0.2712
  782TIP3    H223906   0.209   3.119   8.435  0.4156  0.4007 -2.6207
  783TIP3   OH223907   6.613   2.371   0.740 -0.2588  0.5651 -0.7271
  783TIP3    H123908   6.617   2.327   0.655 -0.1803 -0.3416 -0.2671
  783TIP3    H223909   6.641   2.305   0.802 -2.2691  0.5499  0.2560
  784TIP3   OH223910   6.114   0.673   8.259 -0.0305  0.6244  0.1494
  784TIP3    H123911   6.081   0.722   8.184 -0.3299 -0.3868 -0.3932
  784TIP3    H223912   6.209   0.678   8.251 -0.0601  0.7353 -0.1530
  785TIP3   OH223913   0.075   2.045   7.505  0.2972  0.2099  0.6526
  785TIP3    H123914   0.064   2.089   7.420  0.4125  2.0058  1.5220
  785TIP3    H223915   0.033   2.104   7.568  1.5678 -0.3121  2.0446
  786TIP3   OH223916   4.148   6.376   7.311  0.4398  0.3253 -0.3309
  786TIP3    H123917   4.160   6.471   7.323  0.3876  0.4142 -0.9664
  786TIP3    H223918   4.115   6.367   7.222 -1.0317 -0.1618  0.2212
  787TIP3   OH223919   5.191   4.777   2.414  0.0576  0.4385  0.3121
  787TIP3    H123920   5.145   4.710   2.362  0.8552  1.2804 -1.5764
  787TIP3    H223921   5.126   4.805   2.479 -0.3536 -2.0110  1.0866
  788TIP3   OH223922   3.716   2.153   0.550  0.5223 -0.1150 -0.9379
  788TIP3    H123923   3.801   2.110   0.558  0.4835  0.1051  1.4163
  788TIP3    H223924   3.722   2.204   0.470  4.3999  3.5692  1.3122
  789TIP3   OH223925   0.680   1.051   2.272 -0.3496 -0.6409  0.7329
  789TIP3    H123926   0.588   1.041   2.297 -0.2495  0.0201  1.4207
  789TIP3    H223927   0.728   1.034   2.353 -0.0316  2.0563  1.2036
  790TIP3   OH223928   5.662   4.234   9.039  0.5443 -0.2050  0.2333
  790TIP3    H123929   5.742   4.274   9.073  0.8045  0.0119 -0.5997
  790TIP3    H223930   5.618   4.198   9.116  1.2911 -0.0555  0.7392
  791TIP3   OH223931   4.242   1.329   2.322 -0.2272  0.5161 -0.1097
  791TIP3    H123932   4.280   1.407   2.363 -2.3628  1.7783 -0.3569
  791TIP3    H223933   4.148   1.345   2.323 -0.6787 -1.7148 -0.9469
  792TIP3   OH223934   5.040   3.305   1.795  0.2667 -0.2563 -0.3421
  792TIP3    H123935   5.086   3.365   1.737 -1.4713  0.3903 -1.1031
  792TIP3    H223936   4.958   3.285   1.750  0.8750 -3.4714 -0.2753
  793TIP3   OH223937   2.782   4.002   1.622  0.1267 -0.0031 -0.2661
  793TIP3    H123938   2.712   3.968   1.678 -0.1107  1.0854  0.1212
  793TIP3    H223939   2.737   4.026   1.541  0.1763  0.0530 -0.2766
  794TIP3   OH223940   5.350   4.329   1.729 -0.5869  0.2092  0.1085
  794TIP3    H123941   5.403   4.299   1.654 -1.6461  1.1163 -1.0396
  794TIP3    H223942   5.305   4.250   1.759 -1.3792  0.1178 -1.2417
  795TIP3   OH223943   5.539   1.538   8.534  0.0145  0.3813 -0.1219
  795TIP3    H123944   5.541   1.564   8.442 -0.4735 -0.8892 -0.5097
  795TIP3    H223945   5.453   1.567   8.565 -0.1877  0.0092 -0.3241
  796TIP3   OH223946   4.057   3.363   1.094 -0.0524 -0.4484 -0.3251
  796TIP3    H123947   4.062   3.393   1.185 -1.3372  0.8299 -0.6416
  796TIP3    H223948   4.143   3.384   1.057 -0.3946  1.4823 -0.1101
  797TIP3   OH223949   2.756   3.401   0.740 -0.0417 -0.3873 -0.9056
  797TIP3    H123950   2.687   3.455   0.777 -0.7188 -1.7705 -0.0525
  797TIP3    H223951   2.812   3.378   0.814  0.3699 -0.6619 -1.2913
  798TIP3   OH223952   1.036   2.157   1.374 -0.0239 -0.0764  0.6756
  798TIP3    H123953   1.123   2.195   1.364 -0.8885  1.5161 -1.9453
  798TIP3    H223954   1.050   2.062   1.368  1.4793  0.1822 -0.3333
  799TIP3   OH223955   3.185   0.898   9.082  0.4159 -0.1592  0.7233
  799TIP3    H123956   3.191   0.901   8.987 -1.3756  1.3894  0.5933
  799TIP3    H223957   3.234   0.820   9.107  1.2166 -0.4084 -1.4244
  800TIP3   OH223958   0.427   4.801   9.087 -0.4729 -0.5902 -0.3812
  800TIP3    H123959   0.369   4.752   9.145 -1.3580  2.2506  1.3499
  800TIP3    H223960   0.411   4.764   9.000 -2.2611 -2.2265  0.5632
  801TIP3   OH223961   4.713   0.268   8.275  0.0602 -0.3998 -0.2533
  801TIP3    H123962   4.798   0.227   8.257  0.9688  0.5376  1.6153
  801TIP3    H223963   4.685   0.303   8.191  2.0015  0.1053 -0.7369
  802TIP3   OH223964   1.793   4.386   0.636 -0.1709 -0.0604  0.3705
  802TIP3    H123965   1.731   4.365   0.566  2.2646 -2.5427 -1.2769
  802TIP3    H223966   1.803   4.481   0.633  0.5401 -0.1036 -3.4302
  803TIP3   OH223967   6.586   3.829   1.125 -0.1992  0.3369 -0.2226
  803TIP3    H123968   6.494   3.813   1.101 -0.3185 -1.3129  1.0868
  803TIP3    H223969   6.612   3.748   1.170  1.4620  1.3426  0.6901
  804TIP3   OH223970   1.697   3.610   8.436 -0.3117 -0.2293  0.3284
  804TIP3    H123971   1.612   3.590   8.398 -0.1169 -2.6565  0.9979
  804TIP3    H223972   1.686   3.695   8.477 -2.4266 -0.5101  0.4460
  805TIP3   OH223973   6.709   0.482   2.431  0.0560 -0.1553 -0.5722
  805TIP3    H123974   6.617   0.500   2.410  0.3198  1.0608 -0.7501
  805TIP3    H223975   6.705   0.425   2.508 -0.8461 -0.1294 -0.5898
  806TIP3   OH223976   1.422   5.080   2.521 -0.2935  0.1583  0.1163
  806TIP3    H123977   1.381   5.042   2.599 -1.3717  0.6420 -0.2076
  806TIP3    H223978   1.352   5.127   2.477 -0.2421 -1.8576 -2.3081
  807TIP3   OH223979   5.406   4.968   9.022 -0.3472 -0.0453 -0.1773
  807TIP3    H123980   5.387   5.017   9.102  1.5250  1.5435 -0.6360
  807TIP3    H223981   5.322   4.965   8.976 -1.3704 -0.6415  1.6137
  808TIP3   OH223982   1.881   0.055   8.949  0.3065  0.3711 -0.1893
  808TIP3    H123983   1.936   0.132   8.963 -0.8785  1.3864 -0.8305
  808TIP3    H223984   1.817   0.058   9.020  0.7331 -0.4961  0.2468
  809TIP3   OH223985   1.383   5.789   2.581  0.1328 -0.3082 -0.4093
  809TIP3    H123986   1.300   5.749   2.607  0.4773 -0.8131 -0.0734
  809TIP3    H223987   1.437   5.787   2.661  0.5372 -0.1712 -0.6750
  810TIP3   OH223988   4.715   2.188   1.017 -0.5109 -0.5403  0.0538
  810TIP3    H123989   4.748   2.174   1.106 -1.1152 -0.1327  0.3436
  810TIP3    H223990   4.720   2.102   0.976 -0.1385 -0.7098  0.4476
  811TIP3   OH223991   3.768   3.652   0.032  0.3858  0.0796  0.5136
  811TIP3    H123992   3.706   3.632  -0.038  0.8722  1.4454 -0.3648
  811TIP3    H223993   3.840   3.697  -0.012 -0.4669  3.4059  2.1124
  812TIP3   OH223994   2.669   0.186   0.811  0.4577 -0.1264  0.0009
  812TIP3    H123995   2.623   0.148   0.886  0.8599  0.1778  0.4008
  812TIP3    H223996   2.735   0.121   0.788  0.0966 -0.3866 -0.3298
  813TIP3   OH223997   6.008   1.184   7.734 -0.3005  0.3076 -0.4527
  813TIP3    H123998   6.095   1.168   7.771  0.0486 -0.0988 -1.4271
  813TIP3    H223999   5.991   1.276   7.752 -0.4468 -0.0095  1.3124
  814TIP3   OH224000   0.199   0.768   7.779  0.0203  0.8141 -0.3367
  814TIP3    H124001   0.164   0.733   7.697  1.8330  0.8948 -1.1974
  814TIP3    H224002   0.208   0.692   7.835  0.2385  0.5036 -0.7850
  815TIP3   OH224003   3.677   4.802   0.349 -0.0826 -0.4314 -0.5370
  815TIP3    H124004   3.757   4.804   0.297 -0.6539 -0.9685 -1.4474
  815TIP3    H224005   3.669   4.711   0.377  0.1167 -0.1872  0.3521
  816TIP3   OH224006   3.804   5.557   8.363 -0.2792  0.2002 -0.6564
  816TIP3    H124007   3.815   5.557   8.268 -3.1313  0.3987 -1.0747
  816TIP3    H224008   3.711   5.542   8.376  0.0766 -0.0200  2.1449
  817TIP3   OH224009   1.003   3.859   7.205 -0.4384 -0.1509  0.9106
  817TIP3    H124010   0.939   3.920   7.241  0.4336  2.2138 -1.2560
  817TIP3    H224011   1.088   3.898   7.226  0.2804 -1.8795  1.4617
  818TIP3   OH224012   0.526   3.588   0.940  0.0887  0.0844 -0.0266
  818TIP3    H124013   0.508   3.677   0.909 -1.7771 -1.0869 -2.6412
  818TIP3    H224014   0.468   3.578   1.016 -0.1558  0.8654 -0.0941
  819TIP3   OH224015   6.119   5.856   0.570  0.7696 -0.2027  1.1702
  819TIP3    H124016   6.141   5.937   0.617 -1.6638 -0.2110  2.5058
  819TIP3    H224017   6.153   5.786   0.625  1.5627 -0.1357  0.7754
  820TIP3   OH224018   0.289   2.729   1.225  0.0919 -0.0818 -0.1272
  820TIP3    H124019   0.276   2.820   1.203  0.2757  0.2722  1.1137
  820TIP3    H224020   0.347   2.695   1.157 -2.0974 -0.0336 -2.1281
  821TIP3   OH224021   5.391   0.732   0.076  0.8633 -0.5456  0.1321
  821TIP3    H124022   5.309   0.779   0.061  0.6401 -1.2442 -0.9708
  821TIP3    H224023   5.363   0.649   0.114  1.0657 -0.7436 -0.1532
  822TIP3   OH224024   3.804   2.326   0.256  0.1522 -0.0623  0.2750
  822TIP3    H124025   3.847   2.367   0.181 -0.7712 -0.0681 -0.2593
  822TIP3    H224026   3.799   2.397   0.321  0.8829 -0.0385  0.3226
  823TIP3   OH224027   4.422   2.108   7.351 -0.1086 -0.0165 -0.3920
  823TIP3    H124028   4.509   2.077   7.326  0.5550  1.0362  0.5044
  823TIP3    H224029   4.377   2.123   7.268  2.0614  3.4703 -1.1316
  824TIP3   OH224030   2.243   0.582   2.787 -0.4107  0.2455  0.5625
  824TIP3    H124031   2.316   0.571   2.726  1.4534 -0.0868  2.6969
  824TIP3    H224032   2.258   0.667   2.827 -2.7168  1.3527 -0.7287
  825TIP3   OH224033   5.009   4.528   7.896 -0.7330  0.1359 -0.1348
  825TIP3    H124034   5.089   4.557   7.852  1.0947 -1.4610  1.8506
  825TIP3    H224035   4.958   4.607   7.909  0.8986  1.3442 -0.7922
  826TIP3   OH224036   4.663   6.709   0.633  0.0599  0.4688  0.2078
  826TIP3    H124037   4.624   6.789   0.597  0.2457  0.3144 -0.3593
  826TIP3    H224038   4.595   6.670   0.686  0.0261  1.1035  0.6401
  827TIP3   OH224039   2.927   3.899   7.694 -0.0962  0.0944 -0.2231
  827TIP3    H124040   2.939   3.882   7.601 -2.0006 -0.0215 -0.4894
  827TIP3    H224041   2.877   3.824   7.726 -0.9968  0.9615  0.4762
  828TIP3   OH224042   1.959   2.515   0.284  0.3617  0.0640 -0.3787
  828TIP3    H124043   1.905   2.494   0.360  0.7700 -0.1492 -0.1460
  828TIP3    H224044   1.917   2.591   0.245  0.4958  0.5474  0.4084
  829TIP3   OH224045   2.905   0.248   8.433 -0.0068  0.8238 -0.1413
  829TIP3    H124046   2.892   0.289   8.519 -0.5343  1.6941 -0.6290
  829TIP3    H224047   2.997   0.262   8.414  0.2173  0.2423  0.4759
  830TIP3   OH224048   1.585   1.408   0.286 -0.4022  0.8140 -0.5939
  830TIP3    H124049   1.515   1.374   0.341  0.4311 -1.0492 -0.6052
  830TIP3    H224050   1.631   1.470   0.342  0.1731 -0.7294  0.7205
  831TIP3   OH224051   6.549   5.827   1.261  0.3914 -0.2330  0.1642
  831TIP3    H124052   6.486   5.892   1.231 -2.2409 -1.1067  3.2836
  831TIP3    H224053   6.602   5.873   1.326  1.0650 -0.2573 -0.3604
  832TIP3   OH224054   3.435   2.016   8.193 -0.3099  0.5801 -0.0564
  832TIP3    H124055   3.507   1.953   8.193 -1.2497 -0.5367  1.1354
  832TIP3    H224056   3.419   2.034   8.100  0.4845 -0.3440 -0.3893
  833TIP3   OH224057   0.694   5.776   7.587  0.2693 -0.0977 -0.8337
  833TIP3    H124058   0.648   5.777   7.671  1.2994  1.2628 -0.2500
  833TIP3    H224059   0.631   5.814   7.525 -0.4020 -0.8770 -0.6460
  834TIP3   OH224060   1.227   2.745   7.814 -0.2407 -0.0729  0.4452
  834TIP3    H124061   1.245   2.669   7.870 -0.2010  0.1898  0.7925
  834TIP3    H224062   1.214   2.708   7.727  2.9270 -0.2572 -0.0778
  835TIP3   OH224063   3.824   5.386   2.439 -0.1913  0.0177 -0.3295
  835TIP3    H124064   3.729   5.394   2.427 -0.2308 -0.2437 -0.1830
  835TIP3    H224065   3.861   5.442   2.371 -0.4465 -0.2770 -0.7169
  836TIP3   OH224066   1.859   1.683   8.387  0.6152 -0.2325  0.5359
  836TIP3    H124067   1.889   1.700   8.298 -0.3248  1.4217  0.4949
  836TIP3    H224068   1.937   1.651   8.433  1.8110  1.4302 -0.2322
  837TIP3   OH224069   0.073   5.498   0.807 -0.1640 -0.0808 -0.4833
  837TIP3    H124070   0.039   5.418   0.846  1.5457 -0.2762  0.7532
  837TIP3    H224071   0.090   5.556   0.882  3.5769 -0.6023 -0.7192
  838TIP3   OH224072   1.223   0.280   6.940  0.2688  0.1221  0.0896
  838TIP3    H124073   1.242   0.367   6.906  0.0800 -0.5824 -1.9496
  838TIP3    H224074   1.131   0.282   6.965  0.2170  0.4752 -0.1295
  839TIP3   OH224075   1.766   0.717   1.668  0.0357  0.0159 -0.0759
  839TIP3    H124076   1.819   0.787   1.629 -0.6630  0.3108 -0.5138
  839TIP3    H224077   1.787   0.720   1.761 -1.0891  1.8176  0.1780
  840TIP3   OH224078   1.560   4.126   7.281 -0.2740 -0.4924  0.0088
  840TIP3    H124079   1.645   4.132   7.236 -1.5145 -0.4996 -2.4876
  840TIP3    H224080   1.571   4.053   7.342  0.4889 -2.9445 -2.8323
  841TIP3   OH224081   4.075   3.720   6.777 -0.5133 -0.3485  0.2227
  841TIP3    H124082   4.065   3.709   6.872 -0.0338  1.3997  0.5209
  841TIP3    H224083   4.166   3.746   6.765 -0.6148 -0.3698 -0.6932
  842TIP3   OH224084   5.274   1.543   1.036 -0.3757  0.4301 -0.4921
  842TIP3    H124085   5.361   1.568   1.066 -0.4429  0.7850 -0.5882
  842TIP3    H224086   5.259   1.457   1.075 -0.9358  1.3665  1.4821
  843TIP3   OH224087   3.540   1.713   2.383 -0.2600 -0.1712 -0.1795
  843TIP3    H124088   3.624   1.749   2.411 -0.0095 -1.2401  0.5179
  843TIP3    H224089   3.543   1.621   2.410 -1.2615 -0.4759 -1.0298
  844TIP3   OH224090   5.611   4.653   2.866 -0.1137 -0.2838  0.1767
  844TIP3    H124091   5.701   4.681   2.853 -0.0630 -0.9032 -0.9892
  844TIP3    H224092   5.615   4.589   2.937  0.6512 -1.5603 -0.9615
  845TIP3   OH224093   0.343   0.083   2.064  0.1868 -0.2126 -0.4811
  845TIP3    H124094   0.355   0.073   1.970 -0.4900  0.1443 -0.6058
  845TIP3    H224095   0.366  -0.003   2.100 -1.4953 -0.9907 -1.1571
  846TIP3   OH224096   5.880   2.451   7.817 -0.0983  0.0169  0.3510
  846TIP3    H124097   5.857   2.359   7.832 -0.7647 -0.2691 -2.0142
  846TIP3    H224098   5.862   2.465   7.724  2.2148  1.9056  0.1040
  847TIP3   OH224099   4.942   6.185   1.274 -0.4095  0.3499  0.4903
  847TIP3    H124100   5.002   6.213   1.342  2.3637  1.7895 -2.3210
  847TIP3    H224101   4.981   6.105   1.239  0.3112  1.5906 -1.7321
  848TIP3   OH224102   3.461   2.931   1.385 -0.0846  0.1376  0.2252
  848TIP3    H124103   3.528   2.993   1.356 -0.1084  0.4914  0.9359
  848TIP3    H224104   3.495   2.896   1.467  0.5752 -1.7897 -0.7981
  849TIP3   OH224105   4.676   5.309   1.130 -0.3910  0.6530 -0.1265
  849TIP3    H124106   4.714   5.358   1.057 -1.6490 -0.8626 -1.8874
  849TIP3    H224107   4.582   5.326   1.124 -0.6367 -0.4271  0.4060
  850TIP3   OH224108   6.203   5.931   1.345  0.8581 -0.6735 -0.3298
  850TIP3    H124109   6.269   5.998   1.366 -0.1996  0.4115 -0.3490
  850TIP3    H224110   6.254   5.858   1.309  2.0201  0.2862 -0.7206
  851TIP3   OH224111   4.335   1.874   7.481 -0.1050  0.2181  0.2825
  851TIP3    H124112   4.415   1.926   7.485  0.9638 -1.4364  1.6117
  851TIP3    H224113   4.288   1.909   7.406  0.1079  3.6519  1.5742
  852TIP3   OH224114   1.244   3.025   7.819 -0.3567  0.3064 -0.0016
  852TIP3    H124115   1.178   3.062   7.878 -0.2418 -0.5795  0.6996
  852TIP3    H224116   1.229   2.931   7.821 -0.5713  0.2768 -1.6756
  853TIP3   OH224117   2.663   0.489   1.684 -0.2662 -0.5672 -0.6752
  853TIP3    H124118   2.691   0.570   1.727  0.0753  0.1648 -2.2115
  853TIP3    H224119   2.681   0.420   1.748  2.4685  0.1767 -0.5229
  854TIP3   OH224120   2.330   0.218   3.692  0.3142 -0.2057 -0.0575
  854TIP3    H124121   2.243   0.248   3.720  0.7942  1.5311 -0.3186
  854TIP3    H224122   2.340   0.133   3.734 -0.8651  0.2703  1.2766
  855TIP3   OH224123   5.786   5.367   7.935  0.3036  0.0189  0.1705
  855TIP3    H124124   5.808   5.404   8.020  0.3840  0.5229 -0.0713
  855TIP3    H224125   5.702   5.324   7.950  0.3912 -0.0325  0.5425
  856TIP3   OH224126   5.599   2.951   7.494  0.5123  0.1001  0.4872
  856TIP3    H124127   5.609   3.028   7.550  0.1924 -0.1780  0.9398
  856TIP3    H224128   5.625   2.878   7.550  1.3097 -0.0739 -0.1020
  857TIP3   OH224129   2.641   4.293   1.596  0.2611 -0.8457 -0.1828
  857TIP3    H124130   2.665   4.231   1.666 -0.7160 -1.6040 -0.4991
  857TIP3    H224131   2.721   4.343   1.581  0.9049 -1.6247  0.5099
  858TIP3   OH224132   2.364   0.882   1.269  0.5674 -0.3013  0.1904
  858TIP3    H124133   2.394   0.836   1.348  1.7501  0.3030  0.1266
  858TIP3    H224134   2.366   0.816   1.200 -0.5477 -0.8545  0.6686
  859TIP3   OH224135   3.031   1.390   0.146  0.5893  0.1518 -0.0296
  859TIP3    H124136   3.118   1.429   0.146 -0.7186  3.4383 -0.0184
  859TIP3    H224137   3.015   1.367   0.055  1.3297 -0.1711 -0.0849
  860TIP3   OH224138   4.835   1.675   8.870  0.5196  0.1489  0.0496
  860TIP3    H124139   4.906   1.655   8.808  1.1789  1.6115  0.2747
  860TIP3    H224140   4.880   1.684   8.954 -0.2423 -0.8822  0.5850
  861TIP3   OH224141   5.312   1.718   8.432 -0.3810  1.0484 -0.6071
  861TIP3    H124142   5.284   1.743   8.519  1.2753  1.0149 -0.0193
  861TIP3    H224143   5.283   1.627   8.422  0.4979  0.6313  0.4327
  862TIP3   OH224144   3.209   1.728   2.068  0.4685 -0.1268 -0.2688
  862TIP3    H124145   3.116   1.734   2.050  0.5742  1.1530 -0.5174
  862TIP3    H224146   3.221   1.777   2.149  0.7459 -1.4349  0.5067
  863TIP3   OH224147   4.096   4.430   7.874 -0.0095  0.1463 -0.2429
  863TIP3    H124148   4.179   4.397   7.839 -0.8405 -1.4899 -0.8102
  863TIP3    H224149   4.103   4.525   7.868  0.0133  0.0639 -4.7444
  864TIP3   OH224150   1.623   6.617   1.973 -0.9390 -0.0576  0.1904
  864TIP3    H124151   1.555   6.555   1.945  0.8535 -2.6145  1.1360
  864TIP3    H224152   1.638   6.596   2.065  2.9354 -1.5309 -0.6115
  865TIP3   OH224153   4.526   6.280   2.747 -0.1909  0.1338  0.0806
  865TIP3    H124154   4.553   6.211   2.807 -0.4649 -0.3998 -0.4053
  865TIP3    H224155   4.596   6.345   2.753  0.4383 -0.5233 -0.0146
  866TIP3   OH224156   3.745   3.371   2.542 -0.0328 -0.6581 -0.0781
  866TIP3    H124157   3.738   3.433   2.614  0.4474 -0.4176 -0.2324
  866TIP3    H224158   3.657   3.337   2.530 -0.5108  0.7190 -0.6237
  867TIP3   OH224159   0.863   0.666   1.831 -0.4648 -0.2032 -0.2137
  867TIP3    H124160   0.769   0.684   1.822 -0.9714 -1.9614  0.9250
  867TIP3    H224161   0.906   0.749   1.809 -2.2896  0.7256 -0.4843
  868TIP3   OH224162   6.270   2.807   1.979  0.2106 -0.4826 -0.5015
  868TIP3    H124163   6.254   2.797   1.886 -1.2680  0.9913 -0.4547
  868TIP3    H224164   6.253   2.899   1.997  2.2312 -0.3177  0.9214
  869TIP3   OH224165   6.594   4.966   8.678 -0.6788 -0.3651 -0.1021
  869TIP3    H124166   6.528   4.935   8.741  0.1228 -2.1920 -0.1187
  869TIP3    H224167   6.602   4.895   8.614  0.1065  0.5450 -1.0435
  870TIP3   OH224168   5.232   0.161   1.061  0.5534 -0.5902  0.3355
  870TIP3    H124169   5.181   0.236   1.032 -1.1157 -2.2235 -1.2112
  870TIP3    H224170   5.291   0.196   1.128 -2.3231  1.4782  1.9947
  871TIP3   OH224171   5.741   0.479   1.045  0.5066  0.7631  0.0642
  871TIP3    H124172   5.762   0.449   0.957 -1.2351  0.5131 -0.3032
  871TIP3    H224173   5.718   0.572   1.034 -1.6509  0.2685 -0.1444
  872TIP3   OH224174   0.958   3.025   2.416  0.6649  0.3055  0.2187
  872TIP3    H124175   1.020   2.957   2.442  0.4580 -0.4962 -1.2491
  872TIP3    H224176   0.882   2.976   2.382  0.1820  1.2672 -0.1204
  873TIP3   OH224177   5.274   1.316   1.204  0.2874  0.3038  0.1253
  873TIP3    H124178   5.202   1.254   1.221 -1.2558  2.1593  0.7495
  873TIP3    H224179   5.331   1.308   1.280  1.5835 -2.1778 -0.9974
  874TIP3   OH224180   2.280   4.195   1.492  0.1088  0.0709  0.4239
  874TIP3    H124181   2.364   4.211   1.535 -0.1448 -0.1794  1.0110
  874TIP3    H224182   2.214   4.208   1.560 -0.5187  2.4524 -0.5112
  875TIP3   OH224183   3.710   1.823   1.664 -0.0167 -0.2675  0.1174
  875TIP3    H124184   3.706   1.788   1.575  2.8889  1.2161 -0.7518
  875TIP3    H224185   3.743   1.913   1.652 -0.6266  0.3706  2.6390
  876TIP3   OH224186   5.250   0.125   1.438 -0.1942  0.3101 -0.1165
  876TIP3    H124187   5.318   0.192   1.442 -0.4135  0.4903  0.6188
  876TIP3    H224188   5.265   0.081   1.354  0.3952  0.8032 -0.2751
  877TIP3   OH224189   3.058   5.047   0.527 -0.5842 -0.0026 -0.0278
  877TIP3    H124190   3.059   5.005   0.613  0.1190  3.5821  1.9319
  877TIP3    H224191   3.150   5.071   0.511 -0.5074 -1.5591 -2.4142
  878TIP3   OH224192   0.517   6.587   7.942  0.2076  0.1689 -0.3771
  878TIP3    H124193   0.566   6.634   8.010  0.2171 -1.7272  1.0207
  878TIP3    H224194   0.436   6.562   7.986 -1.1590  1.4702 -2.0335
  879TIP3   OH224195   4.405   3.103   8.585 -0.2658 -0.0830  0.0946
  879TIP3    H124196   4.458   3.122   8.507  0.2314 -0.8563  0.2224
  879TIP3    H224197   4.354   3.025   8.560 -0.6069  0.0725  0.3096
  880TIP3   OH224198   3.550   2.969   0.217 -0.2923 -0.1287  0.1737
  880TIP3    H124199   3.472   2.981   0.272 -0.8959 -0.6630 -0.5441
  880TIP3    H224200   3.623   2.974   0.278 -0.9485 -0.6776  1.0256
  881TIP3   OH224201   3.911   4.005   1.533  0.3947 -0.5655  0.0719
  881TIP3    H124202   4.001   3.992   1.503  1.1041  0.0472  1.8121
  881TIP3    H224203   3.876   3.916   1.541  0.9459 -0.8237 -0.2999
  882TIP3   OH224204   4.242   2.912   0.674 -0.2163 -0.2951 -0.0963
  882TIP3    H124205   4.222   2.951   0.759  0.8833  0.4057 -0.1451
  882TIP3    H224206   4.170   2.851   0.659 -1.3866  0.8620  0.5186
  883TIP3   OH224207   1.858   3.487   8.148 -0.4883 -0.5724  0.1047
  883TIP3    H124208   1.914   3.466   8.074 -0.4819 -1.2132  0.2845
  883TIP3    H224209   1.837   3.580   8.137 -1.4460 -0.9278 -1.3482
  884TIP3   OH224210   2.901   3.545   0.513  0.1042 -0.4771  0.6416
  884TIP3    H124211   2.868   3.495   0.588 -2.2381 -0.4292 -0.2987
  884TIP3    H224212   2.861   3.503   0.437 -0.6029  1.7744 -0.3035
  885TIP3   OH224213   3.402   2.176   7.347  0.4076 -0.5152  0.2574
  885TIP3    H124214   3.380   2.240   7.279  1.3514 -0.3847  0.0709
  885TIP3    H224215   3.317   2.150   7.383  0.0153  0.8341  0.3317
  886TIP3   OH224216   4.105   1.170   2.649 -0.5515  0.4708  0.1023
  886TIP3    H124217   4.182   1.209   2.691  0.5954 -0.9517 -0.5740
  886TIP3    H224218   4.079   1.234   2.582 -0.6480  1.4558  1.0612
  887TIP3   OH224219   3.973   0.897   0.505  0.0501  0.2118  0.2347
  887TIP3    H124220   3.902   0.888   0.441  0.0791  1.1020  0.0685
  887TIP3    H224221   3.941   0.961   0.567 -0.2126 -1.0710  1.4759
  888TIP3   OH224222   1.102   5.888   1.247 -0.5172  0.2057 -0.0216
  888TIP3    H124223   1.010   5.870   1.230 -0.4074  1.5678 -2.5261
  888TIP3    H224224   1.146   5.803   1.239 -1.4573 -0.3480  0.6018
  889TIP3   OH224225   5.801   5.287   7.657 -0.1943  0.4763 -0.3031
  889TIP3    H124226   5.883   5.237   7.653  0.1453  0.9830  0.1421
  889TIP3    H224227   5.806   5.334   7.740 -1.0390  0.3481 -0.1734
  890TIP3   OH224228   1.002   6.391   3.192  0.0043  0.0429 -0.1975
  890TIP3    H124229   1.067   6.349   3.248 -0.2453 -0.7828 -0.5136
  890TIP3    H224230   0.919   6.354   3.219 -0.0404 -0.9562 -1.6158
  891TIP3   OH224231   1.686   0.094   0.038  0.2125  0.3372 -0.0289
  891TIP3    H124232   1.773   0.076   0.074 -0.0992  1.6160  1.4793
  891TIP3    H224233   1.627   0.038   0.089 -0.0384  0.8322  0.2336
  892TIP3   OH224234   0.812   2.025   8.980 -0.0194 -0.2653 -0.3502
  892TIP3    H124235   0.792   2.084   9.053 -2.4414 -0.3658 -0.8564
  892TIP3    H224236   0.846   1.946   9.023 -0.1836  0.1485  0.5801
  893TIP3   OH224237   2.053   0.669   3.069 -0.2616  0.3269 -0.1976
  893TIP3    H124238   2.144   0.697   3.060 -0.5727  2.2791  1.9901
  893TIP3    H224239   2.027   0.698   3.156 -3.5160  1.4305 -1.3920
  894TIP3   OH224240   6.143   0.187   0.658 -0.4957  0.2367  0.1393
  894TIP3    H124241   6.052   0.217   0.654 -1.7646 -3.1742  0.2686
  894TIP3    H224242   6.151   0.148   0.745  0.8683 -0.1093 -0.1254
  895TIP3   OH224243   1.229   2.256   7.548  0.0096 -0.1230 -0.0981
  895TIP3    H124244   1.147   2.211   7.567  0.1327 -1.1670 -1.8723
  895TIP3    H224245   1.214   2.300   7.465  0.2841  2.2600  1.0244
  896TIP3   OH224246   0.719   0.444   7.301 -0.0089 -0.1853 -0.1661
  896TIP3    H124247   0.781   0.373   7.319 -1.2424 -1.3612 -0.3200
  896TIP3    H224248   0.773   0.517   7.272  1.4960 -0.3180  2.0658
  897TIP3   OH224249   0.410   5.466   7.325 -0.0478 -0.2063  0.2047
  897TIP3    H124250   0.358   5.395   7.362  0.0083 -0.4470 -0.1722
  897TIP3    H224251   0.374   5.480   7.237 -0.3807  0.5691  0.4529
  898TIP3   OH224252   0.009   1.851   8.274  0.1388 -0.0304  0.1578
  898TIP3    H124253   0.097   1.821   8.251  0.2749  1.4108 -1.3824
  898TIP3    H224254  -0.026   1.889   8.194 -1.0198  1.4523  1.2888
  899TIP3   OH224255   3.879   2.371   8.479 -0.2418  0.0938  0.4947
  899TIP3    H124256   3.943   2.428   8.437 -0.1887  0.8520  1.5784
  899TIP3    H224257   3.814   2.353   8.411  0.5715  0.1654 -0.3093
  900TIP3   OH224258   3.152   5.662   2.903  0.2601  0.0655 -0.1102
  900TIP3    H124259   3.070   5.621   2.930  1.3694 -1.1976  1.5555
  900TIP3    H224260   3.127   5.722   2.833 -1.8926 -1.1850 -0.4911
  901TIP3   OH224261   2.714   3.768   8.753 -0.1632  0.2429  0.0145
  901TIP3    H124262   2.810   3.764   8.760 -0.1619 -3.0098 -0.5468
  901TIP3    H224263   2.686   3.813   8.833  1.7915  0.9973  0.3343
  902TIP3   OH224264   0.680   2.831   1.145 -0.1790  0.2956 -0.5679
  902TIP3    H124265   0.735   2.899   1.185 -0.8500  0.4677  0.0864
  902TIP3    H224266   0.659   2.866   1.058  1.0290  0.0617 -0.9739
  903TIP3   OH224267   6.177   4.980   7.572  0.0353  0.5014 -0.5902
  903TIP3    H124268   6.119   4.908   7.548 -0.6774  1.6856 -2.6010
  903TIP3    H224269   6.121   5.042   7.619 -0.1222  1.2054 -1.6893
  904TIP3   OH224270   3.344   1.285   1.347  0.1122  0.0582  0.1166
  904TIP3    H124271   3.285   1.311   1.418 -0.2883  1.1928 -0.6033
  904TIP3    H224272   3.285   1.262   1.275  0.5338  0.2265 -0.2870
  905TIP3   OH224273   0.296   4.245   7.596  0.1316 -0.3995  0.4996
  905TIP3    H124274   0.270   4.234   7.505 -0.5575 -0.1492  0.6651
  905TIP3    H224275   0.381   4.201   7.602  1.2518  1.4313 -0.7816
  906TIP3   OH224276   6.264   3.061   8.425  0.2006 -0.0332 -0.3232
  906TIP3    H124277   6.290   2.997   8.359 -0.5393  0.3748 -1.0265
  906TIP3    H224278   6.169   3.055   8.429  0.1457  0.8103 -0.1735
  907TIP3   OH224279   0.706   2.116   0.364  0.5059  0.2639 -0.2343
  907TIP3    H124280   0.692   2.074   0.448 -1.7757  1.2963 -0.0099
  907TIP3    H224281   0.655   2.063   0.302 -2.4486  2.4834  0.0586
  908TIP3   OH224282   3.634   3.052   2.132  0.1370  0.2032  0.3026
  908TIP3    H124283   3.615   3.124   2.193  1.2017  0.7600 -0.0068
  908TIP3    H224284   3.729   3.041   2.137 -0.0427 -1.4198  0.5983
  909TIP3   OH224285   5.445   0.549   1.166  0.5469 -0.3211 -0.2522
  909TIP3    H124286   5.492   0.590   1.093 -0.0985 -0.2754 -0.6511
  909TIP3    H224287   5.451   0.613   1.237  0.7584 -0.1527 -0.4196
  910TIP3   OH224288   1.671   2.853   1.609 -0.1511  0.4557  0.1460
  910TIP3    H124289   1.588   2.901   1.610 -1.2536 -1.1926 -2.4616
  910TIP3    H224290   1.646   2.761   1.620  1.5376  0.0489  1.0332
  911TIP3   OH224291   2.701   1.783   2.138  0.1480 -0.1433  0.1010
  911TIP3    H124292   2.776   1.794   2.195  1.0129 -0.9054 -0.8418
  911TIP3    H224293   2.644   1.857   2.158  0.3161 -0.4945  2.0743
  912TIP3   OH224294   3.788   6.094   7.789  0.3380  0.3245  0.1080
  912TIP3    H124295   3.789   6.148   7.710 -0.0443 -0.1200 -0.2046
  912TIP3    H224296   3.795   6.005   7.757 -0.7581  0.0843  0.5212
  913TIP3   OH224297   6.205   0.119   1.864  0.8935  0.0128 -0.2679
  913TIP3    H124298   6.179   0.123   1.772 -1.6237  2.0891  0.4110
  913TIP3    H224299   6.155   0.046   1.900  1.3922 -0.3943 -0.3848
  914TIP3   OH224300   5.392   5.987   9.004 -0.6911 -0.0712 -0.2324
  914TIP3    H124301   5.339   6.037   8.942  0.2266  0.5852 -0.5044
  914TIP3    H224302   5.360   6.014   9.090  1.4737  3.0365 -0.2480
  915TIP3   OH224303   0.731   4.860   1.123 -0.0130 -0.4159 -0.7342
  915TIP3    H124304   0.662   4.925   1.107  1.0927  1.4913  1.5879
  915TIP3    H224305   0.808   4.896   1.079 -0.2870 -2.3476 -2.9968
  916TIP3   OH224306   5.335   5.506   1.477 -0.3787  0.0280  0.3991
  916TIP3    H124307   5.293   5.482   1.395  0.0996 -2.6916  0.8304
  916TIP3    H224308   5.264   5.507   1.541 -0.2789 -1.6366  0.5870
  917TIP3   OH224309   6.457   5.348   1.995 -0.1117  0.0899  0.5572
  917TIP3    H124310   6.546   5.385   1.988 -0.9116  2.3672  1.3207
  917TIP3    H224311   6.469   5.254   1.987  2.4522  0.2868  1.2669
  918TIP3   OH224312   0.198   3.114   8.996 -0.2995 -0.2192  0.2459
  918TIP3    H124313   0.171   3.189   9.051 -0.9665 -0.2115 -0.0819
  918TIP3    H224314   0.272   3.147   8.946 -0.9870  0.4439 -0.3670
  919TIP3   OH224315   3.891   4.302   9.098  0.3677 -1.4021  0.1961
  919TIP3    H124316   3.814   4.307   9.155  1.1254 -1.0603  1.2226
  919TIP3    H224317   3.876   4.369   9.031 -0.1662 -1.2460  0.4648
  920TIP3   OH224318   5.242   6.359   7.845  0.0965 -0.5034 -0.0014
  920TIP3    H124319   5.219   6.451   7.860  1.8767  0.1275 -0.8171
  920TIP3    H224320   5.163   6.311   7.867  0.0156  0.9158  3.5660
  921TIP3   OH224321   4.601   5.114   1.826  0.1672 -0.3394 -0.3500
  921TIP3    H124322   4.582   5.085   1.915 -1.8104 -1.8916 -1.1989
  921TIP3    H224323   4.606   5.033   1.775  2.5587  0.4189 -1.4801
  922TIP3   OH224324   4.867   0.465   0.204 -0.2529 -0.0052 -0.3203
  922TIP3    H124325   4.948   0.501   0.239 -1.2745  0.9527  1.1463
  922TIP3    H224326   4.829   0.537   0.153  0.2978 -0.7934 -1.9370
  923TIP3   OH224327   6.165   4.866   0.618  0.0590  0.7581 -0.4919
  923TIP3    H124328   6.216   4.883   0.697  3.9805  2.5807 -3.1179
  923TIP3    H224329   6.197   4.782   0.586  2.3166  2.3068 -2.6132
  924TIP3   OH224330   6.003   5.583   2.530  0.1286 -0.4414 -0.1086
  924TIP3    H124331   6.059   5.518   2.488 -0.0372 -0.2429 -0.6347
  924TIP3    H224332   5.946   5.616   2.461  2.0225  2.2783 -0.5566
  925TIP3   OH224333   2.656   0.589   2.309 -0.3127 -0.3727  0.6290
  925TIP3    H124334   2.674   0.598   2.402  1.5056 -0.1407  0.2925
  925TIP3    H224335   2.690   0.502   2.286  0.0983 -0.0645  0.0224
  926TIP3   OH224336   4.283   2.813   1.755 -0.5826  0.0617  0.1649
  926TIP3    H124337   4.205   2.823   1.810  0.0494  0.6560  0.9772
  926TIP3    H224338   4.255   2.755   1.684 -1.3129 -1.1071  1.3458
  927TIP3   OH224339   2.538   4.527   0.878  0.1543  0.5743  0.0510
  927TIP3    H124340   2.517   4.587   0.806 -1.9526  0.9525  0.8938
  927TIP3    H224341   2.592   4.579   0.937 -0.7377  1.3223  0.2371
  928TIP3   OH224342   0.845   0.541   0.169  0.0013 -0.7659  0.3105
  928TIP3    H124343   0.797   0.471   0.212 -1.0356 -0.7606 -0.7982
  928TIP3    H224344   0.778   0.597   0.131  0.8149  0.6475  0.8459
  929TIP3   OH224345   6.256   5.293   0.130 -0.9441  0.0647  0.2150
  929TIP3    H124346   6.189   5.283   0.062 -2.0592  0.3985  1.2377
  929TIP3    H224347   6.228   5.235   0.200 -0.7629  1.0437  1.1153
  930TIP3   OH224348   4.658   6.009   1.401  0.3441  0.3166  0.1325
  930TIP3    H124349   4.610   5.926   1.395  1.8016 -0.5706  0.2704
  930TIP3    H224350   4.697   6.008   1.488  0.6681  0.9930  0.0059
  931TIP3   OH224351   6.327   3.021   1.275 -0.2100 -0.4242  0.1024
  931TIP3    H124352   6.348   2.928   1.286 -1.3231 -0.4129  3.3254
  931TIP3    H224353   6.235   3.028   1.301 -0.3582  1.4956 -0.7840
  932TIP3   OH224354   0.814   5.070   0.849  0.0867  0.9598  0.1638
  932TIP3    H124355   0.874   5.049   0.921 -0.9115  0.6433  0.9233
  932TIP3    H224356   0.766   5.146   0.881 -0.4027  0.7797 -0.1520
  933TIP3   OH224357   0.154   5.272   2.145 -0.0311  0.1090 -0.2382
  933TIP3    H124358   0.084   5.304   2.203  0.6524 -0.0630  0.6908
  933TIP3    H224359   0.171   5.183   2.175  0.7192  0.2192 -0.3387
  934TIP3   OH224360   1.661   3.946   0.514  0.5133 -0.1203  0.1497
  934TIP3    H124361   1.710   3.918   0.437  3.1669  0.8815  1.3547
  934TIP3    H224362   1.686   3.884   0.583  0.8244  0.9214  1.0163
  935TIP3   OH224363   0.082   6.358   8.713 -0.0600  0.5332 -0.5399
  935TIP3    H124364   0.030   6.278   8.721 -0.3657  0.8158  0.5807
  935TIP3    H224365   0.169   6.329   8.689 -0.3709 -0.0716 -0.9443
  936TIP3   OH224366   3.480   3.629   9.019 -0.5531 -0.1997  0.0104
  936TIP3    H124367   3.413   3.571   8.982 -0.9112 -0.1743  0.5951
  936TIP3    H224368   3.430   3.691   9.073 -0.0174 -0.5118  0.8844
  937TIP3   OH224369   0.385   4.813   2.422  0.1145  0.5598 -0.4567
  937TIP3    H124370   0.423   4.737   2.378 -4.0042 -2.5020  0.6849
  937TIP3    H224371   0.407   4.801   2.514  0.5592  1.5841 -0.4147
  938TIP3   OH224372   5.057   5.334   0.483  0.7940  0.1677  0.0901
  938TIP3    H124373   4.995   5.393   0.441  0.3093 -0.7109 -0.4380
  938TIP3    H224374   5.008   5.253   0.498  1.1890  0.1831  1.6225
  939TIP3   OH224375   6.261   4.338   1.714 -0.2876 -0.0754 -0.1196
  939TIP3    H124376   6.356   4.347   1.728 -0.4914  0.5482  0.9915
  939TIP3    H224377   6.239   4.411   1.657 -0.2004  0.1771  0.1660
  940TIP3   OH224378   0.626   1.750   7.704  0.5738  0.3238  0.5485
  940TIP3    H124379   0.541   1.723   7.737  0.5476  0.7191  0.8159
  940TIP3    H224380   0.609   1.779   7.614  0.3435  0.8085  0.7425
  941TIP3   OH224381   1.225   6.501   2.123 -0.5122  0.7704  0.2071
  941TIP3    H124382   1.177   6.430   2.082 -1.1176  0.1258  1.9395
  941TIP3    H224383   1.182   6.581   2.093 -0.1981  0.4095 -1.2789
  942TIP3   OH224384   4.079   6.201   8.958  0.1841 -0.5434 -0.0817
  942TIP3    H124385   4.170   6.181   8.977 -0.5480 -2.6753  1.5420
  942TIP3    H224386   4.068   6.292   8.988  1.1709 -1.1158  2.2569
  943TIP3   OH224387   4.938   3.431   2.019 -0.2143  0.6564  0.0987
  943TIP3    H124388   4.957   3.367   1.951  1.2593  0.9381  0.2111
  943TIP3    H224389   4.974   3.393   2.099  0.1053  1.3366  0.2858
  944TIP3   OH224390   5.111   6.209   1.498 -0.5200 -0.0021 -0.0366
  944TIP3    H124391   5.189   6.169   1.458 -1.3787 -1.4302 -0.3079
  944TIP3    H224392   5.128   6.206   1.592  0.5075  1.3050 -0.1462
  945TIP3   OH224393   2.241   3.696   6.957 -0.3711  0.1658  0.1289
  945TIP3    H124394   2.326   3.694   7.002 -0.9531  0.5708  1.2773
  945TIP3    H224395   2.220   3.604   6.942 -0.8470 -0.0831  2.0563
  946TIP3   OH224396   6.319   4.807   6.904  0.2710 -0.2388  0.0863
  946TIP3    H124397   6.413   4.806   6.890  0.4293 -0.6595  1.1012
  946TIP3    H224398   6.293   4.715   6.900 -0.3731 -0.0070 -1.8374
  947TIP3   OH224399   2.317   3.258   0.786  0.1741  0.3070 -0.0749
  947TIP3    H124400   2.385   3.195   0.808  0.3149  0.2321 -0.7209
  947TIP3    H224401   2.317   3.320   0.860  0.1993 -0.3009  0.4403
  948TIP3   OH224402   4.954   4.808   7.634 -0.2525  0.2204 -0.6482
  948TIP3    H124403   4.882   4.745   7.637  0.1949 -0.4418 -2.3665
  948TIP3    H224404   4.911   4.892   7.622 -0.7805 -0.0361 -0.6092
  949TIP3   OH224405   0.687   0.893   0.861 -0.5180 -0.3437  0.6406
  949TIP3    H124406   0.607   0.841   0.858 -1.9596  1.7242  1.5061
  949TIP3    H224407   0.697   0.927   0.772 -1.4538  0.6051  0.8920
  950TIP3   OH224408   0.767   1.944   1.455  0.3644  0.1676 -0.0528
  950TIP3    H124409   0.690   1.894   1.425  1.7782 -3.2250  1.4326
  950TIP3    H224410   0.751   1.958   1.548  1.9948 -1.7570  0.5839
  951TIP3   OH224411   5.260   4.788   3.043 -0.3361  0.3424  0.3591
  951TIP3    H124412   5.286   4.858   3.103 -2.4865  1.2130  0.3889
  951TIP3    H224413   5.245   4.713   3.101  0.1341  0.4098  0.5745
  952TIP3   OH224414   4.450   5.353   1.471  0.0958 -0.9175  0.1882
  952TIP3    H124415   4.368   5.314   1.502 -0.3206  0.2222  0.5644
  952TIP3    H224416   4.461   5.317   1.382 -0.8042 -1.0972  0.1351
  953TIP3   OH224417   1.989   0.770   7.843  0.0759 -0.2818 -0.3214
  953TIP3    H124418   1.958   0.748   7.755  2.0338  0.8970 -1.3669
  953TIP3    H224419   2.084   0.774   7.835  0.2240  1.3611  1.4816
  954TIP3   OH224420   6.556   3.628   1.536 -0.6236 -0.1039 -0.3700
  954TIP3    H124421   6.527   3.581   1.614  0.0992 -0.1985 -0.1515
  954TIP3    H224422   6.485   3.689   1.517 -0.1804  0.9793  1.2420
  955TIP3   OH224423   5.395   5.901   2.284  0.1315 -0.0863 -0.5475
  955TIP3    H124424   5.304   5.927   2.298 -0.7671 -2.6365 -1.0927
  955TIP3    H224425   5.443   5.943   2.356 -1.5517  0.8095  0.1199
  956TIP3   OH224426   5.042   1.893   1.261 -0.3364 -0.3947  0.1066
  956TIP3    H124427   4.986   1.901   1.338  0.2011 -0.9890  0.5714
  956TIP3    H224428   5.070   1.982   1.242 -0.2200 -0.2833  0.7911
  957TIP3   OH224429   4.315   3.144   8.003  0.5958 -0.2765  0.4487
  957TIP3    H124430   4.342   3.053   7.994 -0.1832 -0.6991  2.0645
  957TIP3    H224431   4.244   3.154   7.939  2.6534  0.1115 -1.9328
  958TIP3   OH224432   4.499   6.139   0.891 -0.4813  0.0953 -0.0543
  958TIP3    H124433   4.552   6.106   0.819  1.1810  0.5251  0.9264
  958TIP3    H224434   4.521   6.081   0.965 -0.2683  1.1712  0.7406
  959TIP3   OH224435   4.622   6.276   0.327 -0.1510  0.5659  0.3356
  959TIP3    H124436   4.630   6.369   0.304  0.9318  0.7190  1.2296
  959TIP3    H224437   4.595   6.277   0.419 -0.2706 -0.0070  0.3080
  960TIP3   OH224438   4.670   6.181   8.287  0.3057  0.3463 -0.2858
  960TIP3    H124439   4.757   6.201   8.321  0.6392  0.3429 -1.1155
  960TIP3    H224440   4.653   6.249   8.222 -1.2769  1.7070  1.4389
  961TIP3   OH224441   1.629   0.683   2.472  0.5372  0.2248 -0.1389
  961TIP3    H124442   1.575   0.681   2.393  0.4317  0.0965 -0.0637
  961TIP3    H224443   1.717   0.665   2.441  0.5425  0.4706 -0.2668
  962TIP3   OH224444   2.033   2.997   0.633  0.5939 -0.4264  0.0750
  962TIP3    H124445   1.970   2.970   0.700  0.0942 -0.3591 -0.3604
  962TIP3    H224446   2.087   2.919   0.619 -0.7772 -1.2279 -1.1031
  963TIP3   OH224447   0.741   4.711   2.106  0.1152 -0.2436 -0.2929
  963TIP3    H124448   0.783   4.797   2.110  2.1350 -1.1965  1.6802
  963TIP3    H224449   0.813   4.649   2.122 -1.6868 -2.1530  0.8715
  964TIP3   OH224450   6.499   3.977   1.513 -0.5819  0.5348 -0.6510
  964TIP3    H124451   6.545   3.957   1.594 -0.3847  1.6598 -0.4743
  964TIP3    H224452   6.568   3.985   1.447 -0.6739  0.4563 -0.7574
  965TIP3   OH224453   3.873   2.393   9.106  0.0077 -0.0276 -0.5622
  965TIP3    H124454   3.947   2.366   9.050 -1.5113 -0.9251 -2.2263
  965TIP3    H224455   3.873   2.488   9.101  0.2136 -0.0709 -1.7287
  966TIP3   OH224456   4.808   3.159   8.750  0.4386  0.1815  0.3644
  966TIP3    H124457   4.847   3.193   8.830  3.9724 -1.6592 -0.3906
  966TIP3    H224458   4.856   3.202   8.680 -0.0025 -0.9881 -0.6884
  967TIP3   OH224459   6.155   6.447   2.234  0.0881  0.0598  0.2439
  967TIP3    H124460   6.181   6.372   2.181 -1.0940  0.7247 -1.3623
  967TIP3    H224461   6.210   6.442   2.313 -0.6723 -3.0381  0.6759
  968TIP3   OH224462   6.118   1.363   8.542 -0.8143 -0.3808 -0.0551
  968TIP3    H124463   6.171   1.288   8.571 -0.1056  0.5102  1.0535
  968TIP3    H224464   6.182   1.430   8.519 -1.4151  0.7388  1.3594
  969TIP3   OH224465   1.132   5.769   0.147  0.2024 -0.3858 -0.1236
  969TIP3    H124466   1.100   5.726   0.227 -0.7306 -1.9596 -1.3002
  969TIP3    H224467   1.158   5.697   0.090 -0.4763  0.6520 -1.7995
  970TIP3   OH224468   4.027   0.407   2.633  0.2668  0.2132  0.1122
  970TIP3    H124469   4.086   0.482   2.621 -0.5230  0.7042 -0.8398
  970TIP3    H224470   4.085   0.331   2.625  0.8385  0.6939 -0.5398
  971TIP3   OH224471   2.784   2.280   8.838  0.0742 -0.6593 -0.1062
  971TIP3    H124472   2.822   2.368   8.826  1.1580 -1.0235  0.4838
  971TIP3    H224473   2.695   2.287   8.803 -0.8468  1.4266  2.3438
  972TIP3   OH224474   2.210   0.283   2.730 -0.5685  0.0573  0.9110
  972TIP3    H124475   2.291   0.232   2.719 -0.4142  0.1347  1.6834
  972TIP3    H224476   2.236   0.359   2.782 -1.1962 -0.0587  1.4025
  973TIP3   OH224477   1.044   0.085   0.619 -0.0229 -0.6033 -0.6225
  973TIP3    H124478   1.070   0.086   0.527  0.1055 -0.9662 -0.5930
  973TIP3    H224479   0.980   0.014   0.625  0.1960 -0.7813 -0.3739
  974TIP3   OH224480   6.328   1.270   8.879 -0.0460 -0.1346 -0.1212
  974TIP3    H124481   6.292   1.231   8.800  1.9100 -0.5258 -0.8592
  974TIP3    H224482   6.258   1.327   8.911 -1.6739 -1.6154 -0.9076
  975TIP3   OH224483   6.092   0.430   1.712 -0.0024  0.2551  0.3225
  975TIP3    H124484   6.096   0.522   1.686 -0.9904 -0.1785 -1.5412
  975TIP3    H224485   6.035   0.389   1.646  1.1672 -1.8679  0.5513
  976TIP3   OH224486   3.222   2.909   8.936  0.6857  0.1899 -0.7733
  976TIP3    H124487   3.268   2.880   9.015 -1.5144 -0.6705  0.2528
  976TIP3    H224488   3.267   2.990   8.911  1.7396  0.2288  1.0643
  977TIP3   OH224489   6.628   2.875   8.010 -0.2746  0.0465 -0.3117
  977TIP3    H124490   6.663   2.930   7.940 -2.2915 -0.3188 -1.7056
  977TIP3    H224491   6.548   2.919   8.038 -0.6662 -0.9491  0.2090
  978TIP3   OH224492   0.120   5.054   8.655  0.2656 -0.0032  0.4951
  978TIP3    H124493   0.155   5.051   8.744 -1.1969  1.1534  1.1529
  978TIP3    H224494   0.040   5.001   8.659  1.4148 -1.9567 -0.7760
  979TIP3   OH224495   0.219   1.792   1.943 -0.4251 -0.2949  0.0307
  979TIP3    H124496   0.293   1.771   1.886 -0.1581  0.9774 -0.1162
  979TIP3    H224497   0.182   1.872   1.905 -1.0551 -0.1688  0.8852
  980TIP3   OH224498   0.678   2.525   1.215  0.0284  0.4607  0.1080
  980TIP3    H124499   0.765   2.496   1.243 -0.3675 -0.9319 -0.0648
  980TIP3    H224500   0.665   2.609   1.261  1.1331  0.2922  0.7497
  981TIP3   OH224501   6.652   2.041   8.736 -0.4722  0.4131 -0.1818
  981TIP3    H124502   6.627   2.133   8.747 -1.0122  0.3058 -0.5003
  981TIP3    H224503   6.570   1.993   8.747 -0.2612 -0.0028 -0.4364
  982TIP3   OH224504   3.039   0.671   0.777 -0.3706  0.1281 -0.3936
  982TIP3    H124505   2.959   0.633   0.814 -0.4298  1.1866  0.6414
  982TIP3    H224506   3.030   0.765   0.793  0.1307  0.5168 -2.1606
  983TIP3   OH224507   6.329   3.215   9.044 -0.1738 -0.3821 -0.4224
  983TIP3    H124508   6.305   3.142   8.986 -0.2945 -1.4405  0.9236
  983TIP3    H224509   6.423   3.227   9.030 -0.1720 -0.7180 -0.7187
  984TIP3   OH224510   3.821   5.769   2.765 -0.4005  0.4054  0.0621
  984TIP3    H124511   3.793   5.781   2.674  0.1266 -1.0516 -0.3298
  984TIP3    H224512   3.870   5.848   2.786  1.1013 -0.0315 -1.5743
  985TIP3   OH224513   4.795   3.516   0.867  0.1606 -0.2829 -0.1207
  985TIP3    H124514   4.735   3.531   0.941  1.1596 -1.1813  0.9092
  985TIP3    H224515   4.872   3.569   0.888  0.0449  0.2815 -1.0695
  986TIP3   OH224516   4.381   4.419   8.126  0.1364 -0.1702 -0.4539
  986TIP3    H124517   4.411   4.507   8.146 -2.5635  0.8674 -0.4815
  986TIP3    H224518   4.343   4.426   8.038 -0.3235 -1.2989 -0.3654
  987TIP3   OH224519   4.923   5.357   7.523  0.3910 -0.2788 -0.2284
  987TIP3    H124520   4.841   5.356   7.571 -0.1382 -0.7232 -1.1225
  987TIP3    H224521   4.936   5.448   7.498  0.6900 -0.0380  0.7725
  988TIP3   OH224522   6.591   1.014   1.175  0.0102 -0.2568  0.3041
  988TIP3    H124523   6.530   1.084   1.197  0.1430  0.4999 -1.5753
  988TIP3    H224524   6.543   0.934   1.195 -1.1218  0.3409  0.0537
  989TIP3   OH224525   3.200   5.608   0.519  0.0173 -0.3947  0.3556
  989TIP3    H124526   3.259   5.672   0.557 -0.7199  1.0288 -0.7792
  989TIP3    H224527   3.189   5.636   0.428 -0.7847 -1.8100 -0.0295
  990TIP3   OH224528   2.724   1.207   2.097  0.4041 -0.5354 -0.3134
  990TIP3    H124529   2.736   1.287   2.148  0.4366  0.6597 -2.1081
  990TIP3    H224530   2.654   1.160   2.141  1.3811 -0.2643  1.6322
  991TIP3   OH224531   6.554   5.043   6.757 -0.1565  0.0926 -0.3039
  991TIP3    H124532   6.462   5.042   6.728 -0.5063  0.3766  0.7450
  991TIP3    H224533   6.597   4.977   6.702 -0.6543  0.9898 -1.8294
  992TIP3   OH224534   2.834   0.824   1.304  0.1896  0.0063  0.3643
  992TIP3    H124535   2.788   0.816   1.387  1.3298  0.2260  1.0436
  992TIP3    H224536   2.927   0.815   1.327  0.5310  0.1675 -0.8691
  993TIP3   OH224537   2.067   3.306   7.719  0.6164 -0.6048 -0.2849
  993TIP3    H124538   2.158   3.276   7.718  0.4336 -1.1616 -0.1907
  993TIP3    H224539   2.025   3.259   7.648  0.2567 -0.7977  0.0531
  994TIP3   OH224540   1.830   5.607   2.844 -0.4921 -0.2880  0.5665
  994TIP3    H124541   1.797   5.681   2.895  1.0768  1.1133 -0.3611
  994TIP3    H224542   1.895   5.566   2.901  0.4180  0.5676  0.1628
  995TIP3   OH224543   4.157   6.697   8.746  0.5373 -0.0631  0.7923
  995TIP3    H124544   4.111   6.731   8.669  0.3630 -0.7651  0.5721
  995TIP3    H224545   4.124   6.749   8.819 -0.0216 -0.0362  0.5237
  996TIP3   OH224546   1.394   3.876   7.932 -0.2331  0.3625 -0.2305
  996TIP3    H124547   1.434   3.961   7.953 -1.1487  0.6821  0.2877
  996TIP3    H224548   1.363   3.886   7.843 -2.2779  1.3790  0.5267
  997TIP3   OH224549   4.334   3.441   8.579 -0.3765  0.0531  0.2807
  997TIP3    H124550   4.378   3.526   8.585 -1.2941  0.4708  1.5586
  997TIP3    H224551   4.401   3.378   8.606  0.1703  0.4085 -0.2242
  998TIP3   OH224552   6.122   2.539   8.926  0.6314  0.4081  0.0214
  998TIP3    H124553   6.101   2.445   8.923  3.8072 -0.3930 -1.0118
  998TIP3    H224554   6.187   2.547   8.995  2.7093  1.2093 -1.8985
  999TIP3   OH224555   6.027   5.765   7.833 -0.2889 -0.0149  0.1916
  999TIP3    H124556   5.990   5.718   7.908  1.9772  0.6853  1.8594
  999TIP3    H224557   6.062   5.846   7.871  2.2698 -0.3251 -1.3111
 1000TIP3   OH224558   6.349   0.065   1.234  0.2207  0.3831 -0.0838
 1000TIP3    H124559   6.401   0.027   1.305  0.1514  2.9434  1.4698
 1000TIP3    H224560   6.277   0.003   1.222 -0.4716  0.4200  3.0056
 1001TIP3   OH224561   5.488   0.041   8.406  0.1594  0.7816  0.4804
 1001TIP3    H124562   5.519   0.123   8.368  0.9716  0.6484  0.8435
 1001TIP3    H224563   5.559   0.012   8.463  0.2529 -0.5977 -0.2735
 1002TIP3   OH224564   5.877   0.784   8.722 -0.0025  0.3685  1.1036
 1002TIP3    H124565   5.895   0.863   8.773  0.6965 -0.5133  2.2649
 1002TIP3    H224566   5.785   0.794   8.696  0.2465  1.8555  0.6624
 1003TIP3   OH224567   2.309   5.838   1.552  0.1973  0.3091 -0.8706
 1003TIP3    H124568   2.239   5.902   1.536  0.7663  0.7897 -1.4741
 1003TIP3    H224569   2.387   5.891   1.565  0.5721 -0.2473 -0.8536
 1004TIP3   OH224570   5.769   5.509   0.878  0.4486 -0.9623 -0.3538
 1004TIP3    H124571   5.863   5.499   0.869  0.6956 -0.4812  1.3235
 1004TIP3    H224572   5.758   5.587   0.933 -0.9290 -0.9725 -0.5646
 1005TIP3   OH224573   0.412   2.568   8.450  0.8052 -0.0396  0.1613
 1005TIP3    H124574   0.399   2.597   8.541  1.4227 -0.0456  0.2580
 1005TIP3    H224575   0.468   2.491   8.458 -1.5265 -1.8597 -0.0278
 1006TIP3   OH224576   6.185   2.859   7.874 -0.1385  0.6697  0.0957
 1006TIP3    H124577   6.157   2.797   7.806  1.6331  1.3132 -1.2949
 1006TIP3    H224578   6.108   2.912   7.892 -0.8665 -0.0556 -0.7995
 1007TIP3   OH224579   6.220   3.178   0.992  0.0890 -0.4040 -0.3634
 1007TIP3    H124580   6.312   3.155   0.978  0.6173  0.0833  1.8966
 1007TIP3    H224581   6.195   3.226   0.914  0.6519 -3.5205 -2.6478
 1008TIP3   OH224582   1.863   3.235   2.176 -0.4381  0.0865  0.1298
 1008TIP3    H124583   1.948   3.268   2.206 -0.6622 -1.0093  2.2042
 1008TIP3    H224584   1.809   3.313   2.166  0.5731  0.7318 -0.3906
 1009TIP3   OH224585   4.258   6.125   8.406  0.3203  0.6076  0.2010
 1009TIP3    H124586   4.220   6.178   8.476  2.2200  2.1758  0.1322
 1009TIP3    H224587   4.185   6.074   8.372 -0.9512  0.8539  2.3729
 1010TIP3   OH224588   4.738   5.432   8.753  0.0417 -0.1664  0.3491
 1010TIP3    H124589   4.751   5.483   8.833 -0.5633  0.1400  0.2559
 1010TIP3    H224590   4.647   5.402   8.759 -0.6289  1.4185 -1.1159
 1011TIP3   OH224591   2.633   2.898   1.462 -0.0110  0.0301 -0.4441
 1011TIP3    H124592   2.698   2.828   1.467  0.8669  0.8317 -0.2331
 1011TIP3    H224593   2.550   2.853   1.448  0.5241 -1.0502 -0.2697
 1012TIP3   OH224594   3.532   3.401   2.031 -0.5284  0.1686 -0.2117
 1012TIP3    H124595   3.544   3.378   2.123 -1.5492  3.3366  0.8642
 1012TIP3    H224596   3.447   3.363   2.007 -0.0960 -0.9746  0.0035
 1013TIP3   OH224597   2.311   5.155   8.133  0.2277 -0.0386  0.3837
 1013TIP3    H124598   2.328   5.203   8.214 -0.2776  0.4892  0.1848
 1013TIP3    H224599   2.371   5.195   8.069 -0.9180  1.0842 -0.0464
 1014TIP3   OH224600   4.535   5.809   0.779  0.0240 -0.4394 -0.0590
 1014TIP3    H124601   4.445   5.777   0.780 -0.0812 -0.1727 -0.7450
 1014TIP3    H224602   4.533   5.887   0.724  0.5311  0.0076  0.5429
 1015TIP3   OH224603   5.987   4.490   0.659  0.2709 -0.3583  0.0847
 1015TIP3    H124604   5.974   4.537   0.577 -0.4411 -0.9630 -0.1641
 1015TIP3    H224605   5.920   4.421   0.658  0.8462 -0.9496  0.7427
 1016TIP3   OH224606   2.329   4.349   1.714  0.1852 -0.1556 -0.3499
 1016TIP3    H124607   2.371   4.383   1.635  1.8272  0.8414  0.8612
 1016TIP3    H224608   2.265   4.416   1.738  1.1709  0.5951  0.2773
 1017TIP3   OH224609   1.979   2.812   8.383 -0.0372  0.0886 -0.3669
 1017TIP3    H124610   1.917   2.842   8.450 -0.2559 -1.0812 -0.0346
 1017TIP3    H224611   1.926   2.803   8.304 -0.3055 -0.8836 -0.0903
 1018TIP3   OH224612   5.023   4.666   2.244 -0.4971  0.3013 -0.3145
 1018TIP3    H124613   4.998   4.660   2.152 -1.1432  0.5046 -0.1556
 1018TIP3    H224614   4.940   4.672   2.291 -0.2077 -0.9780  0.3799
 1019TIP3   OH224615   0.745   3.188   0.105  0.2458  0.1615 -0.1535
 1019TIP3    H124616   0.804   3.121   0.141 -1.4207 -1.2739  0.0719
 1019TIP3    H224617   0.678   3.199   0.172 -0.7528  0.3621 -1.1556
 1020TIP3   OH224618   4.402   5.252   1.965 -0.0790 -0.3656  0.4227
 1020TIP3    H124619   4.447   5.302   2.033  1.5819 -4.4664  2.7068
 1020TIP3    H224620   4.471   5.232   1.901 -1.0830  1.3534 -1.3220
 1021TIP3   OH224621   0.600   1.704   0.568  0.4516  0.2255 -0.6964
 1021TIP3    H124622   0.653   1.635   0.607  2.4524  1.6649 -0.6762
 1021TIP3    H224623   0.607   1.690   0.474 -0.1342 -0.2536 -0.6786
 1022TIP3   OH224624   5.765   1.752   8.677 -0.5332 -0.0027 -0.2888
 1022TIP3    H124625   5.699   1.716   8.736  2.0914 -0.0985  2.8644
 1022TIP3    H224626   5.798   1.677   8.629 -1.6498 -0.1595 -0.8667
 1023TIP3   OH224627   5.614   1.873   7.328  0.1278 -0.6655  0.0553
 1023TIP3    H124628   5.614   1.960   7.369 -0.2617 -0.4574 -0.3621
 1023TIP3    H224629   5.671   1.820   7.383  0.9190  0.0385 -0.0693
 1024TIP3   OH224630   1.206   1.922   7.250 -0.2742  0.1090  0.4748
 1024TIP3    H124631   1.281   1.863   7.250  0.8355  1.4599 -0.6120
 1024TIP3    H224632   1.244   2.010   7.251 -1.8683  0.8380  1.2824
 1025TIP3   OH224633   2.304   6.090   1.983 -0.4397  0.0427  0.6942
 1025TIP3    H124634   2.367   6.035   1.936  0.3210  0.7087  0.9111
 1025TIP3    H224635   2.219   6.052   1.962 -0.1068  0.1344 -0.9518
 1026TIP3   OH224636   1.863   5.499   7.027  0.7532  0.1907 -0.4559
 1026TIP3    H124637   1.888   5.454   7.108 -0.6047  2.8546  1.5616
 1026TIP3    H224638   1.940   5.488   6.970  1.8632 -1.5528  1.2412
 1027TIP3   OH224639   4.359   2.636   2.436 -0.2927  0.0036 -0.2205
 1027TIP3    H124640   4.429   2.674   2.490  0.8277  1.6235 -2.6394
 1027TIP3    H224641   4.339   2.704   2.372 -3.9869 -0.5083  0.1880
 1028TIP3   OH224642   2.342   4.648   8.796 -0.3477 -0.8925  0.4214
 1028TIP3    H124643   2.256   4.654   8.838 -0.5126  2.5681 -0.0659
 1028TIP3    H224644   2.328   4.593   8.719 -2.5877  0.7854 -0.4793
 1029TIP3   OH224645   3.030   0.547   0.501 -0.0375 -0.3546 -0.4111
 1029TIP3    H124646   3.029   0.545   0.597  0.4436 -0.8553 -0.4071
 1029TIP3    H224647   3.103   0.605   0.479  0.6658 -1.2369 -0.4606
 1030TIP3   OH224648   1.807   0.075   2.551  0.1543  0.1866 -0.3999
 1030TIP3    H124649   1.822   0.031   2.635 -1.1923  0.4345 -0.0083
 1030TIP3    H224650   1.717   0.052   2.527  0.6496 -0.2477 -2.0169
 1031TIP3   OH224651   4.418   2.536   1.395 -0.4286  0.3834 -0.0187
 1031TIP3    H124652   4.484   2.497   1.452 -0.4967  0.8517  0.3876
 1031TIP3    H224653   4.359   2.463   1.374 -1.1535  0.4564  1.5838
 1032TIP3   OH224654   3.431   5.913   0.059  0.1717 -0.0261 -0.7715
 1032TIP3    H124655   3.521   5.939   0.078 -0.4229  0.6773  1.4347
 1032TIP3    H224656   3.385   5.996   0.046 -0.5382 -0.2552  0.1689
 1033TIP3   OH224657   2.872   5.580   2.157 -0.9475 -0.0181 -0.1979
 1033TIP3    H124658   2.859   5.489   2.182  0.0266  0.0393  0.5761
 1033TIP3    H224659   2.789   5.623   2.179 -0.8344 -0.3917  1.0426
 1034TIP3   OH224660   0.195   3.837   1.729  0.2979 -0.2138 -0.4343
 1034TIP3    H124661   0.160   3.807   1.645  1.3726 -3.6362  0.1880
 1034TIP3    H224662   0.271   3.782   1.744 -0.2185 -0.1645  3.0716
 1035TIP3   OH224663   2.549   1.619   1.990  0.3862 -0.2357  0.0974
 1035TIP3    H124664   2.614   1.669   2.038 -0.1174 -0.3032  0.8661
 1035TIP3    H224665   2.510   1.682   1.929  0.6850 -0.0298  0.1196
 1036TIP3   OH224666   6.022   3.001   8.979  0.6300  0.5458  0.0770
 1036TIP3    H124667   6.016   3.042   9.066 -2.4653  1.9140 -0.6427
 1036TIP3    H224668   5.947   2.942   8.975  0.9243  0.2392 -1.5643
 1037TIP3   OH224669   4.379   5.204   0.357  0.2349 -0.0650 -0.1845
 1037TIP3    H124670   4.396   5.295   0.335  0.6020  0.0413  0.5137
 1037TIP3    H224671   4.295   5.184   0.316  1.9582 -0.6372 -3.8910
 1038TIP3   OH224672   6.398   3.657   7.939 -0.1849 -0.1795 -0.3374
 1038TIP3    H124673   6.486   3.688   7.918 -0.8196  1.8591 -0.1674
 1038TIP3    H224674   6.392   3.666   8.034 -0.7552  0.1837 -0.4053
 1039TIP3   OH224675   5.932   4.058   2.095 -0.8424  0.3179  0.3210
 1039TIP3    H124676   6.003   4.071   2.157  2.4254 -1.8071 -2.6439
 1039TIP3    H224677   5.971   4.073   2.009 -4.3230  0.1548 -1.4854
 1040TIP3   OH224678   2.453   6.024   9.058  0.2142 -0.1258 -0.3244
 1040TIP3    H124679   2.370   5.986   9.087 -0.8701  2.6753  0.5963
 1040TIP3    H224680   2.519   5.962   9.087 -1.4431 -1.7722  0.1613
 1041TIP3   OH224681   3.136   0.312   1.180  0.0279  0.8179 -0.6872
 1041TIP3    H124682   3.065   0.251   1.161 -0.3246  1.0746 -0.2197
 1041TIP3    H224683   3.097   0.377   1.239  0.4854  1.3057 -0.9114
 1042TIP3   OH224684   3.507   0.675   2.605  0.1584 -0.3000  0.3712
 1042TIP3    H124685   3.514   0.605   2.540  0.0377  0.7883 -0.8662
 1042TIP3    H224686   3.441   0.643   2.667  1.4574 -2.0665  0.9260
 1043TIP3   OH224687   5.579   6.625   8.157  0.1882  0.4209  0.6046
 1043TIP3    H124688   5.656   6.585   8.198 -0.0037 -0.3808  0.2113
 1043TIP3    H224689   5.540   6.677   8.227  0.7050  0.2881  1.0079
 1044TIP3   OH224690   3.078   2.315   1.417 -0.2920  0.3415  0.4873
 1044TIP3    H124691   3.172   2.298   1.411 -0.0159  1.5563  1.1414
 1044TIP3    H224692   3.042   2.236   1.456  0.1420 -0.9633 -1.5775
 1045TIP3   OH224693   3.120   4.097   2.587  0.2870 -0.3235 -0.2569
 1045TIP3    H124694   3.202   4.049   2.571  0.1449 -0.6923  0.1212
 1045TIP3    H224695   3.052   4.031   2.577  0.0834 -0.1724  0.1659
 1046TIP3   OH224696   5.445   5.109   1.141  0.3593 -0.0266  0.3282
 1046TIP3    H124697   5.468   5.156   1.060  2.2121  0.8616  1.2908
 1046TIP3    H224698   5.525   5.061   1.163  0.2191  0.4876  2.1033
 1047TIP3   OH224699   1.967   6.230   1.587  0.7793 -0.0788 -0.3800
 1047TIP3    H124700   1.975   6.305   1.528  2.1697 -0.1811 -0.3491
 1047TIP3    H224701   1.906   6.259   1.655  0.3263  0.5624 -1.0471
 1048TIP3   OH224702   0.469   2.018   0.827  0.3718 -0.0981  0.4744
 1048TIP3    H124703   0.392   2.075   0.826 -0.5484 -1.1164 -3.2037
 1048TIP3    H224704   0.433   1.930   0.817  1.9291 -1.0211  2.4445
 1049TIP3   OH224705   6.237   1.335   1.724 -0.8147 -0.5455 -0.1561
 1049TIP3    H124706   6.187   1.269   1.773  1.5133 -1.0419  1.7254
 1049TIP3    H224707   6.203   1.330   1.635 -4.3788 -0.5070  1.0527
 1050TIP3   OH224708   1.417   5.852   2.181  0.2020  0.2896  0.3677
 1050TIP3    H124709   1.421   5.935   2.133  1.3876 -0.5590 -1.0653
 1050TIP3    H224710   1.346   5.865   2.244  0.9114  2.7040  0.8067
 1051TIP3   OH224711   5.184   0.179   6.975  0.1540 -0.7018  0.3058
 1051TIP3    H124712   5.102   0.182   6.925  0.2386  0.4200  0.2079
 1051TIP3    H224713   5.253   0.182   6.909  0.2834  2.1528  0.4498
 1052TIP3   OH224714   1.893   4.743   8.065 -0.0452 -0.2884 -0.5196
 1052TIP3    H124715   1.804   4.763   8.034  0.0856 -1.3768 -1.7119
 1052TIP3    H224716   1.950   4.768   7.992  0.7025  0.8283  0.4064
 1053TIP3   OH224717   2.054   5.232   8.452  0.2319 -0.5992  0.1062
 1053TIP3    H124718   2.079   5.144   8.424  0.4064 -0.2641 -0.7986
 1053TIP3    H224719   2.010   5.219   8.536  0.4713 -1.5245  0.0929
 1054TIP3   OH224720   6.303   6.291   7.978  0.7341 -0.4362  0.0297
 1054TIP3    H124721   6.383   6.240   7.994  1.7162  1.2543  0.7769
 1054TIP3    H224722   6.335   6.378   7.953 -0.8713 -0.4173 -2.2878
 1055TIP3   OH224723   0.120   6.440   8.431  0.3371  0.0321  0.5251
 1055TIP3    H124724   0.103   6.519   8.380 -2.7714 -0.3986  0.6955
 1055TIP3    H224725   0.090   6.461   8.519  1.0824 -0.8307  1.0060
 1056TIP3   OH224726   5.682   6.603   0.220 -0.3148  0.1885  0.3949
 1056TIP3    H124727   5.725   6.651   0.290 -0.4222  1.3322 -0.2912
 1056TIP3    H224728   5.693   6.511   0.243 -0.4667  0.5479  1.9560
 1057TIP3   OH224729   2.137   3.533   0.681 -0.3048  0.6174 -0.2268
 1057TIP3    H124730   2.042   3.523   0.681 -0.6566  3.1845 -0.5805
 1057TIP3    H224731   2.164   3.506   0.593 -0.4493 -1.5674  0.3421
 1058TIP3   OH224732   5.435   0.455   0.816  0.1723  0.1721  0.3008
 1058TIP3    H124733   5.472   0.369   0.837 -1.2306 -0.1824  1.5431
 1058TIP3    H224734   5.370   0.469   0.885 -0.9971  1.3648 -1.0148
 1059TIP3   OH224735   5.531   4.859   1.209 -0.4333  0.3863  0.0413
 1059TIP3    H124736   5.472   4.786   1.226 -0.1254 -0.1332 -1.0396
 1059TIP3    H224737   5.564   4.884   1.296  1.0275 -2.1083  0.3098
 1060TIP3   OH224738   2.106   6.050   8.852 -0.3167 -0.5281  0.3212
 1060TIP3    H124739   2.187   6.078   8.810 -1.0377  1.8931  0.4034
 1060TIP3    H224740   2.055   6.011   8.781  0.5082 -1.2164  0.0799
 1061TIP3   OH224741   1.390   6.719   1.267 -0.4324  0.2218  0.0339
 1061TIP3    H124742   1.422   6.803   1.234  0.9849  0.0801  0.9313
 1061TIP3    H224743   1.426   6.654   1.206  1.1093  0.0611  1.0543
 1062TIP3   OH224744   4.265   3.861   9.046 -0.0353 -0.2937 -0.4498
 1062TIP3    H124745   4.316   3.802   9.102  0.5860  1.2351  0.6358
 1062TIP3    H224746   4.330   3.908   8.995 -0.4533  0.3687 -0.3792
 1063TIP3   OH224747   0.640   0.239   2.444 -0.3557  0.7630 -0.4279
 1063TIP3    H124748   0.701   0.290   2.391  0.7825 -0.7790 -0.6870
 1063TIP3    H224749   0.617   0.164   2.388  2.2025 -1.8553  1.6766
 1064TIP3   OH224750   4.085   1.329   0.449  0.4788 -0.0060  0.4164
 1064TIP3    H124751   4.116   1.380   0.374  0.2517  2.2476  1.7581
 1064TIP3    H224752   3.990   1.323   0.436  0.6266 -1.0936 -0.2934
 1065TIP3   OH224753   5.738   5.682   1.442  0.7041 -0.2707 -0.1579
 1065TIP3    H124754   5.692   5.608   1.402 -2.1344  1.1110  0.2493
 1065TIP3    H224755   5.755   5.653   1.532  1.8379 -1.2716 -0.6725
 1066TIP3   OH224756   5.139   4.887   8.965  0.1053  0.2128 -0.1799
 1066TIP3    H124757   5.121   4.980   8.973 -1.3642  0.2575 -2.9845
 1066TIP3    H224758   5.164   4.860   9.054  2.7418  3.6260  0.3306
 1067TIP3   OH224759   4.957   3.179   0.993 -0.1130  0.2108  0.2152
 1067TIP3    H124760   4.905   3.259   0.990 -1.4404 -0.5445  1.7639
 1067TIP3    H224761   4.914   3.125   1.059 -1.2078 -3.1303 -2.8761
 1068TIP3   OH224762   3.564   5.276   2.418  0.0160  0.3708 -0.1462
 1068TIP3    H124763   3.603   5.274   2.505  1.4278 -0.7052 -0.7764
 1068TIP3    H224764   3.486   5.221   2.426  0.5838 -0.4001  0.2475
 1069TIP3   OH224765   1.485   3.385   7.511 -0.1004  0.4596 -0.2690
 1069TIP3    H124766   1.531   3.470   7.506 -0.3386  0.6512  0.7396
 1069TIP3    H224767   1.508   3.342   7.428  1.7887  0.6098  0.1294
 1070TIP3   OH224768   6.402   6.052   8.853  0.0745  0.0514 -0.6274
 1070TIP3    H124769   6.335   6.096   8.801 -1.4989 -1.1262  0.3045
 1070TIP3    H224770   6.390   6.085   8.941  1.9344  1.1378 -0.7390
 1071TIP3   OH224771   1.772   2.457   2.315 -0.3005 -0.2611 -0.1658
 1071TIP3    H124772   1.681   2.432   2.336 -0.0938 -0.8602  0.0501
 1071TIP3    H224773   1.824   2.418   2.385  0.0314  1.0301  0.3338
 1072TIP3   OH224774   3.046   0.662   1.065  0.2836  0.4059  0.0638
 1072TIP3    H124775   3.087   0.643   0.980  0.3499  1.4051 -0.1405
 1072TIP3    H224776   2.956   0.630   1.055  0.5157 -0.2129 -0.0990
 1073TIP3   OH224777   1.761   4.582   8.492 -0.2836  0.1008  0.1828
 1073TIP3    H124778   1.837   4.630   8.459  0.2024 -1.1238 -0.5759
 1073TIP3    H224779   1.798   4.503   8.531 -1.2327 -1.5640 -2.0751
 1074TIP3   OH224780   4.276   5.150   2.409 -0.0491 -0.5618  0.2442
 1074TIP3    H124781   4.196   5.097   2.403  0.5458 -1.7053  1.8520
 1074TIP3    H224782   4.257   5.214   2.478 -0.2447  0.4392 -0.7099
 1075TIP3   OH224783   1.544   0.262   1.218  0.0646 -0.3184  0.8070
 1075TIP3    H124784   1.626   0.313   1.215  0.4585 -0.9710 -0.5466
 1075TIP3    H224785   1.492   0.297   1.146 -1.1590  0.5369  2.0640
 1076TIP3   OH224786   2.392   0.015   7.963 -0.0428  0.4567 -0.3064
 1076TIP3    H124787   2.380   0.069   8.041 -0.4158 -0.7719  0.5250
 1076TIP3    H224788   2.365   0.071   7.890 -2.4766  0.7106  0.7062
 1077TIP3   OH224789   5.305   3.521   0.047 -0.3121  0.5435  0.0511
 1077TIP3    H124790   5.384   3.469   0.059  0.5072  1.4096 -1.2992
 1077TIP3    H224791   5.335   3.612   0.051 -1.0362  0.8882 -1.4405
 1078TIP3   OH224792   3.933   4.172   8.874 -0.4291 -0.2666  0.9701
 1078TIP3    H124793   3.940   4.239   8.943  6.2386  1.9628 -1.1024
 1078TIP3    H224794   4.005   4.112   8.892 -2.3738 -3.4069 -0.7897
 1079TIP3   OH224795   3.237   5.776   0.820  0.9021  0.1573 -0.1096
 1079TIP3    H124796   3.270   5.862   0.845 -0.9565  0.6610  0.7591
 1079TIP3    H224797   3.145   5.791   0.797  0.3020 -1.7248  0.8543
 1080TIP3   OH224798   0.642   1.276   7.849  0.4385 -0.2446  0.1119
 1080TIP3    H124799   0.661   1.183   7.862  0.6216 -0.1951  0.1977
 1080TIP3    H224800   0.546   1.281   7.850  0.4394 -0.3390  0.7614
 1081TIP3   OH224801   4.155   5.488   8.294  0.0550  0.2916 -0.3488
 1081TIP3    H124802   4.223   5.420   8.291 -0.1501  0.1317 -2.2182
 1081TIP3    H224803   4.097   5.459   8.364  0.9482 -0.5032  0.1014
 1082TIP3   OH224804   3.260   0.628   0.388 -0.8237  0.4503  0.2790
 1082TIP3    H124805   3.308   0.666   0.462  0.1837  0.7554 -0.5108
 1082TIP3    H224806   3.291   0.538   0.383  0.4720  0.9111 -0.8320
 1083TIP3   OH224807   0.316   4.387   0.839  0.0058 -0.3691  0.8149
 1083TIP3    H124808   0.283   4.449   0.905 -2.5592 -0.6957 -0.0314
 1083TIP3    H224809   0.316   4.437   0.757  0.4641 -0.7653  0.5679
 1084TIP3   OH224810   3.757   2.254   7.118 -0.3917 -0.0699  0.0711
 1084TIP3    H124811   3.787   2.200   7.045 -1.4429 -0.3142 -0.2034
 1084TIP3    H224812   3.671   2.285   7.091 -0.2658  0.8624  0.6952
 1085TIP3   OH224813   0.191   5.860   7.347 -0.8214 -0.1015  0.0271
 1085TIP3    H124814   0.171   5.865   7.440 -0.5924 -3.6486  0.3951
 1085TIP3    H224815   0.223   5.947   7.324  0.4390  0.5107  3.5619
 1086TIP3   OH224816   4.851   2.307   7.928 -0.4034  0.3110  0.6513
 1086TIP3    H124817   4.791   2.355   7.870 -1.4094  0.0978  1.4693
 1086TIP3    H224818   4.846   2.354   8.011  0.6678  0.3477  0.7053
 1087TIP3   OH224819   2.048   2.672   1.569  0.1420 -0.4401  0.7031
 1087TIP3    H124820   2.123   2.671   1.629 -0.0126 -1.1378  0.8921
 1087TIP3    H224821   1.994   2.745   1.600  0.5147 -0.2235  0.8479
 1088TIP3   OH224822   0.690   5.855   1.080 -0.2256 -0.3921  0.2361
 1088TIP3    H124823   0.772   5.805   1.082 -0.4301 -0.7750 -0.5525
 1088TIP3    H224824   0.644   5.822   1.003 -0.6132  0.6294  0.0161
 1089TIP3   OH224825   5.424   4.440   3.006 -0.3796  0.6435 -0.0310
 1089TIP3    H124826   5.488   4.441   3.076 -1.5013 -0.5421  1.0632
 1089TIP3    H224827   5.340   4.432   3.050 -1.3165  2.0653 -1.4227
 1090TIP3   OH224828   3.775   1.207   8.570  0.4558  0.1361  0.3731
 1090TIP3    H124829   3.788   1.119   8.535  1.5085 -0.1181  1.3203
 1090TIP3    H224830   3.682   1.211   8.591  0.5877 -1.1770  1.3553
 1091TIP3   OH224831   6.331   4.473   2.060  0.0530  0.1761 -0.0526
 1091TIP3    H124832   6.333   4.568   2.073 -0.2329  0.3974 -1.4852
 1091TIP3    H224833   6.238   4.452   2.048  0.3145  0.2359 -2.9472
 1092TIP3   OH224834   6.635   5.286   8.884 -0.4221 -0.1601  0.7109
 1092TIP3    H124835   6.631   5.276   8.789  0.2004  3.2340  0.1978
 1092TIP3    H224836   6.543   5.292   8.911 -0.5927 -0.8723  0.3316
 1093TIP3   OH224837   3.703   0.487   0.724  0.1618  0.5447 -0.1966
 1093TIP3    H124838   3.700   0.582   0.735  0.1873  0.9737 -3.1130
 1093TIP3    H224839   3.773   0.473   0.661 -1.4360 -1.1539 -1.6920
 1094TIP3   OH224840   1.243   5.417   8.306  0.9261  0.0206 -0.0549
 1094TIP3    H124841   1.319   5.454   8.261  2.5383 -1.7029  1.0968
 1094TIP3    H224842   1.279   5.347   8.361 -0.7948  1.9923  4.0633
 1095TIP3   OH224843   2.318   6.513   0.104 -1.0133 -0.1740 -0.0261
 1095TIP3    H124844   2.353   6.451   0.039  1.1552  1.7435 -0.8349
 1095TIP3    H224845   2.245   6.555   0.059 -0.1352  0.4510 -0.9203
 1096TIP3   OH224846   2.010   0.300   8.999 -0.2050 -0.2380  0.0634
 1096TIP3    H124847   2.061   0.375   9.029  0.5841 -0.6253 -0.2943
 1096TIP3    H224848   2.012   0.306   8.904 -2.9286  1.1379  0.0017
 1097TIP3   OH224849   6.029   0.553   7.691 -0.2234  0.6230  0.1022
 1097TIP3    H124850   6.081   0.586   7.618  0.8329  1.4015  1.1811
 1097TIP3    H224851   6.078   0.477   7.723  0.1647  1.2452  1.0066
 1098TIP3   OH224852   4.408   5.382   0.941  0.6026 -0.3042  1.2805
 1098TIP3    H124853   4.315   5.403   0.944  0.5545  0.0884 -1.0737
 1098TIP3    H224854   4.411   5.291   0.912  0.9155  0.3622 -0.9566
 1099TIP3   OH224855   0.710   0.624   1.457  0.5149 -0.6116  0.4820
 1099TIP3    H124856   0.797   0.606   1.493 -0.3536 -1.4171  2.3335
 1099TIP3    H224857   0.719   0.710   1.416  2.6729 -1.5609 -1.2390
 1100TIP3   OH224858   1.181   4.352   0.441  0.3891 -0.1360 -0.2870
 1100TIP3    H124859   1.209   4.353   0.349  0.0145 -0.6017 -0.4175
 1100TIP3    H224860   1.151   4.441   0.458 -1.2533 -0.4611 -1.1939
 1101TIP3   OH224861   6.131   0.922   8.549  0.3966 -0.3490  0.1603
 1101TIP3    H124862   6.140   0.924   8.644 -1.4197 -0.1174  0.3726
 1101TIP3    H224863   6.079   0.999   8.529  0.7061 -0.4348 -1.0275
 1102TIP3   OH224864   1.505   4.637   2.300 -0.1399 -0.3040  0.6263
 1102TIP3    H124865   1.582   4.583   2.321 -0.4902 -1.4173 -0.8284
 1102TIP3    H224866   1.431   4.580   2.317 -0.5063 -0.5151 -1.4663
 1103TIP3   OH224867   6.444   1.081   7.496 -0.1038 -0.5001  0.3115
 1103TIP3    H124868   6.374   1.143   7.517  1.0164  0.3842  1.6032
 1103TIP3    H224869   6.398   1.003   7.463 -1.5363  1.0472 -1.5789
 1104TIP3   OH224870   5.850   2.516   2.319  0.0549  0.0138  0.2895
 1104TIP3    H124871   5.908   2.590   2.342  1.5963 -1.3600  1.0810
 1104TIP3    H224872   5.769   2.534   2.367  0.6138  0.9008  0.9471
 1105TIP3   OH224873   5.264   2.167   8.063  0.0412 -0.5328  0.0081
 1105TIP3    H124874   5.302   2.183   7.977  2.1214 -0.4386  0.8871
 1105TIP3    H224875   5.265   2.253   8.106 -2.0482 -0.3464 -0.2423
 1106TIP3   OH224876   5.706   5.128   7.335  0.8964 -0.7486  0.0570
 1106TIP3    H124877   5.677   5.103   7.422  1.8353 -0.6612  0.4041
 1106TIP3    H224878   5.683   5.221   7.327 -0.9044 -1.1961 -0.5302
 1107TIP3   OH224879   0.632   2.397   8.440  0.2880  0.2312 -0.5135
 1107TIP3    H124880   0.688   2.370   8.512  0.2222  0.8930 -0.2007
 1107TIP3    H224881   0.678   2.471   8.400 -1.1988  2.0388  0.9312
 1108TIP3   OH224882   1.676   4.272   1.409  0.1839  0.2918 -0.0499
 1108TIP3    H124883   1.690   4.215   1.485 -0.8703  0.9663  0.6799
 1108TIP3    H224884   1.603   4.232   1.362  0.0681  0.5134 -0.0604
 1109TIP3   OH224885   2.615   1.227   8.290 -0.5485  0.1094 -0.0922
 1109TIP3    H124886   2.673   1.249   8.217 -1.0916  0.0761 -0.5405
 1109TIP3    H224887   2.666   1.248   8.369 -0.4929  1.5333 -0.4886
 1110TIP3   OH224888   1.277   3.343   1.716  0.2399  0.2638 -0.2067
 1110TIP3    H124889   1.335   3.296   1.776  0.1504 -1.9895 -1.7466
 1110TIP3    H224890   1.203   3.370   1.771  0.3062 -1.4313  0.8001
 1111TIP3   OH224891   1.620   3.718   2.038  0.0100  0.7284 -0.2820
 1111TIP3    H124892   1.526   3.702   2.040  0.1212  0.1668  0.9492
 1111TIP3    H224893   1.630   3.794   1.979 -1.1284  0.3756 -0.9622
 1112TIP3   OH224894   4.746   5.982   6.988 -0.9775  1.1457 -0.2083
 1112TIP3    H124895   4.837   5.980   7.017 -1.0375  3.4997  0.3274
 1112TIP3    H224896   4.714   5.893   7.002  1.1357  0.3686 -0.0923
 1113TIP3   OH224897   0.363   0.151   8.958  0.5979  0.0063 -0.0784
 1113TIP3    H124898   0.413   0.217   8.909 -0.0266  2.4520  2.2941
 1113TIP3    H224899   0.430   0.097   9.001  1.1939  0.7532 -0.0404
 1114TIP3   OH224900   3.865   0.638   8.511 -0.6269 -0.3780 -0.5355
 1114TIP3    H124901   3.827   0.632   8.423 -1.5990  1.0441 -0.2653
 1114TIP3    H224902   3.848   0.729   8.537  1.0381 -0.3348  0.5142
 1115TIP3   OH224903   5.958   0.073   6.806  0.3225  0.0669  0.5814
 1115TIP3    H124904   6.035   0.020   6.829 -0.6667 -0.1540  3.8039
 1115TIP3    H224905   5.963   0.149   6.864 -2.3427 -0.4461  1.6101
 1116TIP3   OH224906   3.857   6.083   0.348  0.1202  0.2649 -0.0819
 1116TIP3    H124907   3.922   6.140   0.390 -0.7601  1.0126  0.3044
 1116TIP3    H224908   3.900   5.998   0.342 -0.0819 -0.2666  3.4606
 1117TIP3   OH224909   2.006   6.010   0.413  0.2659 -0.0466  0.2039
 1117TIP3    H124910   2.057   6.064   0.474 -0.5837 -0.4415  1.3031
 1117TIP3    H224911   1.948   5.959   0.469  1.6936 -2.8915 -0.6859
 1118TIP3   OH224912   2.480   1.319   0.027  0.0752 -0.1129 -0.3986
 1118TIP3    H124913   2.569   1.306   0.061  0.9978  2.3351 -1.6244
 1118TIP3    H224914   2.443   1.388   0.083 -0.8278 -0.6628 -0.3050
 1119TIP3   OH224915   5.824   4.260   8.479  0.6478 -0.3073  0.1807
 1119TIP3    H124916   5.785   4.206   8.410  0.3669  0.5202 -0.3289
 1119TIP3    H224917   5.811   4.350   8.449 -0.0374  0.1054  1.6139
 1120TIP3   OH224918   1.613   2.827   8.852 -0.7193 -0.2728  0.0900
 1120TIP3    H124919   1.654   2.913   8.862  0.6255 -1.1001  2.2738
 1120TIP3    H224920   1.521   2.842   8.872 -0.7547  0.8637 -0.8196
 1121TIP3   OH224921   0.609   2.168   1.429  0.5529 -0.2361  0.1317
 1121TIP3    H124922   0.643   2.079   1.439 -0.1483 -0.4394  0.8369
 1121TIP3    H224923   0.596   2.178   1.335  1.9084 -0.3832 -0.0923
 1122TIP3   OH224924   6.026   0.239   2.779  0.1339  0.5985  0.3024
 1122TIP3    H124925   6.080   0.173   2.735 -0.9925  0.8360 -1.5288
 1122TIP3    H224926   5.948   0.190   2.807  0.3024  0.7088  0.9850
 1123TIP3   OH224927   0.933   1.897   0.295  0.4492 -0.2147 -0.2573
 1123TIP3    H124928   0.969   1.955   0.227  0.3120  0.0897 -0.0741
 1123TIP3    H224929   0.967   1.933   0.377  0.4129 -0.4324 -0.1483
 1124TIP3   OH224930   4.014   5.185   2.290 -0.0100  0.2090 -0.6494
 1124TIP3    H124931   4.051   5.238   2.220 -0.7494  1.1013 -0.3879
 1124TIP3    H224932   3.921   5.208   2.291  0.2216  1.3324  1.5590
 1125TIP3   OH224933   1.263   1.554   0.528 -0.2360  0.0340  0.0968
 1125TIP3    H124934   1.354   1.552   0.556 -0.6141  0.6331  1.4300
 1125TIP3    H224935   1.212   1.545   0.609 -1.3639 -0.2131 -0.6140
 1126TIP3   OH224936   6.528   0.230   2.099  0.3516 -0.0554 -0.1548
 1126TIP3    H124937   6.623   0.221   2.092  0.2176 -0.2865 -2.5213
 1126TIP3    H224938   6.493   0.154   2.053 -1.0155 -0.2113  1.0538
 1127TIP3   OH224939   1.919   2.618   8.746  0.2959  0.2037  0.0702
 1127TIP3    H124940   1.868   2.603   8.825  1.0841  3.2538  1.2923
 1127TIP3    H224941   2.009   2.627   8.776  0.4168  3.0877 -0.8170
 1128TIP3   OH224942   0.105   5.825   1.771 -0.1525  0.6087 -0.0217
 1128TIP3    H124943   0.072   5.737   1.753  2.2885 -0.1307 -1.3277
 1128TIP3    H224944   0.138   5.820   1.861 -0.8023  0.4646  0.2141
 1129TIP3   OH224945   1.563   0.392   0.197 -0.0463 -0.6341 -0.6967
 1129TIP3    H124946   1.611   0.475   0.206  0.5461 -0.9555 -0.8207
 1129TIP3    H224947   1.491   0.413   0.137  0.6382 -0.4190 -1.4772
 1130TIP3   OH224948   1.330   1.531   0.107  0.4740 -0.4055 -0.1970
 1130TIP3    H124949   1.347   1.590   0.034  0.0560 -1.8215 -1.4976
 1130TIP3    H224950   1.236   1.539   0.122  0.5359 -0.2209  0.0882
 1131TIP3   OH224951   2.199   5.393   1.239 -0.2457  0.2407 -0.6497
 1131TIP3    H124952   2.176   5.300   1.241 -2.3140  0.7120  0.6065
 1131TIP3    H224953   2.127   5.435   1.191 -0.5280  1.4373  0.7374
 1132TIP3   OH224954   2.636   5.585   2.858  0.3219  0.2687  0.3377
 1132TIP3    H124955   2.580   5.652   2.898 -1.5997 -0.1493 -1.4803
 1132TIP3    H224956   2.609   5.503   2.901  0.6633  0.2849  0.5795
 1133TIP3   OH224957   5.643   6.102   1.051 -0.0635  0.0702 -0.5614
 1133TIP3    H124958   5.653   6.070   1.141  0.7662  1.3666 -0.1539
 1133TIP3    H224959   5.728   6.141   1.030  0.1746 -1.3031 -2.3931
 1134TIP3   OH224960   5.983   4.812   7.479 -0.1078  0.0257  0.1672
 1134TIP3    H124961   5.891   4.789   7.469 -0.0386 -0.3206  0.3464
 1134TIP3    H224962   6.026   4.731   7.507 -0.0213  0.5908  1.7683
 1135TIP3   OH224963   4.389   6.542   8.738  0.3715 -0.3397 -0.2259
 1135TIP3    H124964   4.310   6.596   8.730  0.0667 -0.6739  0.4073
 1135TIP3    H224965   4.422   6.533   8.649 -0.6844 -0.7528 -0.5854
 1136TIP3   OH224966   0.759   1.513   7.673  0.4313  0.2908 -0.2180
 1136TIP3    H124967   0.703   1.436   7.680  0.5289  0.0875 -1.4850
 1136TIP3    H224968   0.700   1.584   7.650  0.4305  0.4823  0.3537
 1137TIP3   OH224969   0.786   3.606   8.906 -0.1273 -0.1533  0.3634
 1137TIP3    H124970   0.818   3.687   8.867 -2.1949  0.6536  0.2222
 1137TIP3    H224971   0.769   3.629   8.998  0.4204 -0.7976  0.6435
 1138TIP3   OH224972   3.730   4.764   8.007  0.5120 -0.3076  0.1508
 1138TIP3    H124973   3.766   4.849   8.032  0.0775 -0.2633  0.6191
 1138TIP3    H224974   3.785   4.736   7.933 -0.6071  1.3135 -1.3839
 1139TIP3   OH224975   3.842   1.364   0.148  0.2994 -0.1007  1.1027
 1139TIP3    H124976   3.896   1.385   0.224  1.9273 -1.4652  0.4127
 1139TIP3    H224977   3.905   1.357   0.076 -0.8604 -1.3201  0.1521
 1140TIP3   OH224978   1.760   6.594   2.205  0.0356  0.8104 -0.7114
 1140TIP3    H124979   1.806   6.669   2.245 -2.1286  1.2907  1.0598
 1140TIP3    H224980   1.723   6.547   2.279 -1.1096 -0.3657 -1.9886
 1141TIP3   OH224981   4.813   6.525   7.838  0.1801 -0.2199  0.3426
 1141TIP3    H124982   4.905   6.523   7.811  0.4041  0.8058  0.9803
 1141TIP3    H224983   4.771   6.583   7.774  0.3546  0.7854  1.1273
 1142TIP3   OH224984   1.385   2.017   0.407  0.2675  0.3399  0.1342
 1142TIP3    H124985   1.448   1.964   0.359  1.4589 -0.5280  2.5002
 1142TIP3    H224986   1.310   1.958   0.421 -1.0204  1.2438 -2.3204
 1143TIP3   OH224987   6.652   5.761   0.260  1.1195  0.3825 -0.2043
 1143TIP3    H124988   6.634   5.768   0.166  1.3390  1.5111 -0.1730
 1143TIP3    H224989   6.580   5.708   0.294 -0.6120  2.3830 -0.5533
 1144TIP3   OH224990   1.476   4.813   1.076  0.0311  0.2208 -0.3933
 1144TIP3    H124991   1.509   4.724   1.088  1.5417  0.7443 -0.4410
 1144TIP3    H224992   1.491   4.832   0.983  0.7778  0.9251 -0.1345
 1145TIP3   OH224993   1.378   0.915   8.491 -0.0742 -0.3155  0.4795
 1145TIP3    H124994   1.298   0.871   8.518 -1.7180  1.1485 -1.6696
 1145TIP3    H224995   1.391   0.888   8.400  1.6622 -0.2056  0.6585
 1146TIP3   OH224996   1.086   3.028   2.162  0.3218  0.0540  0.5738
 1146TIP3    H124997   1.148   2.964   2.198  0.4316  0.3931  0.9995
 1146TIP3    H224998   1.057   3.078   2.238  0.5518  0.7756  0.1888
 1147TIP3   OH224999   0.256   2.571   7.944  0.1444 -0.0232  0.1636
 1147TIP3    H125000   0.232   2.521   8.022 -0.5085  0.5252  0.3253
 1147TIP3    H225001   0.211   2.655   7.954  0.1212  0.0900 -0.7599
 1148TIP3   OH225002   4.644   1.285   7.526  0.1410 -0.1306 -0.1343
 1148TIP3    H125003   4.616   1.196   7.544 -1.2086  0.5026  1.0776
 1148TIP3    H225004   4.673   1.283   7.434  0.5914 -1.8922  0.0084
 1149TIP3   OH225005   5.408   2.418   6.766  0.1796 -0.1717  0.0233
 1149TIP3    H125006   5.353   2.350   6.804 -0.8500  0.1881 -0.7727
 1149TIP3    H225007   5.411   2.487   6.833  2.3703 -1.4979  1.4294
 1150TIP3   OH225008   4.889   0.436   7.672 -0.0622 -0.0928  0.4141
 1150TIP3    H125009   4.840   0.432   7.754  1.9960  0.5031  1.7545
 1150TIP3    H225010   4.949   0.509   7.683  1.2147 -0.8403 -1.0825
 1151TIP3   OH225011   6.226   0.543   0.456  0.0217  0.1981  0.4829
 1151TIP3    H125012   6.190   0.554   0.368 -1.2068  0.7279  1.0243
 1151TIP3    H225013   6.149   0.539   0.513  0.7777 -0.7164  1.4783
 1152TIP3   OH225014   2.740   3.262   7.819  0.5554 -0.8237 -0.2959
 1152TIP3    H125015   2.794   3.326   7.774 -1.2031  0.4656 -0.6681
 1152TIP3    H225016   2.794   3.183   7.820  2.4089  0.3622 -0.6696
 1153TIP3   OH225017   3.772   2.056   8.641 -0.5114 -0.4640 -0.3387
 1153TIP3    H125018   3.703   2.096   8.586  1.5681  1.1067 -1.9756
 1153TIP3    H225019   3.735   2.057   8.729 -2.9778 -0.6194 -1.2744
 1154TIP3   OH225020   0.463   5.119   8.823  0.4509  0.0423  0.1641
 1154TIP3    H125021   0.499   5.137   8.736 -0.0816 -2.3100 -0.6231
 1154TIP3    H225022   0.406   5.193   8.842  1.9108  1.4526 -0.6906
 1155TIP3   OH225023   4.595   3.454   7.691  0.1868 -0.1697 -0.2579
 1155TIP3    H125024   4.537   3.527   7.714 -0.0490 -0.5924  0.5435
 1155TIP3    H225025   4.620   3.416   7.775  0.7703 -0.6561 -0.6421
 1156TIP3   OH225026   2.803   3.742   1.436 -0.2093 -0.4960 -0.5826
 1156TIP3    H125027   2.752   3.810   1.391 -1.5029 -1.9668 -1.4764
 1156TIP3    H225028   2.810   3.773   1.526  0.5049  1.4754 -1.2538
 1157TIP3   OH225029   0.103   6.641   8.257 -0.4447 -0.0090  0.0198
 1157TIP3    H125030   0.096   6.715   8.317 -0.2069 -0.1121  0.1739
 1157TIP3    H225031   0.026   6.649   8.200 -0.6352  0.1228  0.2973
 1158TIP3   OH225032   3.882   5.010   8.105 -0.3170 -0.4622  0.1156
 1158TIP3    H125033   3.972   5.042   8.108 -0.3991 -0.2854  2.3184
 1158TIP3    H225034   3.838   5.066   8.040  0.8815  0.1738 -0.1625
 1159TIP3   OH225035   1.829   6.526   8.390 -0.1310 -0.5131 -0.6642
 1159TIP3    H125036   1.778   6.471   8.448  0.9378 -1.3116 -0.4642
 1159TIP3    H225037   1.794   6.508   8.302  0.6100 -1.9957 -0.6795
 1160TIP3   OH225038   6.138   0.002   2.606  0.1093  0.3137  0.1860
 1160TIP3    H125039   6.062  -0.053   2.587 -0.6278 -0.1016  3.7078
 1160TIP3    H225040   6.194  -0.054   2.660  1.9738  1.2939 -0.6650
 1161TIP3   OH225041   0.011   4.471   8.324 -0.4708  0.2277  0.2932
 1161TIP3    H125042   0.090   4.526   8.322 -0.1901 -0.1767  0.2773
 1161TIP3    H225043  -0.037   4.501   8.402 -0.0588  0.1385  0.5831
 1162TIP3   OH225044   0.199   1.385   7.444  0.1996  0.1443  0.2935
 1162TIP3    H125045   0.232   1.458   7.392  0.3008  0.0404  0.2102
 1162TIP3    H225046   0.149   1.333   7.381  0.3486  0.0015  0.2919
 1163TIP3   OH225047   2.710   4.837   8.942 -0.3761  0.1053  0.6655
 1163TIP3    H125048   2.708   4.760   8.885 -1.1284  0.8240 -0.3163
 1163TIP3    H225049   2.803   4.856   8.954 -0.1984 -0.3039 -0.0064
 1164TIP3   OH225050   4.102   5.918   0.909 -0.0610  0.3803 -0.0800
 1164TIP3    H125051   4.110   5.950   0.819  0.4134 -0.2876 -0.2866
 1164TIP3    H225052   4.150   5.981   0.962 -1.4290  1.4939 -0.1104
 1165TIP3   OH225053   2.273   5.801   8.445 -0.2606 -0.4826  0.1110
 1165TIP3    H125054   2.206   5.863   8.415 -0.2690  0.2721  1.5917
 1165TIP3    H225055   2.301   5.756   8.365 -2.1078 -0.4149 -0.6191
 1166TIP3   OH225056   2.340   0.566   8.511  0.6635  0.0687 -0.3049
 1166TIP3    H125057   2.255   0.524   8.495 -0.0887  1.7911 -0.9950
 1166TIP3    H225058   2.349   0.566   8.606 -0.4961  0.5876 -0.1784
 1167TIP3   OH225059   1.622   2.021   2.284  0.2733 -0.1327  0.4336
 1167TIP3    H125060   1.535   2.055   2.300 -0.7969 -1.8989 -1.1639
 1167TIP3    H225061   1.619   1.931   2.316  1.7686 -0.0110  1.0305
 1168TIP3   OH225062   5.021   4.603   8.548 -0.5327  0.1207  0.2136
 1168TIP3    H125063   5.104   4.597   8.595 -1.2039 -1.0203  1.2677
 1168TIP3    H225064   4.954   4.583   8.613 -1.5523 -0.4170 -0.9684
 1169TIP3   OH225065   5.517   1.211   2.185 -0.3151 -0.1824 -0.7673
 1169TIP3    H125066   5.441   1.203   2.242 -1.4790 -1.5869 -2.3977
 1169TIP3    H225067   5.498   1.287   2.130 -0.7585 -0.7550 -1.4273
 1170TIP3   OH225068   1.915   5.521   0.433 -0.0348 -0.4125 -0.5948
 1170TIP3    H125069   1.932   5.475   0.351  1.7968  3.2799 -2.5669
 1170TIP3    H225070   1.843   5.581   0.413  0.3065  0.4222  0.5378
 1171TIP3   OH225071   5.867   4.997   7.713 -0.1988 -0.1300  0.5213
 1171TIP3    H125072   5.782   5.029   7.684  0.8479  2.0175 -0.4336
 1171TIP3    H225073   5.890   4.928   7.650 -0.4718  0.5032 -0.2856
 1172TIP3   OH225074   1.439   6.494   1.831  0.8439  0.5642 -0.2952
 1172TIP3    H125075   1.449   6.428   1.762  2.5355  1.6374 -1.1180
 1172TIP3    H225076   1.393   6.566   1.788 -0.9563  0.0084  0.5910
 1173TIP3   OH225077   1.539   4.841   8.659 -0.5119 -0.3569  0.2127
 1173TIP3    H125078   1.539   4.882   8.572  0.3845  0.4013  0.5453
 1173TIP3    H225079   1.447   4.823   8.677 -1.1522  2.7066  0.5706
 1174TIP3   OH225080   4.935   3.098   1.280 -0.1544 -0.4680  0.0768
 1174TIP3    H125081   4.955   3.004   1.285 -1.9810 -0.9470 -0.5888
 1174TIP3    H225082   4.873   3.113   1.352  0.0851  0.2151  0.1436
 1175TIP3   OH225083   0.854   6.383   2.021 -0.0047 -0.3775 -0.3335
 1175TIP3    H125084   0.894   6.297   2.028  2.0287  0.5888  0.8218
 1175TIP3    H225085   0.828   6.405   2.110 -0.4215  0.2399 -0.6008
 1176TIP3   OH225086   1.998   5.750   0.888 -0.0919  0.2904  0.3482
 1176TIP3    H125087   2.049   5.777   0.812 -0.7824 -0.4624 -0.3890
 1176TIP3    H225088   2.030   5.663   0.910 -1.2839 -0.3431 -0.3447
 1177TIP3   OH225089   2.480   2.973   0.240  0.9249 -0.1762  0.2259
 1177TIP3    H125090   2.474   2.882   0.270  0.4440 -1.1703 -2.5411
 1177TIP3    H225091   2.407   3.017   0.283 -0.5713 -1.8233 -0.4887
 1178TIP3   OH225092   0.921   3.887   8.525 -0.1327  0.0910 -0.1035
 1178TIP3    H125093   0.981   3.829   8.478 -1.1682  0.9412 -2.6267
 1178TIP3    H225094   0.917   3.966   8.472  0.5502  2.2223  2.7712
 1179TIP3   OH225095   3.419   4.444   0.544  0.5928 -0.2895 -0.2866
 1179TIP3    H125096   3.461   4.467   0.627 -0.0092  1.5895 -0.4414
 1179TIP3    H225097   3.490   4.448   0.480  0.4353  1.8972 -0.3945
 1180TIP3   OH225098   3.943   1.061   8.282  0.0173 -0.0062  0.2787
 1180TIP3    H125099   3.928   1.043   8.189 -1.2130 -3.5170  0.9776
 1180TIP3    H225100   3.864   1.030   8.325  1.1638  0.1065  2.6191
 1181TIP3   OH225101   2.543   3.151   7.562 -0.2675 -0.1501  0.4012
 1181TIP3    H125102   2.608   3.211   7.525 -0.9615  0.3034 -0.0945
 1181TIP3    H225103   2.513   3.099   7.488 -0.7452 -0.1000  0.5567
 1182TIP3   OH225104   5.958   0.084   7.325  0.1326 -0.0427 -0.2249
 1182TIP3    H125105   6.052   0.074   7.336  0.1928  1.2045  0.5133
 1182TIP3    H225106   5.941   0.176   7.342 -1.2825 -0.3359  0.0737
 1183TIP3   OH225107   1.518   0.987   2.072  0.1883  0.2798 -1.1878
 1183TIP3    H125108   1.447   0.933   2.037  0.0795  0.7695 -1.7412
 1183TIP3    H225109   1.551   1.035   1.996 -0.4234  1.7936 -0.5343
 1184TIP3   OH225110   6.050   4.417   0.205  0.0003 -0.5661 -0.3240
 1184TIP3    H125111   6.062   4.355   0.133 -0.1033 -1.7620  0.6697
 1184TIP3    H225112   5.985   4.479   0.171  2.1231  0.7161 -2.3676
 1185TIP3   OH225113   0.497   3.759   1.599  0.5200 -0.3690  0.5844
 1185TIP3    H125114   0.507   3.755   1.504 -2.0010  2.7144  0.0027
 1185TIP3    H225115   0.437   3.688   1.620  2.0518 -1.8542  0.1379
 1186TIP3   OH225116   1.690   2.091   1.301  0.8619 -0.2983  0.2894
 1186TIP3    H125117   1.671   2.035   1.376  0.2374 -0.7654 -0.2028
 1186TIP3    H225118   1.610   2.089   1.249  0.5603  1.6162  0.6017
 1187TIP3   OH225119   0.038   4.883   1.953  0.0950 -0.0010 -0.0632
 1187TIP3    H125120   0.114   4.931   1.985 -1.1492  0.7513  1.8810
 1187TIP3    H225121   0.059   4.865   1.861  2.4679  0.4459  0.3170
 1188TIP3   OH225122   6.056   6.666   0.287  0.3333  0.3504  0.1368
 1188TIP3    H125123   6.049   6.651   0.192 -0.8078  0.2507  0.2218
 1188TIP3    H225124   5.968   6.649   0.320  0.2940  2.0434  0.9896
 1189TIP3   OH225125   5.985   6.642   1.532  0.0137 -0.3562  0.2867
 1189TIP3    H125126   6.040   6.575   1.573  2.1730 -1.0448 -3.2872
 1189TIP3    H225127   6.029   6.725   1.553  1.2531 -0.7155 -0.7807
 1190TIP3   OH225128   2.234   1.504   8.836 -0.0869  0.2839 -0.6265
 1190TIP3    H125129   2.318   1.458   8.827  0.0539  0.3920  0.0738
 1190TIP3    H225130   2.171   1.450   8.788 -0.4267 -1.9498  2.1215
 1191TIP3   OH225131   1.487   2.476   7.830  0.0761 -0.6108  0.1606
 1191TIP3    H125132   1.556   2.469   7.765  0.8435  0.1199  0.8803
 1191TIP3    H225133   1.407   2.485   7.779  0.5778 -0.8226 -0.6803
 1192TIP3   OH225134   3.915   5.334   1.619  0.4710  0.0807 -0.2171
 1192TIP3    H125135   3.923   5.423   1.654  0.6311  0.3312 -0.8823
 1192TIP3    H225136   4.004   5.300   1.617  1.1440  1.5561 -4.1870
 1193TIP3   OH225137   6.010   0.441   2.416 -0.4255 -0.2742  0.0336
 1193TIP3    H125138   5.985   0.443   2.509  1.8534 -1.8265  0.7984
 1193TIP3    H225139   6.087   0.498   2.412 -0.1278 -0.7154 -0.7332
 1194TIP3   OH225140   0.077   5.738   7.138  0.3374  0.1836  0.3426
 1194TIP3    H125141   0.165   5.732   7.102  0.1449 -1.4657  0.0356
 1194TIP3    H225142   0.089   5.762   7.230  0.9102  3.0213 -0.3768
 1195TIP3   OH225143   0.781   6.291   0.380 -0.0082 -0.2937 -0.1584
 1195TIP3    H125144   0.811   6.258   0.296 -0.5501 -1.5174  0.1074
 1195TIP3    H225145   0.760   6.213   0.431  1.3207  0.3697  1.5200
 1196TIP3   OH225146   4.453   0.822   3.090 -0.0828 -0.1544  0.8247
 1196TIP3    H125147   4.529   0.790   3.138  2.4465 -0.2608 -2.8277
 1196TIP3    H225148   4.471   0.915   3.075 -0.7473 -0.1379  0.0492
 1197TIP3   OH225149   0.329   4.644   8.033 -0.1814  0.1865  0.3166
 1197TIP3    H125150   0.329   4.603   7.946  1.9401 -2.2611  1.3266
 1197TIP3    H225151   0.378   4.583   8.088  1.7453  3.3614  2.4471
 1198TIP3   OH225152   4.278   2.404   1.080 -0.5719  0.0108  0.2425
 1198TIP3    H125153   4.267   2.493   1.113 -0.7362 -0.0197  0.2710
 1198TIP3    H225154   4.200   2.389   1.027 -0.9556 -0.4117  0.9059
 1199TIP3   OH225155   4.051   6.646   1.518  0.6258 -0.1825 -0.3905
 1199TIP3    H125156   3.995   6.663   1.594  0.7522  0.0509 -0.3501
 1199TIP3    H225157   4.058   6.550   1.515 -0.5821 -0.2665 -0.9881
 1200TIP3   OH225158   5.266   4.026   1.257 -0.7261  0.6373 -0.1651
 1200TIP3    H125159   5.288   4.100   1.199  1.4980  1.5397  1.6823
 1200TIP3    H225160   5.305   3.950   1.214 -4.4527 -0.0078 -2.9730
 1201TIP3   OH225161   3.156   4.744   1.632  0.3171  0.0062  0.3275
 1201TIP3    H125162   3.219   4.815   1.644  1.2184 -0.9932  1.9206
 1201TIP3    H225163   3.209   4.670   1.602 -0.6700  0.0608 -1.7161
 1202TIP3   OH225164   3.072   5.396   2.306 -0.4046  0.5080 -0.4906
 1202TIP3    H125165   2.993   5.370   2.258 -0.5688 -0.2046  0.1542
 1202TIP3    H225166   3.133   5.422   2.237 -1.2930  1.3758 -0.9851
 1203TIP3   OH225167   6.338   0.123   7.620  0.7965 -0.0099  0.6295
 1203TIP3    H125168   6.366   0.071   7.545  0.9025 -0.3902  0.9320
 1203TIP3    H225169   6.245   0.102   7.629  1.0557 -0.9055  1.3503
 1204TIP3   OH225170   2.348   0.668   0.587  0.1937  0.1646 -0.4456
 1204TIP3    H125171   2.418   0.729   0.562  1.5402 -1.3499 -0.5453
 1204TIP3    H225172   2.347   0.603   0.517 -1.6809  0.4147 -0.6919
 1205TIP3   OH225173   6.477   6.558   8.562 -0.2505 -0.1217  0.4503
 1205TIP3    H125174   6.455   6.487   8.622 -2.3138 -1.5345 -1.8352
 1205TIP3    H225175   6.402   6.617   8.565 -0.7635 -0.6401 -1.2861
 1206TIP3   OH225176   2.991   5.853   1.415  0.1834 -0.1336 -0.1940
 1206TIP3    H125177   3.071   5.804   1.434  0.3164 -0.2864 -1.1188
 1206TIP3    H225178   3.022   5.937   1.380 -0.0542  0.2886  0.5827
 1207TIP3   OH225179   5.689   6.273   0.220  0.1101  0.1402  0.0135
 1207TIP3    H125180   5.784   6.285   0.219  0.3438 -1.4974 -0.8852
 1207TIP3    H225181   5.672   6.227   0.302  0.0756  0.4867  0.2030
 1208TIP3   OH225182   3.471   1.162   0.409  0.0456 -0.3296 -0.4862
 1208TIP3    H125183   3.511   1.124   0.487 -2.3328  1.5726  1.8434
 1208TIP3    H225184   3.538   1.222   0.374  2.3015 -3.4018 -1.8910
 1209TIP3   OH225185   0.527   3.106   9.077  0.1447  0.1601  0.7651
 1209TIP3    H125186   0.516   3.189   9.031  0.8032  0.8907  1.8613
 1209TIP3    H225187   0.610   3.115   9.124  1.0969 -1.7746 -0.3966
 1210TIP3   OH225188   5.311   5.413   8.814  0.2880 -0.2302 -0.2716
 1210TIP3    H125189   5.221   5.437   8.792 -0.3232 -1.6887  0.4233
 1210TIP3    H225190   5.321   5.324   8.778  0.8277 -0.7847  1.1537
 1211TIP3   OH225191   6.522   3.208   7.865 -0.4651  0.4691 -0.4040
 1211TIP3    H125192   6.610   3.236   7.887  0.2578 -1.6490 -0.3900
 1211TIP3    H225193   6.508   3.128   7.916 -1.5231 -0.4738 -2.0453
 1212TIP3   OH225194   2.767   6.452   8.836  0.5252  0.5752 -0.1676
 1212TIP3    H125195   2.779   6.484   8.747  0.9194  0.4605 -0.1584
 1212TIP3    H225196   2.820   6.510   8.890  0.0962  0.7930  0.0247
 1213TIP3   OH225197   2.776   6.231   7.728  0.1842 -0.2136  0.0345
 1213TIP3    H125198   2.802   6.139   7.735 -2.0192 -0.9899 -1.0067
 1213TIP3    H225199   2.708   6.241   7.795 -1.2407 -0.0408 -1.3831
 1214TIP3   OH225200   3.274   4.214   0.968  0.5524  1.0951  0.0127
 1214TIP3    H125201   3.306   4.212   1.058  0.6338 -1.5875  0.0117
 1214TIP3    H225202   3.203   4.150   0.966  0.2798  1.3869 -1.7466
 1215TIP3   OH225203   3.595   5.483   1.530  0.1625 -0.4554 -0.3771
 1215TIP3    H125204   3.592   5.422   1.457  1.9219  1.5195 -2.2568
 1215TIP3    H225205   3.645   5.438   1.598  0.5576 -1.4519 -1.3140
 1216TIP3   OH225206   1.861   5.009   2.590 -0.8193  0.1580 -0.3360
 1216TIP3    H125207   1.776   4.971   2.566 -1.4222  0.6630  0.9355
 1216TIP3    H225208   1.858   5.098   2.554 -0.6583  0.0461 -0.6322
 1217TIP3   OH225209   0.225   3.158   1.900 -0.0293  0.3480 -0.5307
 1217TIP3    H125210   0.143   3.190   1.937  1.0500  1.1831  1.2985
 1217TIP3    H225211   0.239   3.074   1.944  0.3375  0.4534 -0.4448
 1218TIP3   OH225212   0.697   4.290   8.530  1.0220 -0.1578  0.0129
 1218TIP3    H125213   0.666   4.355   8.468  1.1190  0.1057  0.2379
 1218TIP3    H225214   0.662   4.319   8.615 -0.0279 -1.1088 -0.0734
 1219TIP3   OH225215   2.549   2.497   7.020  0.5984  0.1606  0.4442
 1219TIP3    H125216   2.620   2.486   6.956 -0.1908  0.7071 -0.5729
 1219TIP3    H225217   2.557   2.588   7.048 -1.2676  1.1152 -1.7356
 1220TIP3   OH225218   5.227   4.296   7.156  0.0555 -0.3716 -0.3683
 1220TIP3    H125219   5.195   4.206   7.148 -0.9678 -0.3093  2.1046
 1220TIP3    H225220   5.308   4.289   7.206 -0.4953  0.1158  0.6237
 1221TIP3   OH225221   5.246   5.889   0.817  0.0846  0.1311 -0.3485
 1221TIP3    H125222   5.295   5.970   0.832  0.1339  0.1464 -0.5792
 1221TIP3    H225223   5.181   5.886   0.887  1.4249 -0.6835  0.8939
 1222TIP3   OH225224   2.094   5.683   7.538  0.4323  0.5604  0.3718
 1222TIP3    H125225   2.156   5.751   7.509 -0.7496  0.9453 -1.3979
 1222TIP3    H225226   2.013   5.731   7.554  0.1310 -0.1744  1.0860
 1223TIP3   OH225227   5.565   6.543   1.896  0.0240 -0.1667 -0.0733
 1223TIP3    H125228   5.559   6.454   1.930  0.2477 -0.5804 -1.0703
 1223TIP3    H225229   5.657   6.567   1.906  0.1264 -0.3571 -0.5420
 1224TIP3   OH225230   0.171   1.338   0.068 -0.2074 -0.5507 -0.2384
 1224TIP3    H125231   0.248   1.362   0.118 -1.0762  2.2062 -0.0462
 1224TIP3    H225232   0.157   1.412   0.008 -1.4257 -1.9878 -1.8539
 1225TIP3   OH225233   6.571   5.073   1.945 -0.2072  0.2158 -0.1796
 1225TIP3    H125234   6.508   5.024   1.892 -0.3525  0.1978  0.0097
 1225TIP3    H225235   6.649   5.018   1.945 -1.1622 -1.3183  2.1668
 1226TIP3   OH225236   4.533   1.922   1.699  0.3172 -0.4065  0.4082
 1226TIP3    H125237   4.573   1.985   1.759  0.5848 -0.2426  0.0556
 1226TIP3    H225238   4.598   1.852   1.692  1.0470  0.3856 -1.0535
 1227TIP3   OH225239   6.458   5.583   2.266 -0.0012 -0.3924  0.7083
 1227TIP3    H125240   6.427   5.628   2.345 -2.0703 -0.0633 -0.2404
 1227TIP3    H225241   6.379   5.548   2.226  0.9806 -0.3748 -1.3322
 1228TIP3   OH225242   2.330   6.291   0.966  0.4047 -0.1112  0.3141
 1228TIP3    H125243   2.280   6.252   0.894 -1.0843 -2.0834  2.2725
 1228TIP3    H225244   2.292   6.377   0.978  0.7483  0.2989 -1.2719
 1229TIP3   OH225245   3.804   3.726   1.524  0.4743 -0.2281 -0.3898
 1229TIP3    H125246   3.778   3.682   1.444  1.6942 -2.2302  0.2348
 1229TIP3    H225247   3.743   3.694   1.590  0.6273 -0.0591 -0.1632
 1230TIP3   OH225248   1.092   1.337   8.263  0.2755  0.1783 -0.7020
 1230TIP3    H125249   1.009   1.336   8.310  0.6802 -0.3328  0.0225
 1230TIP3    H225250   1.110   1.245   8.243 -0.1884  0.4299 -2.4228
 1231TIP3   OH225251   3.774   4.179   0.772  0.1454  0.1302 -0.1939
 1231TIP3    H125252   3.754   4.098   0.819 -1.5668 -0.0143 -1.1008
 1231TIP3    H225253   3.820   4.233   0.836 -0.2528 -0.8761  0.9821
 1232TIP3   OH225254   3.005   6.619   9.084 -0.1660 -0.6403 -0.0641
 1232TIP3    H125255   3.010   6.613   8.988 -2.2672 -1.3662 -0.1772
 1232TIP3    H225256   3.062   6.693   9.106 -0.1020 -0.0792 -1.9234
 1233TIP3   OH225257   3.499   1.219   8.614 -0.5084  0.1215  0.3472
 1233TIP3    H125258   3.413   1.229   8.654 -1.8933 -0.0954 -2.3513
 1233TIP3    H225259   3.502   1.127   8.587  0.2646  0.2955 -0.1952
 1234TIP3   OH225260   6.492   6.044   0.241 -0.0197 -0.0417 -0.3542
 1234TIP3    H125261   6.511   5.967   0.188 -0.6961 -1.4296  1.3433
 1234TIP3    H225262   6.461   6.109   0.178  1.0849 -0.9480 -1.8933
 1235TIP3   OH225263   4.580   3.709   2.536  0.1646 -0.2541  0.5746
 1235TIP3    H125264   4.622   3.766   2.601 -0.2904  0.1895  0.4838
 1235TIP3    H225265   4.501   3.756   2.510  0.5528 -0.2219 -0.6165
 1236TIP3   OH225266   0.060   1.209   0.515  0.2352 -0.1330  0.1312
 1236TIP3    H125267   0.079   1.277   0.451 -0.8308 -0.3268 -0.4038
 1236TIP3    H225268  -0.035   1.209   0.523  0.3644  0.2725  2.1450
 1237TIP3   OH225269   1.453   1.260   0.842  0.2264 -0.4775 -0.2444
 1237TIP3    H125270   1.532   1.313   0.838 -0.8205  1.1383 -0.3133
 1237TIP3    H225271   1.418   1.275   0.930 -0.6767 -0.1479 -0.6493
 1238TIP3   OH225272   3.116   2.417   8.774 -0.0530  0.4128  0.6469
 1238TIP3    H125273   3.038   2.472   8.771  0.1751  0.7501  0.8332
 1238TIP3    H225274   3.082   2.327   8.774 -0.4297  0.5531  0.4624
 1239TIP3   OH225275   0.496   6.201   7.518 -0.2664 -0.2932  0.4145
 1239TIP3    H125276   0.411   6.187   7.477 -1.1705  0.6315  1.9052
 1239TIP3    H225277   0.526   6.114   7.543 -0.9518 -0.5898  0.2204
 1240TIP3   OH225278   1.597   6.442   0.020  0.0405 -0.0826 -0.0891
 1240TIP3    H125279   1.530   6.375   0.033  0.5649 -0.5980 -0.0005
 1240TIP3    H225280   1.654   6.407  -0.048  0.3310  0.2640 -0.0300
 1241TIP3   OH225281   3.643   0.013   8.208 -0.0022 -0.0852 -0.2740
 1241TIP3    H125282   3.667  -0.068   8.162 -1.5884 -1.4036  1.0984
 1241TIP3    H225283   3.592   0.062   8.144  1.8002  0.3421 -1.4537
 1242TIP3   OH225284   1.545   2.529   0.593 -0.0832  0.0162  0.2870
 1242TIP3    H125285   1.596   2.566   0.521 -0.3129  1.0257  0.6286
 1242TIP3    H225286   1.500   2.453   0.554  0.6104 -0.0713 -0.3561
 1243TIP3   OH225287   6.527   1.074   8.068  0.1354 -0.1331  0.4391
 1243TIP3    H125288   6.549   1.162   8.036  1.9680 -0.1304  1.5225
 1243TIP3    H225289   6.590   1.017   8.024 -0.2049 -0.7178  0.7053
 1244TIP3   OH225290   2.005   2.056   1.230 -0.2879 -0.2724  0.4075
 1244TIP3    H125291   1.960   2.069   1.314  0.3355  1.5586  0.4816
 1244TIP3    H225292   2.079   2.116   1.232  0.4967 -1.1410 -0.9368
 1245TIP3   OH225293   1.459   3.526   1.206 -0.9065 -0.0582 -0.1655
 1245TIP3    H125294   1.433   3.487   1.122  0.8479  0.9641 -1.2479
 1245TIP3    H225295   1.519   3.462   1.244  0.8054  0.8138 -1.2490
 1246TIP3   OH225296   6.547   3.231   7.140 -0.2599 -0.2535  0.4839
 1246TIP3    H125297   6.624   3.235   7.083  0.7381  2.7588  1.8685
 1246TIP3    H225298   6.533   3.137   7.154  1.8496 -0.9574 -1.5041
 1247TIP3   OH225299   3.868   3.598   0.818  0.2156  0.2113  0.4787
 1247TIP3    H125300   3.826   3.600   0.732  1.9341 -2.9120 -0.6015
 1247TIP3    H225301   3.802   3.560   0.876  0.0008 -0.4236 -0.1671
 1248TIP3   OH225302   3.074   0.912   7.009 -0.2375 -0.1189 -0.7033
 1248TIP3    H125303   3.111   0.894   7.096  0.5395  1.0907 -0.7493
 1248TIP3    H225304   3.128   0.984   6.975 -1.8368  0.8568 -1.3168
 1249TIP3   OH225305   3.472   4.993   8.537  0.4600  0.0921 -0.3107
 1249TIP3    H125306   3.499   4.918   8.589  1.5549  0.1707 -0.7252
 1249TIP3    H225307   3.432   5.053   8.600 -0.3908 -0.8015  0.0258
 1250TIP3   OH225308   1.929   1.574   1.875 -0.4152  0.4132  0.3717
 1250TIP3    H125309   1.974   1.621   1.804 -1.0531 -0.4988 -0.6663
 1250TIP3    H225310   1.841   1.612   1.877 -0.1036  1.1349  1.3816
 1251TIP3   OH225311   3.373   4.477   7.367  0.8769  0.4463  0.2199
 1251TIP3    H125312   3.290   4.455   7.409 -0.5850  0.6371 -2.3622
 1251TIP3    H225313   3.429   4.401   7.382 -0.2437 -0.2887  0.7950
 1252TIP3   OH225314   1.989   1.448   8.244 -0.2540  0.0151 -0.1737
 1252TIP3    H125315   2.045   1.495   8.182 -0.3532 -0.9082 -0.9739
 1252TIP3    H225316   2.044   1.378   8.278 -0.4754 -0.0129  0.1315
 1253TIP3   OH225317   1.596   3.627   0.975 -0.0070  0.0126 -0.1343
 1253TIP3    H125318   1.666   3.562   0.966  0.2973  0.0951  1.3655
 1253TIP3    H225319   1.517   3.581   0.945  0.3930 -0.6941 -0.1227
 1254TIP3   OH225320   5.045   3.315   7.370 -0.0239 -0.2688  0.3272
 1254TIP3    H125321   5.111   3.324   7.439 -0.3974  1.0755  0.5404
 1254TIP3    H225322   5.089   3.345   7.291 -0.1447 -0.0935  0.3263
 1255TIP3   OH225323   6.703   0.272   0.866  0.3728  0.3763 -0.4441
 1255TIP3    H125324   6.695   0.262   0.771  2.5729 -0.7486 -0.5847
 1255TIP3    H225325   6.651   0.201   0.903  0.3386  0.1871 -0.8546
 1256TIP3   OH225326   4.137   5.393   0.929  0.1888  0.3798  0.0026
 1256TIP3    H125327   4.070   5.457   0.905  0.9407  0.8740 -0.8249
 1256TIP3    H225328   4.139   5.332   0.856  1.9814  1.4771 -0.9276
 1257TIP3   OH225329   0.181   1.619   8.081  0.3669  0.5583 -0.1756
 1257TIP3    H125330   0.117   1.664   8.026  0.4264  0.5617 -0.2423
 1257TIP3    H225331   0.252   1.596   8.022 -0.5316 -1.3984 -0.5795
 1258TIP3   OH225332   2.309   2.532   7.686  0.2702  0.1831  0.8070
 1258TIP3    H125333   2.393   2.574   7.704  1.2953 -0.3771 -2.0318
 1258TIP3    H225334   2.310   2.516   7.591 -3.2658  0.6005  0.5328
 1259TIP3   OH225335   1.277   3.540   0.475 -0.3414  0.0015  0.1649
 1259TIP3    H125336   1.270   3.461   0.420 -0.8060 -0.4258  0.8127
 1259TIP3    H225337   1.208   3.597   0.442 -1.1756 -0.5966  0.8258
 1260TIP3   OH225338   1.535   6.518   0.640  0.4407  0.0438 -0.3272
 1260TIP3    H125339   1.551   6.612   0.653  2.0909 -0.2742  0.2876
 1260TIP3    H225340   1.607   6.475   0.687 -0.6478 -1.5596 -0.0446
 1261TIP3   OH225341   4.029   1.622   7.902  0.3670 -0.5638  0.3018
 1261TIP3    H125342   4.049   1.664   7.819  1.4725 -1.5466  0.0457
 1261TIP3    H225343   4.083   1.543   7.903 -2.5571 -2.7819  0.1115
 1262TIP3   OH225344   1.353   4.463   8.874  0.3287 -0.0974 -0.1422
 1262TIP3    H125345   1.319   4.547   8.905  1.2411  0.4047 -0.4546
 1262TIP3    H225346   1.299   4.442   8.798 -1.5701 -1.0690  1.4028
 1263TIP3   OH225347   5.916   4.998   0.200 -0.5191  0.1030  0.4626
 1263TIP3    H125348   5.932   4.930   0.135 -0.8646  0.2797  0.1944
 1263TIP3    H225349   5.871   5.067   0.153  0.3363  0.7731  0.6009
 1264TIP3   OH225350   5.683   3.813   8.146 -0.1262 -0.1368  0.2236
 1264TIP3    H125351   5.593   3.847   8.146  0.3625  1.2138  0.5926
 1264TIP3    H225352   5.676   3.728   8.102 -1.5100  0.1413 -0.1558
 1265TIP3   OH225353   5.734   0.271   0.316  0.4768  0.6543  0.5560
 1265TIP3    H125354   5.802   0.319   0.269  0.1975 -0.9314 -1.6271
 1265TIP3    H225355   5.781   0.225   0.386  1.8503 -0.9614 -1.3291
 1266TIP3   OH225356   0.453   5.734   2.410 -0.3809 -0.0481  0.1550
 1266TIP3    H125357   0.464   5.825   2.437 -1.1839 -0.0201  0.4188
 1266TIP3    H225358   0.368   5.732   2.366 -0.6619 -0.7884  0.7030
 1267TIP3   OH225359   6.213   4.254   8.574  0.0809 -0.4127 -0.2135
 1267TIP3    H125360   6.209   4.261   8.479  3.5963 -0.7896 -0.5223
 1267TIP3    H225361   6.209   4.345   8.605  1.1895 -0.0913 -0.9468
 1268TIP3   OH225362   0.611   0.545   1.043  0.1783  0.1337 -0.6330
 1268TIP3    H125363   0.668   0.488   1.095 -2.4715 -0.6321  1.7038
 1268TIP3    H225364   0.649   0.632   1.053  2.2850 -0.6503 -1.2690
 1269TIP3   OH225365   4.159   2.828   0.269  0.2161 -0.1335  0.3925
 1269TIP3    H125366   4.165   2.923   0.259  1.0690 -0.0614  1.4546
 1269TIP3    H225367   4.219   2.793   0.203  0.9329  0.1110  0.9102
 1270TIP3   OH225368   2.467   4.041   8.204  0.2241 -0.2650  0.2810
 1270TIP3    H125369   2.561   4.027   8.219  0.4113  0.6091 -0.0225
 1270TIP3    H225370   2.441   4.099   8.275 -0.1620 -0.7388  0.5332
 1271TIP3   OH225371   0.083   6.093   7.651 -0.2220  0.0850 -0.3662
 1271TIP3    H125372   0.021   6.107   7.579 -1.3298 -1.5790  0.1878
 1271TIP3    H225373   0.105   6.000   7.644 -1.4361 -0.4810  2.2298
 1272TIP3   OH225374   2.457   5.161   8.575 -0.3917  0.1127  0.0391
 1272TIP3    H125375   2.550   5.153   8.593  0.0351  0.7081 -1.7156
 1272TIP3    H225376   2.425   5.071   8.566  0.7275 -0.0920 -2.5771
 1273TIP3   OH225377   0.277   2.085   2.056  0.5275 -0.2230 -0.2317
 1273TIP3    H125378   0.274   2.177   2.084 -1.8392  0.3005 -1.9055
 1273TIP3    H225379   0.341   2.045   2.114  0.3880  2.1049  1.6974
 1274TIP3   OH225380   0.793   0.709   3.116  0.3510  0.5831 -0.1858
 1274TIP3    H125381   0.802   0.805   3.116  3.6326  0.3921 -0.4715
 1274TIP3    H225382   0.848   0.680   3.043  2.0245 -1.5993  1.7862
 1275TIP3   OH225383   5.830   1.021   1.584  0.4062 -0.3508 -0.0666
 1275TIP3    H125384   5.888   0.952   1.553  2.8133  1.3346  0.3828
 1275TIP3    H225385   5.840   1.091   1.520 -0.5810  0.2698  0.4297
 1276TIP3   OH225386   1.712   6.355   8.187  0.1353  0.0918  0.4381
 1276TIP3    H125387   1.719   6.424   8.121 -1.7027  1.5988  1.7183
 1276TIP3    H225388   1.624   6.319   8.175  0.1026 -0.2190  1.4743
 1277TIP3   OH225389   1.557   1.280   1.970 -0.2043 -0.6120 -0.2693
 1277TIP3    H125390   1.628   1.289   2.033 -0.5887 -0.9516  0.2202
 1277TIP3    H225391   1.481   1.318   2.014  0.0337  1.4130 -1.4619
 1278TIP3   OH225392   5.336   1.234   7.989 -0.3936  0.1821  0.4770
 1278TIP3    H125393   5.258   1.279   7.957 -0.2767 -0.4803 -0.8046
 1278TIP3    H225394   5.311   1.142   7.995  1.0190 -0.5690 -2.7886
 1279TIP3   OH225395   1.764   4.181   2.195  0.1726  0.3589 -0.4073
 1279TIP3    H125396   1.785   4.259   2.246  1.2500  0.7048 -1.3415
 1279TIP3    H225397   1.722   4.214   2.116 -2.1146 -0.2128  0.4910
 1280TIP3   OH225398   5.808   1.377   2.454  0.9703  0.1899 -0.0913
 1280TIP3    H125399   5.804   1.472   2.465 -1.1863  0.0276  1.0123
 1280TIP3    H225400   5.728   1.345   2.495  1.6484 -2.1211 -0.4537
 1281TIP3   OH225401   3.981   2.515   2.410 -0.2668  0.2950  0.0686
 1281TIP3    H125402   3.931   2.450   2.458  1.2779 -0.2750  0.9554
 1281TIP3    H225403   4.039   2.464   2.354  0.3057  0.9225  0.0852
 1282TIP3   OH225404   4.765   6.058   2.218 -0.0998  0.3940  0.0988
 1282TIP3    H125405   4.737   6.090   2.304  1.5852 -2.4921  1.8779
 1282TIP3    H225406   4.712   5.979   2.203 -1.6382  1.7786 -2.4680
 1283TIP3   OH225407   3.554   5.055   0.377  0.1094  0.1853 -0.5427
 1283TIP3    H125408   3.585   4.965   0.370 -1.9514 -0.4645 -2.7846
 1283TIP3    H225409   3.483   5.052   0.440  0.1985  0.3165 -0.4332
 1284TIP3   OH225410   0.445   1.962   0.311  0.5137 -0.0364 -0.3639
 1284TIP3    H125411   0.431   2.041   0.364 -1.3194 -0.8265  0.3942
 1284TIP3    H225412   0.402   1.980   0.228 -3.4820 -1.5652  1.1378
 1285TIP3   OH225413   1.722   5.783   8.632  0.1353 -0.6340  0.3328
 1285TIP3    H125414   1.655   5.839   8.593  0.5176 -0.5018 -0.1472
 1285TIP3    H225415   1.675   5.732   8.699 -0.7929 -1.6701 -1.0492
 1286TIP3   OH225416   1.357   5.704   1.908  0.2844 -0.3718 -0.3915
 1286TIP3    H125417   1.387   5.703   2.000  1.8574 -1.3109 -0.8595
 1286TIP3    H225418   1.433   5.734   1.859 -0.6732  0.4994 -1.3717
 1287TIP3   OH225419   2.201   1.190   0.833 -0.4886  0.4487  0.1256
 1287TIP3    H125420   2.262   1.217   0.902 -1.1589  1.8841  0.1861
 1287TIP3    H225421   2.233   1.104   0.806 -0.3462 -0.2739  2.3682
 1288TIP3   OH225422   6.048   2.512   1.256 -0.4956 -0.8414  0.1716
 1288TIP3    H125423   6.024   2.550   1.341 -0.1097  0.2574 -0.1966
 1288TIP3    H225424   5.989   2.553   1.194  0.8997  0.3177 -0.4431
 1289TIP3   OH225425   1.290   2.645   0.466  0.1002 -0.9330  0.3898
 1289TIP3    H125426   1.356   2.580   0.491 -0.9408 -2.5742 -0.8656
 1289TIP3    H225427   1.292   2.711   0.535  0.4827 -2.8640  2.3037
 1290TIP3   OH225428   2.413   4.081   1.009  0.2543 -0.1495  0.0057
 1290TIP3    H125429   2.384   4.007   1.062 -1.2421  1.3909  1.4522
 1290TIP3    H225430   2.390   4.057   0.919 -3.2079 -0.1641  0.7720
 1291TIP3   OH225431   2.551   5.656   0.881  0.2990 -0.3744 -0.4459
 1291TIP3    H125432   2.461   5.628   0.899  0.5521 -0.5016  0.7385
 1291TIP3    H225433   2.546   5.752   0.881  0.5826 -0.2690  2.3632
 1292TIP3   OH225434   1.857   1.995   8.164  0.4415  0.1310 -0.3474
 1292TIP3    H125435   1.921   1.992   8.236 -0.9624  0.2820  0.9505
 1292TIP3    H225436   1.819   2.082   8.169 -1.3304 -0.6218  0.2635
 1293TIP3   OH225437   2.100   6.543   1.632  0.2451  0.4715  0.1485
 1293TIP3    H125438   2.117   6.454   1.661 -0.5137  0.1952 -0.2320
 1293TIP3    H225439   2.067   6.588   1.710 -0.2873  0.1574  0.1071
 1294TIP3   OH225440   0.311   6.657   0.964  0.1807  0.4559  0.1219
 1294TIP3    H125441   0.402   6.657   0.993  0.2909  0.9541 -0.2110
 1294TIP3    H225442   0.309   6.716   0.889 -0.3085  0.0171 -0.2262
 1295TIP3   OH225443   4.917   2.937   1.901 -0.3269 -1.3830 -0.4388
 1295TIP3    H125444   4.845   2.999   1.892  0.9554  0.3752  0.7259
 1295TIP3    H225445   4.934   2.934   1.995  3.9491  1.8435 -0.7846
 1296TIP3   OH225446   6.021   3.235   0.627 -0.2578 -0.1442 -0.3654
 1296TIP3    H125447   6.013   3.140   0.621 -0.3133 -0.1259 -0.5891
 1296TIP3    H225448   5.933   3.268   0.611 -0.2144 -0.0499 -0.4108
 1297TIP3   OH225449   3.920   4.610   1.534 -0.4994 -0.2797  0.0258
 1297TIP3    H125450   3.838   4.658   1.546 -0.5232 -0.1450 -0.6681
 1297TIP3    H225451   3.983   4.658   1.588 -0.5214  0.5468 -0.6642
 1298TIP3   OH225452   4.851   6.701   7.516  0.1501  0.5398 -0.4285
 1298TIP3    H125453   4.770   6.681   7.563  1.3866 -1.0218  1.1754
 1298TIP3    H225454   4.889   6.774   7.564 -1.6878  3.4097 -3.0173
 1299TIP3   OH225455   4.467   0.260   1.522  0.2908 -0.5487  0.4265
 1299TIP3    H125456   4.414   0.197   1.572 -0.4353  0.4743  0.9713
 1299TIP3    H225457   4.476   0.335   1.580 -0.6089  0.7041 -0.9993
 1300TIP3   OH225458   5.432   1.696   7.250 -0.0338  0.4140 -0.3631
 1300TIP3    H125459   5.491   1.761   7.290 -0.7844  0.9048 -0.0361
 1300TIP3    H225460   5.424   1.725   7.159 -1.8694  1.9239  0.2242
 1301TIP3   OH225461   0.390   3.747   2.419  0.1479  0.2094  1.1052
 1301TIP3    H125462   0.440   3.690   2.477  0.9581  0.2564  0.4806
 1301TIP3    H225463   0.378   3.828   2.468 -1.3164 -0.5852  2.1385
 1302TIP3   OH225464   5.879   4.888   1.528 -0.1473  0.7888  0.2206
 1302TIP3    H125465   5.931   4.943   1.470  0.5287 -0.2731 -0.1876
 1302TIP3    H225466   5.922   4.803   1.527 -0.1559  0.7061  2.2074
 1303TIP3   OH225467   6.683   0.397   0.296  0.1668  0.2078 -0.6299
 1303TIP3    H125468   6.659   0.408   0.388  0.5198  1.4935 -0.6622
 1303TIP3    H225469   6.654   0.479   0.255 -0.4060 -0.5491 -1.7559
 1304TIP3   OH225470   2.407   3.294   2.029 -0.0396  0.2363  0.3661
 1304TIP3    H125471   2.420   3.248   2.112  1.1840  1.0202  0.6283
 1304TIP3    H225472   2.382   3.225   1.968  0.6475 -0.6175  1.0099
 1305TIP3   OH225473   0.520   3.861   0.054  0.2707  0.2112  0.0635
 1305TIP3    H125474   0.492   3.936   0.106 -2.5121 -0.3411 -0.4739
 1305TIP3    H225475   0.522   3.894  -0.036 -0.1020 -0.1092 -0.0678
 1306TIP3   OH225476   1.968   1.092   1.317 -0.3608 -0.4309 -0.0083
 1306TIP3    H125477   2.024   1.036   1.264  0.3442 -0.2838  0.5594
 1306TIP3    H225478   1.924   1.149   1.254  1.2749  0.4834 -0.4055
 1307TIP3   OH225479   3.328   2.831   0.059  0.5094  0.0089  0.3748
 1307TIP3    H125480   3.279   2.751   0.077 -1.5250  0.6139 -2.0163
 1307TIP3    H225481   3.330   2.877   0.143  1.1786 -2.1777  1.6492
 1308TIP3   OH225482   1.320   3.916   8.545  0.5105  0.1008  0.5643
 1308TIP3    H125483   1.353   3.903   8.456  1.3266  0.6171  0.7777
 1308TIP3    H225484   1.270   3.837   8.564  0.2150  0.0425 -0.4011
 1309TIP3   OH225485   5.113   5.828   1.395  0.0356 -0.4803  0.0450
 1309TIP3    H125486   5.043   5.777   1.436  0.5281 -1.6783 -0.5642
 1309TIP3    H225487   5.182   5.764   1.377  0.7559  0.4431 -0.5699
 1310TIP3   OH225488   6.730   4.185   7.958 -0.0253  0.1648 -0.0474
 1310TIP3    H125489   6.793   4.125   7.918  0.0406 -1.0319  1.7310
 1310TIP3    H225490   6.663   4.128   7.996 -0.4310  1.2403  0.9348
 1311TIP3   OH225491   6.626   0.716   0.931 -0.3894  0.5220 -0.3403
 1311TIP3    H125492   6.702   0.700   0.875 -0.5843  0.2631 -0.5329
 1311TIP3    H225493   6.566   0.644   0.912 -0.4953  0.4793  0.1396
 1312TIP3   OH225494   2.753   2.038   0.865  0.5959 -0.5687  0.1325
 1312TIP3    H125495   2.745   2.005   0.775 -0.8192  1.5268 -0.5922
 1312TIP3    H225496   2.669   2.017   0.905  1.0077 -0.9765  0.7849
 1313TIP3   OH225497   2.868   6.177   8.871  0.0450 -0.2808  1.0629
 1313TIP3    H125498   2.819   6.258   8.855 -1.2876 -1.3054 -0.2663
 1313TIP3    H225499   2.800   6.111   8.886  1.0979 -1.3207  1.3548
 1314TIP3   OH225500   4.503   5.919   9.037 -0.0357  0.1623 -0.2831
 1314TIP3    H125501   4.533   5.937   8.948  1.3120 -1.9527 -0.3298
 1314TIP3    H225502   4.568   5.962   9.093 -0.8356  1.4188 -0.2821
 1315TIP3   OH225503   3.095   1.129   7.349  0.1005 -0.2638  0.2732
 1315TIP3    H125504   3.183   1.091   7.343  0.2559  0.2069 -0.5581
 1315TIP3    H225505   3.102   1.194   7.420  0.4763 -0.1030  0.0924
 1316TIP3   OH225506   5.812   3.171   8.768  0.2305 -0.0612  0.0033
 1316TIP3    H125507   5.788   3.223   8.691 -1.4053 -0.7346  0.0116
 1316TIP3    H225508   5.886   3.119   8.738 -0.0292  0.0883 -0.9591
 1317TIP3   OH225509   1.808   6.350   0.290 -0.6875 -0.0113  0.2892
 1317TIP3    H125510   1.778   6.415   0.227 -1.9914  0.7080  1.6045
 1317TIP3    H225511   1.735   6.289   0.299  0.3880 -1.5037 -0.6628
 1318TIP3   OH225512   4.786   4.186   7.150 -0.3036 -0.6134 -0.8666
 1318TIP3    H125513   4.828   4.100   7.153 -1.5783 -1.2544  1.7128
 1318TIP3    H225514   4.725   4.185   7.224  1.4153  3.4187  0.9092
 1319TIP3   OH225515   1.714   3.045   1.363 -0.1653  0.5423  0.5467
 1319TIP3    H125516   1.656   2.970   1.370 -0.5615  0.9517  1.8082
 1319TIP3    H225517   1.702   3.093   1.445  1.3270  1.0861  0.4785
 1320TIP3   OH225518   5.850   2.896   1.245  0.6222  0.1469  0.1065
 1320TIP3    H125519   5.881   2.838   1.176  1.1478  0.1968  0.2965
 1320TIP3    H225520   5.760   2.867   1.262 -0.7409  2.1373 -2.7927
 1321TIP3   OH225521   3.617   2.200   0.994 -0.6090 -0.0931 -0.0078
 1321TIP3    H125522   3.695   2.146   0.981 -1.7691 -1.7105 -0.6100
 1321TIP3    H225523   3.562   2.181   0.917 -1.7908  0.6442  0.6288
 1322TIP3   OH225524   6.080   1.118   0.387 -0.0592 -0.4070  0.3586
 1322TIP3    H125525   6.122   1.196   0.423  1.0148 -1.0534  0.5293
 1322TIP3    H225526   6.126   1.044   0.426 -1.1887 -1.1457  0.3461
 1323TIP3   OH225527   1.867   0.330   1.005 -0.3064  0.1848  0.0108
 1323TIP3    H125528   1.908   0.276   1.074 -2.7468 -1.0586  0.6067
 1323TIP3    H225529   1.920   0.312   0.927 -0.7259 -2.8438  0.2771
 1324TIP3   OH225530   1.931   6.081   1.923 -0.1814  0.4650  0.3790
 1324TIP3    H125531   1.954   6.139   1.996 -0.3408 -1.0276  1.6772
 1324TIP3    H225532   1.967   5.996   1.948  0.3892  0.0545 -1.6526
 1325TIP3   OH225533   5.638   0.573   8.378 -0.4094  0.1471  0.0413
 1325TIP3    H125534   5.600   0.630   8.445 -0.2909 -0.1271  0.3464
 1325TIP3    H225535   5.604   0.606   8.295 -0.1085  0.8421  0.1902
 1326TIP3   OH225536   5.624   0.684   7.791 -0.2040 -0.1478  0.1343
 1326TIP3    H125537   5.620   0.590   7.809  0.3327 -0.1647  0.1993
 1326TIP3    H225538   5.716   0.707   7.807 -0.4392  0.4874  0.6244
 1327TIP3   OH225539   3.967   6.727   8.258 -0.3028 -0.4018  0.2199
 1327TIP3    H125540   3.900   6.759   8.318 -1.2174 -1.6779 -0.0635
 1327TIP3    H225541   3.991   6.804   8.206 -0.6640  0.3517  1.1330
 1328TIP3   OH225542   0.007   6.238   0.234 -0.2211 -0.2923 -0.6139
 1328TIP3    H125543   0.087   6.220   0.284 -0.5136 -0.7262 -0.2932
 1328TIP3    H225544   0.027   6.206   0.146 -1.1408 -3.4888  0.2073
 1329TIP3   OH225545   1.036   4.449   8.610  0.1097 -0.0349 -0.1728
 1329TIP3    H125546   1.030   4.393   8.688 -2.2085 -1.4355 -1.2346
 1329TIP3    H225547   0.978   4.523   8.630 -0.1288 -0.1624 -0.3931
 1330TIP3   OH225548   5.292   4.717   1.583 -0.0340 -0.0911  0.4756
 1330TIP3    H125549   5.301   4.649   1.516  0.6371  0.3555  0.0943
 1330TIP3    H225550   5.330   4.679   1.662  0.9897  0.0760  0.0804
 1331TIP3   OH225551   3.498   1.125   8.128 -0.5807  0.4490  0.6732
 1331TIP3    H125552   3.430   1.166   8.075 -0.2101 -0.2222 -0.3754
 1331TIP3    H225553   3.558   1.196   8.149 -1.6589  1.0663  1.7208
 1332TIP3   OH225554   4.721   1.282   7.241  0.3167  0.4155 -0.2480
 1332TIP3    H125555   4.639   1.262   7.195 -0.0219 -0.0665  0.5371
 1332TIP3    H225556   4.785   1.224   7.202  0.1025  0.2180 -0.3086
 1333TIP3   OH225557   5.502   0.412   7.047 -0.7001 -0.3922  0.0030
 1333TIP3    H125558   5.430   0.418   7.110 -0.7943 -0.2651 -0.1176
 1333TIP3    H225559   5.544   0.498   7.051  0.3613 -0.9262  1.1634
 1334TIP3   OH225560   4.538   3.632   8.601 -0.1472  0.1627  0.2973
 1334TIP3    H125561   4.508   3.723   8.604 -0.5399  0.0086  2.0171
 1334TIP3    H225562   4.625   3.634   8.642  0.6340  0.0112 -1.2728
 1335TIP3   OH225563   3.291   3.679   0.847 -0.0226 -0.4087  0.1552
 1335TIP3    H125564   3.269   3.764   0.808 -0.1272 -0.0440  0.9888
 1335TIP3    H225565   3.255   3.615   0.787  3.3163 -0.0071 -2.5798
 1336TIP3   OH225566   2.114   4.969   8.417  0.0985 -0.5569  0.5209
 1336TIP3    H125567   2.132   4.954   8.324  3.0903  0.3845  0.8514
 1336TIP3    H225568   2.181   4.919   8.462 -0.2387  0.4032  2.1391
 1337TIP3   OH225569   2.060   6.685   7.913 -0.3998  0.0305  0.0931
 1337TIP3    H125570   1.999   6.738   7.862 -1.2729  0.0219  1.0899
 1337TIP3    H225571   2.116   6.748   7.957 -0.2870  0.0627 -0.0929
 1338TIP3   OH225572   5.813   5.917   2.076 -0.1511  0.1076  0.6868
 1338TIP3    H125573   5.908   5.918   2.072 -0.1791 -0.1971 -0.2061
 1338TIP3    H225574   5.791   5.984   2.140  0.6848 -0.3031  1.4187
 1339TIP3   OH225575   5.435   1.008   2.502  0.0961  0.3756  0.1425
 1339TIP3    H125576   5.453   1.091   2.546  1.6225  0.6456 -0.9118
 1339TIP3    H225577   5.389   1.033   2.422  1.4409  0.3533 -0.6805
 1340TIP3   OH225578   6.239   3.457   0.892  0.0356  0.3202  0.0854
 1340TIP3    H125579   6.260   3.535   0.841  0.5742  0.7078  0.8799
 1340TIP3    H225580   6.321   3.434   0.935 -0.8796  1.3767  2.6158
 1341TIP3   OH225581   1.837   3.409   8.595 -0.2871 -0.1090 -0.1747
 1341TIP3    H125582   1.894   3.388   8.521  0.6983  1.4028  0.1262
 1341TIP3    H225583   1.775   3.472   8.559 -1.9942 -1.8937 -0.5582
 1342TIP3   OH225584   3.750   5.266   8.598  0.5250 -0.1670  0.4068
 1342TIP3    H125585   3.679   5.329   8.590  1.2360  0.7755  1.1139
 1342TIP3    H225586   3.733   5.200   8.531  0.3584  1.3783 -1.1371
 1343TIP3   OH225587   1.314   5.214   8.506 -0.1400 -0.0118  0.3494
 1343TIP3    H125588   1.400   5.175   8.523 -0.5127 -1.0757 -0.1085
 1343TIP3    H225589   1.260   5.141   8.476 -1.2673  0.6068  0.8058
 1344TIP3   OH225590   3.771   3.992   0.222  0.6090 -0.0338 -0.1287
 1344TIP3    H125591   3.846   3.940   0.250 -0.6877 -0.5464  2.6992
 1344TIP3    H225592   3.722   3.933   0.164  0.6419 -0.9799  0.7624
 1345TIP3   OH225593   3.429   0.381   1.219  0.2271  0.1464  0.2248
 1345TIP3    H125594   3.338   0.407   1.231  0.1953  0.4762 -0.6678
 1345TIP3    H225595   3.448   0.324   1.294 -1.2983 -1.4720 -0.5576
 1346TIP3   OH225596   2.111   2.486   1.806 -0.1636  0.1966 -0.1827
 1346TIP3    H125597   2.049   2.549   1.770 -1.1969 -0.4388  0.4261
 1346TIP3    H225598   2.056   2.421   1.851  1.0061  0.7261  2.1819
 1347TIP3   OH225599   4.491   0.854   1.375 -0.5596 -0.3807 -0.2522
 1347TIP3    H125600   4.544   0.862   1.454 -1.2084  1.0837  0.0842
 1347TIP3    H225601   4.546   0.889   1.305 -0.5877 -0.0917 -0.1333
 1348TIP3   OH225602   1.284   0.317   8.342  0.0404 -0.2166  0.0452
 1348TIP3    H125603   1.287   0.263   8.421  1.0954  0.7350  0.6779
 1348TIP3    H225604   1.192   0.312   8.314 -0.6369  0.3400  1.9726
 1349TIP3   OH225605   0.577   0.286   8.833 -0.3054 -0.8330 -0.4824
 1349TIP3    H125606   0.602   0.334   8.912 -0.7095  1.9694 -1.9209
 1349TIP3    H225607   0.660   0.254   8.798  0.2866  0.6927 -0.5648
 1350TIP3   OH225608   2.633   4.373   8.955  0.1398 -0.4004  0.3192
 1350TIP3    H125609   2.583   4.301   8.915 -1.1278  0.7760 -0.3222
 1350TIP3    H225610   2.588   4.390   9.037  0.9619 -0.8867  0.8797
 1351TIP3   OH225611   2.980   6.000   2.196  0.2025  0.3016 -0.4524
 1351TIP3    H125612   2.909   6.011   2.133  1.4956  1.6241 -1.7631
 1351TIP3    H225613   2.948   5.933   2.257 -0.7860 -1.6601 -2.9461
 1352TIP3   OH225614   3.557   2.783   2.135  0.2484  0.5961  0.3476
 1352TIP3    H125615   3.598   2.867   2.153  3.3279 -1.1514  2.3234
 1352TIP3    H225616   3.470   2.789   2.175  1.0962  2.2405  2.0868
 1353TIP3   OH225617   4.987   4.097   1.620 -0.1196  0.2105  0.0492
 1353TIP3    H125618   5.013   4.080   1.529  0.6453  0.3264  0.2442
 1353TIP3    H225619   4.959   4.188   1.621 -0.1955  0.1893 -0.0784
 1354TIP3   OH225620   4.673   3.465   1.658  0.2805 -0.6101 -0.1388
 1354TIP3    H125621   4.580   3.476   1.676  0.4342 -0.6644  0.7284
 1354TIP3    H225622   4.706   3.554   1.646  0.8931 -0.1645  3.6691
 1355TIP3   OH225623   4.592   6.347   1.309 -0.8856 -0.1508 -0.0174
 1355TIP3    H125624   4.666   6.408   1.316 -1.6075  0.7924 -0.3271
 1355TIP3    H225625   4.569   6.349   1.216 -0.4648 -1.4754 -0.1686
 1356TIP3   OH225626   6.586   1.292   7.924 -0.5748 -0.3118 -0.2333
 1356TIP3    H125627   6.558   1.376   7.888  1.6157  0.3456 -0.5203
 1356TIP3    H225628   6.630   1.248   7.851  3.1137  0.6533  1.1706
 1357TIP3   OH225629   2.682   5.437   0.318  0.1744  0.0025 -0.0282
 1357TIP3    H125630   2.697   5.425   0.412  1.7588 -0.5535 -0.3229
 1357TIP3    H225631   2.669   5.531   0.307 -0.2006  0.0534  0.7652
 1358TIP3   OH225632   1.408   6.347   1.190 -0.1205  0.3916 -0.0562
 1358TIP3    H125633   1.367   6.307   1.266  1.8315 -4.2355 -1.1168
 1358TIP3    H225634   1.491   6.381   1.223  0.2295 -0.6237  0.1472
 1359TIP3   OH225635   1.022   1.428   7.915 -0.2740 -0.7625 -0.1100
 1359TIP3    H125636   1.038   1.367   7.843 -0.2344 -0.7007 -0.1532
 1359TIP3    H225637   1.108   1.463   7.936 -0.4050 -0.1398 -0.6030
 1360TIP3   OH225638   3.863   4.917   8.931 -0.0176 -0.1372  0.2535
 1360TIP3    H125639   3.913   4.993   8.900  0.7638 -0.5892  0.3858
 1360TIP3    H225640   3.929   4.859   8.970 -0.8799  0.1498  2.2550
 1361TIP3   OH225641   5.013   3.240   2.208  0.5693 -0.1370  0.1666
 1361TIP3    H125642   5.074   3.168   2.195  1.1185  0.2228  0.7250
 1361TIP3    H225643   4.950   3.208   2.272  1.3231  0.1682  1.0895
 1362TIP3   OH225644   1.096   3.372   2.370 -0.2569  0.2158  0.0600
 1362TIP3    H125645   1.012   3.355   2.412 -0.2780  0.8889  0.3002
 1362TIP3    H225646   1.159   3.374   2.442 -0.1132  0.2375 -0.0656
 1363TIP3   OH225647   5.020   4.168   1.061  0.0328  0.0674  0.6948
 1363TIP3    H125648   4.988   4.125   0.982 -1.4066  1.8152  0.2704
 1363TIP3    H225649   5.108   4.197   1.038 -0.4446  0.7350 -0.3727
 1364TIP3   OH225650   2.130   5.165   7.673 -0.4557 -0.3232 -0.2776
 1364TIP3    H125651   2.144   5.070   7.672  0.5303 -0.1992  0.2573
 1364TIP3    H225652   2.160   5.195   7.588  1.2229 -0.2570  0.3028
 1365TIP3   OH225653   6.685   3.442   0.230 -0.1601 -0.2514 -0.1607
 1365TIP3    H125654   6.739   3.517   0.257 -0.4152  0.1855 -0.8455
 1365TIP3    H225655   6.595   3.469   0.250 -0.2677 -0.3123 -0.5648
 1366TIP3   OH225656   0.290   6.268   1.811 -0.6136  0.2795  0.0153
 1366TIP3    H125657   0.266   6.254   1.903  0.9372 -1.0609  0.2608
 1366TIP3    H225658   0.350   6.196   1.791 -1.4452  0.1542 -2.2620
 1367TIP3   OH225659   3.585   4.268   8.178 -0.2469 -0.2741  0.0453
 1367TIP3    H125660   3.507   4.321   8.195 -0.7143 -1.3057  1.2842
 1367TIP3    H225661   3.565   4.183   8.216  0.5596 -1.3130 -1.7271
 1368TIP3   OH225662   4.095   3.732   1.796  0.3239 -0.4915  0.1778
 1368TIP3    H125663   4.128   3.821   1.811 -1.2691  0.4612 -1.5061
 1368TIP3    H225664   4.054   3.708   1.879  0.6150  0.4013  0.6040
 1369TIP3   OH225665   2.915   5.392   8.719  0.0159 -0.3071 -0.5496
 1369TIP3    H125666   2.967   5.322   8.760 -1.7593 -2.2610 -1.4575
 1369TIP3    H225667   2.972   5.468   8.721  0.8182 -0.7837  3.6489
 1370TIP3   OH225668   1.271   5.553   2.422 -0.4727  0.3533  0.4073
 1370TIP3    H125669   1.215   5.530   2.496 -0.4345 -0.3100  0.2318
 1370TIP3    H225670   1.332   5.480   2.413 -1.4836 -0.3471 -1.2518
 1371TIP3   OH225671   6.176   2.716   8.711 -0.3239  0.0799 -0.3063
 1371TIP3    H125672   6.145   2.638   8.756  0.9341 -0.9146 -1.1051
 1371TIP3    H225673   6.181   2.690   8.619 -0.1203  1.1826 -0.6263
 1372TIP3   OH225674   0.153   4.272   2.121  0.2325  0.8243 -0.6483
 1372TIP3    H125675   0.191   4.264   2.034  0.8244 -0.1544 -0.3140
 1372TIP3    H225676   0.224   4.307   2.176 -0.4043  2.3145 -0.7234
 1373TIP3   OH225677   5.711   3.173   2.458 -0.1725  0.4608  0.3780
 1373TIP3    H125678   5.723   3.079   2.446  0.8696  0.8250 -1.8309
 1373TIP3    H225679   5.622   3.191   2.428  0.2207  0.4093 -0.8480
 1374TIP3   OH225680   1.095   2.379   7.341 -0.2099 -0.4257  0.3250
 1374TIP3    H125681   1.090   2.403   7.248  0.2282 -0.1474  0.3720
 1374TIP3    H225682   1.039   2.443   7.385  1.2228  0.7770  0.4918
 1375TIP3   OH225683   2.628   4.046   0.155 -0.1848 -0.0263 -0.3550
 1375TIP3    H125684   2.688   3.996   0.099  0.2476  0.5581 -0.4284
 1375TIP3    H225685   2.546   3.998   0.152  0.1580 -0.6055 -0.6067
 1376TIP3   OH225686   3.282   3.110   0.846  0.3388  0.3910 -0.5490
 1376TIP3    H125687   3.238   3.125   0.930 -1.7907  2.9714 -1.9859
 1376TIP3    H225688   3.368   3.149   0.856  0.3528  0.0830  0.6320
 1377TIP3   OH225689   1.055   1.935   7.653 -0.3437  0.8043  0.0257
 1377TIP3    H125690   1.027   1.929   7.744 -0.9333  0.0808 -0.1829
 1377TIP3    H225691   1.024   2.021   7.624 -0.3406  0.9506  0.4482
 1378TIP3   OH225692   3.131   3.251   8.261  0.8150  0.3801 -0.0782
 1378TIP3    H125693   3.084   3.277   8.182  1.1176 -2.0016 -1.1228
 1378TIP3    H225694   3.070   3.267   8.332 -0.2284  0.6983 -1.0235
 1379TIP3   OH225695   2.497   5.337   1.445 -0.5782 -0.1096 -0.0651
 1379TIP3    H125696   2.524   5.246   1.433 -2.2849 -0.8941  1.6576
 1379TIP3    H225697   2.578   5.383   1.465  0.2593 -1.3148 -0.5456
 1380TIP3   OH225698   4.984   3.330   7.676 -0.3270 -0.8597  0.0168
 1380TIP3    H125699   5.074   3.355   7.695  0.1708  0.2886 -3.2491
 1380TIP3    H225700   4.931   3.387   7.731  0.9081 -0.5486  0.9205
 1381TIP3   OH225701   2.146   2.273   2.143  0.6797 -0.1018  0.2579
 1381TIP3    H125702   2.117   2.205   2.203 -1.1041 -0.2921 -0.7574
 1381TIP3    H225703   2.203   2.329   2.196  1.9956 -2.2066  1.1807
 1382TIP3   OH225704   1.523   1.584   0.621 -0.3153 -0.2671  0.2136
 1382TIP3    H125705   1.537   1.657   0.681 -1.3258  1.0269 -1.0675
 1382TIP3    H225706   1.601   1.583   0.565 -0.4564  0.0564  0.0102
 1383TIP3   OH225707   3.381   1.951   0.590 -0.3473  0.3923  0.0717
 1383TIP3    H125708   3.349   1.987   0.507 -2.3156  0.2226  0.6906
 1383TIP3    H225709   3.391   1.857   0.573  0.7463  0.5715 -0.3715
 1384TIP3   OH225710   0.291   0.781   1.225  0.2415 -0.6237  0.5473
 1384TIP3    H125711   0.363   0.840   1.201  0.3272  0.1502  2.5546
 1384TIP3    H225712   0.214   0.818   1.181  1.0717 -1.8571 -2.2157
 1385TIP3   OH225713   2.674   4.245   0.632  0.3760  0.8920 -0.0632
 1385TIP3    H125714   2.735   4.318   0.617  1.4377 -0.2843 -1.8791
 1385TIP3    H225715   2.724   4.167   0.609 -1.3023 -0.2651  0.0157
 1386TIP3   OH225716   0.183   5.938   8.713 -0.1211  0.6206  0.1260
 1386TIP3    H125717   0.257   5.897   8.667 -0.6983  0.2355 -0.4736
 1386TIP3    H225718   0.151   6.004   8.652 -1.4085 -0.4434 -0.4182
 1387TIP3   OH225719   4.011   3.107   8.652 -0.5488 -0.2337  0.0649
 1387TIP3    H125720   4.049   3.185   8.693  2.0985 -1.4578  0.1575
 1387TIP3    H225721   3.972   3.139   8.571 -0.3039  1.3005  0.5251
 1388TIP3   OH225722   5.640   2.650   0.798 -0.1301  0.0207  0.6863
 1388TIP3    H125723   5.671   2.625   0.884  1.4262  2.1608  0.8313
 1388TIP3    H225724   5.598   2.736   0.811  0.9327  0.8182 -0.7796
 1389TIP3   OH225725   5.368   5.790   0.458 -0.6745  0.7128  0.0687
 1389TIP3    H125726   5.342   5.711   0.505  1.7589 -0.1150  0.1373
 1389TIP3    H225727   5.437   5.828   0.512 -0.7214  2.0490 -0.7660
 1390TIP3   OH225728   0.997   0.083   1.418 -0.1278 -0.1354  0.1650
 1390TIP3    H125729   1.012   0.161   1.472 -0.6108  0.4640 -0.5397
 1390TIP3    H225730   1.039   0.103   1.334  0.9867 -1.2321  0.4312
 1391TIP3   OH225731   0.050   0.784   1.919 -0.6716  0.2673  0.5220
 1391TIP3    H125732  -0.010   0.709   1.929  1.2168 -1.5314 -0.7910
 1391TIP3    H225733   0.113   0.773   1.989  1.5042 -1.3803 -1.5198
 1392TIP3   OH225734   2.031   3.306   8.964 -0.3961 -0.2235  0.3300
 1392TIP3    H125735   2.043   3.389   8.919  0.0918 -0.3432  0.2304
 1392TIP3    H225736   2.083   3.243   8.914  0.0544 -0.3845  0.9721
 1393TIP3   OH225737   3.531   4.017   0.677 -0.4159  0.4346 -0.3272
 1393TIP3    H125738   3.537   4.009   0.581 -0.3442  2.5335 -0.5370
 1393TIP3    H225739   3.467   4.086   0.691  0.0940  0.6390  1.1249
 1394TIP3   OH225740   3.456   4.976   2.204 -0.5253  0.0084 -0.7147
 1394TIP3    H125741   3.401   5.034   2.150 -2.0124 -0.8181 -0.1584
 1394TIP3    H225742   3.413   4.977   2.290 -0.8442 -2.1914 -0.7888
 1395TIP3   OH225743   5.203   0.924   0.065  0.1392 -0.4626 -0.2336
 1395TIP3    H125744   5.139   0.956   0.003 -1.5205  0.5950  1.8795
 1395TIP3    H225745   5.226   1.001   0.118  0.1296 -1.6174  1.5615
 1396TIP3   OH225746   4.593   2.290   0.165 -0.5987  0.2411  0.8066
 1396TIP3    H125747   4.594   2.344   0.244 -0.5593 -0.3871  1.2393
 1396TIP3    H225748   4.561   2.205   0.194 -2.0405  0.4303 -0.1386
 1397TIP3   OH225749   5.263   1.190   2.033 -0.2655  0.4834 -0.1940
 1397TIP3    H125750   5.250   1.142   2.114 -1.2560  0.0814 -0.5726
 1397TIP3    H225751   5.216   1.139   1.967  0.1399  1.0432 -0.9333
 1398TIP3   OH225752   3.720   0.897   8.089  0.2542 -0.1324 -0.2209
 1398TIP3    H125753   3.738   0.877   7.998 -0.9091 -0.0011 -0.4961
 1398TIP3    H225754   3.677   0.983   8.087  1.8596  0.7310  0.6158
 1399TIP3   OH225755   4.359   4.718   1.901  0.3097 -0.1740 -0.3409
 1399TIP3    H125756   4.415   4.679   1.968  0.1585 -1.0963 -0.7313
 1399TIP3    H225757   4.295   4.769   1.950  1.3817  0.7865  0.1231
 1400TIP3   OH225758   0.656   4.923   0.117 -0.1947 -0.7846  0.6195
 1400TIP3    H125759   0.611   4.868   0.053  0.2927 -1.2377  0.6607
 1400TIP3    H225760   0.749   4.900   0.108  0.0850  0.3826  0.2876
 1401TIP3   OH225761   3.140   0.140   8.208  0.2815  0.0101 -0.5037
 1401TIP3    H125762   3.091   0.059   8.195 -2.0041  1.3169 -0.4553
 1401TIP3    H225763   3.167   0.166   8.120  1.4952 -0.9966 -0.4778
 1402TIP3   OH225764   2.762   5.973   1.106 -0.7168  0.2660 -0.1829
 1402TIP3    H125765   2.678   6.006   1.073 -0.3874 -1.1577 -2.7203
 1402TIP3    H225766   2.820   5.975   1.030  1.1307 -0.1171  1.1676
 1403TIP3   OH225767   3.284   5.253   0.738  0.0100 -0.3332  0.0186
 1403TIP3    H125768   3.220   5.231   0.805 -0.2184  1.5159  0.4573
 1403TIP3    H225769   3.354   5.298   0.785  0.7607 -0.6786 -0.7299
 1404TIP3   OH225770   5.596   3.455   2.076  0.3346  0.8860  0.3293
 1404TIP3    H125771   5.602   3.516   2.150  0.6896 -0.4566  1.4339
 1404TIP3    H225772   5.687   3.434   2.055  0.2531  1.4629 -0.7023
 1405TIP3   OH225773   6.329   5.716   1.883 -0.1205  0.2618  0.5868
 1405TIP3    H125774   6.264   5.646   1.874  1.6968 -1.4251 -0.0923
 1405TIP3    H225775   6.385   5.687   1.955  0.2405  1.3717  0.7590
 1406TIP3   OH225776   6.235   1.501   2.159 -0.2629  0.5719  0.3865
 1406TIP3    H125777   6.291   1.469   2.088  0.0037  1.1808  0.3112
 1406TIP3    H225778   6.293   1.504   2.235 -0.2536  0.9637  0.3675
 1407TIP3   OH225779   4.988   1.664   8.582  0.2315 -0.3479  0.8254
 1407TIP3    H125780   5.001   1.758   8.567 -4.5522  0.7229  1.7922
 1407TIP3    H225781   4.963   1.629   8.497 -0.6754 -0.1068  0.9845
 1408TIP3   OH225782   4.090   4.603   1.317 -0.7065  0.0344  0.0756
 1408TIP3    H125783   4.046   4.625   1.399  0.5581 -1.1520  1.1278
 1408TIP3    H225784   4.174   4.566   1.345  0.2943  0.7512 -1.7989
 1409TIP3   OH225785   2.304   5.112   0.707 -0.0305 -0.1428 -0.0233
 1409TIP3    H125786   2.222   5.131   0.661  0.5690  2.3043 -0.1885
 1409TIP3    H225787   2.340   5.036   0.661  0.9298  2.5492 -4.2942
 1410TIP3   OH225788   1.177   3.747   1.790  0.5709  0.6351 -0.1169
 1410TIP3    H125789   1.096   3.716   1.832  0.2250  0.4556 -0.9042
 1410TIP3    H225790   1.147   3.806   1.721  1.1355  0.8726 -0.1600
 1411TIP3   OH225791   0.303   2.575   2.598 -0.0704  0.4303  0.1006
 1411TIP3    H125792   0.237   2.550   2.533  1.1031  0.1753 -1.0472
 1411TIP3    H225793   0.296   2.670   2.604 -0.4893  0.4115 -0.0884
 1412TIP3   OH225794   3.589   1.477   0.108  0.0297 -0.0176  0.3380
 1412TIP3    H125795   3.674   1.445   0.138  0.8604  0.4387 -1.4234
 1412TIP3    H225796   3.594   1.572   0.118  0.0941  0.0888 -0.6340
 1413TIP3   OH225797   5.464   3.187   8.299 -0.3766 -0.0435 -0.0728
 1413TIP3    H125798   5.451   3.182   8.394 -1.5414 -1.9787 -0.2626
 1413TIP3    H225799   5.432   3.273   8.275 -0.2275  0.4172  1.2650
 1414TIP3   OH225800   1.202   1.824   8.969 -0.3635 -0.0364 -0.3240
 1414TIP3    H125801   1.279   1.809   8.914  0.4853 -2.9328  1.4134
 1414TIP3    H225802   1.237   1.856   9.052 -0.8324 -2.1173  0.7578
 1415TIP3   OH225803   2.488   4.902   2.185 -0.0939 -0.1409 -0.1947
 1415TIP3    H125804   2.476   4.977   2.126  0.9188 -0.1548 -0.4226
 1415TIP3    H225805   2.542   4.936   2.257 -0.9325 -0.2489  0.5099
 1416TIP3   OH225806   1.990   1.110   7.706  0.0898  0.7376 -0.2563
 1416TIP3    H125807   2.077   1.114   7.667 -0.8834  0.1994 -2.5901
 1416TIP3    H225808   1.939   1.055   7.648 -2.5093  3.0337 -0.3756
 1417TIP3   OH225809   4.610   3.039   1.447  0.0093  0.1743  0.1389
 1417TIP3    H125810   4.515   3.023   1.453  0.3271 -1.3501  2.2512
 1417TIP3    H225811   4.650   2.958   1.478  2.0153  0.9942 -0.1460
 1418TIP3   OH225812   4.129   0.418   8.333 -0.7513 -0.2401  0.1339
 1418TIP3    H125813   4.138   0.379   8.246  0.1178 -2.7732  1.2798
 1418TIP3    H225814   4.036   0.413   8.352 -0.5988 -2.5581  0.5244
 1419TIP3   OH225815   0.010   4.305   1.668 -0.0126 -0.0751  0.0646
 1419TIP3    H125816  -0.062   4.345   1.718 -0.6751 -0.4308 -0.5727
 1419TIP3    H225817   0.014   4.215   1.701  0.6387  0.1525  0.6162
 1420TIP3   OH225818   1.420   1.747   0.305 -0.5107 -0.0388 -0.2884
 1420TIP3    H125819   1.420   1.652   0.292  1.1436 -0.2751  1.0078
 1420TIP3    H225820   1.338   1.765   0.350 -1.2267 -0.7111 -1.2794
 1421TIP3   OH225821   6.168   6.212   8.873 -0.1328  0.1023  0.2170
 1421TIP3    H125822   6.141   6.134   8.920 -1.8125 -0.6102 -1.8115
 1421TIP3    H225823   6.142   6.197   8.782  1.8828  1.9108 -0.7755
 1422TIP3   OH225824   5.167   4.769   0.507 -1.0542  0.0136 -0.1765
 1422TIP3    H125825   5.105   4.696   0.516 -3.4620  1.6694 -1.9587
 1422TIP3    H225826   5.182   4.799   0.597  1.8972 -3.9378  0.9219
 1423TIP3   OH225827   0.856   0.110   2.057 -0.1569  0.2803 -0.4714
 1423TIP3    H125828   0.857   0.163   1.977  2.2955  1.0036 -0.0479
 1423TIP3    H225829   0.907   0.032   2.034 -1.3734 -0.5885 -0.2631
 1424TIP3   OH225830   4.642   2.521   1.630  0.5249  0.5136 -0.1681
 1424TIP3    H125831   4.717   2.462   1.626 -0.5509 -0.8932 -0.2764
 1424TIP3    H225832   4.655   2.571   1.710  0.9336 -0.6051  0.4795
 1425TIP3   OH225833   1.353   2.922   8.919  0.4014  0.0220 -0.9288
 1425TIP3    H125834   1.258   2.911   8.921  0.4960 -0.6740  0.1242
 1425TIP3    H225835   1.370   2.998   8.974  0.5572 -0.6900  0.0229
 1426TIP3   OH225836   2.649   2.694   2.159 -0.0353  0.1287 -0.1949
 1426TIP3    H125837   2.663   2.707   2.253 -0.3695  2.0450 -0.3754
 1426TIP3    H225838   2.584   2.624   2.154 -0.9600  0.8565  1.0524
 1427TIP3   OH225839   1.059   3.877   1.174  0.1769  0.2234 -0.5452
 1427TIP3    H125840   1.152   3.870   1.154  0.3540  1.8003 -0.4158
 1427TIP3    H225841   1.016   3.882   1.088  0.4009  1.3353 -0.6058
 1428TIP3   OH225842   4.664   2.450   9.003  0.7826 -0.1498  0.8180
 1428TIP3    H125843   4.748   2.459   9.047  0.4708  3.1856  0.9617
 1428TIP3    H225844   4.609   2.401   9.065  2.2197 -1.3246  1.2126
 1429TIP3   OH225845   4.366   3.111   0.520  0.2788 -0.6852 -0.0155
 1429TIP3    H125846   4.312   3.048   0.567  0.3261 -1.7183 -1.2664
 1429TIP3    H225847   4.304   3.167   0.474  0.2208  0.5929  1.5366
 1430TIP3   OH225848   4.734   4.153   0.011 -0.5691  0.1119  0.6929
 1430TIP3    H125849   4.732   4.248   0.004 -0.8856 -0.0176 -2.0240
 1430TIP3    H225850   4.647   4.124  -0.015  0.1790 -0.9848 -0.7196
 1431TIP3   OH225851   0.591   3.855   7.933 -0.5421  0.2676 -0.0397
 1431TIP3    H125852   0.673   3.811   7.912 -0.2429  1.1207 -0.6837
 1431TIP3    H225853   0.523   3.792   7.908 -0.0983 -0.8161  1.3516
 1432TIP3   OH225854   6.559   5.700   2.045 -0.2027 -0.4166 -0.4708
 1432TIP3    H125855   6.570   5.621   2.098  3.4530 -0.3653 -0.9348
 1432TIP3    H225856   6.528   5.766   2.106 -0.4595 -1.4739  0.5817
 1433TIP3   OH225857   4.363   5.283   8.098  0.1984  0.2530  0.1952
 1433TIP3    H125858   4.280   5.252   8.062  0.7075 -1.5021  0.4184
 1433TIP3    H225859   4.406   5.328   8.026 -0.6915  0.6664 -0.0855
 1434TIP3   OH225860   2.246   3.484   1.258 -0.5132  0.1269 -0.5115
 1434TIP3    H125861   2.318   3.454   1.314  0.2570  0.9959 -1.0161
 1434TIP3    H225862   2.178   3.511   1.320 -0.9186 -1.8045 -0.0334
 1435TIP3   OH225863   1.441   0.660   7.404  0.5329 -0.1398  0.7729
 1435TIP3    H125864   1.378   0.681   7.474 -0.2615  1.1190 -0.2822
 1435TIP3    H225865   1.526   0.661   7.448 -0.1278 -1.6511  2.1801
 1436TIP3   OH225866   1.601   5.606   1.467  0.5890  0.5073  0.3374
 1436TIP3    H125867   1.560   5.520   1.460 -1.1683  1.2088  1.3672
 1436TIP3    H225868   1.673   5.593   1.529  2.4916 -0.8889 -1.9908
 1437TIP3   OH225869   1.828   5.283   7.605  0.4079 -0.1737 -0.1596
 1437TIP3    H125870   1.860   5.265   7.516 -0.6389 -1.9744 -0.2165
 1437TIP3    H225871   1.733   5.278   7.598  0.2959  0.0505  0.9852
 1438TIP3   OH225872   2.995   6.345   8.188  0.2845 -0.0543 -0.2927
 1438TIP3    H125873   2.976   6.343   8.094 -0.3995 -1.9943 -0.1590
 1438TIP3    H225874   2.998   6.253   8.214 -1.1175  0.4406  1.8834
 1439TIP3   OH225875   1.070   0.998   7.424  0.0815 -0.0606 -0.2748
 1439TIP3    H125876   1.027   0.935   7.368 -0.5028  0.9765 -1.0151
 1439TIP3    H225877   1.144   0.949   7.462 -1.2080 -1.6078  0.3543
 1440TIP3   OH225878   3.584   2.463   0.626  0.0351  0.3152 -0.0109
 1440TIP3    H125879   3.596   2.438   0.535  0.4421  1.0813 -0.1788
 1440TIP3    H225880   3.586   2.559   0.625  0.8902  0.3230  0.9016
 1441TIP3   OH225881   6.328   5.036   3.105  0.2401  0.3280  0.0518
 1441TIP3    H125882   6.351   4.980   3.179 -0.7828  1.4782  1.2912
 1441TIP3    H225883   6.408   5.040   3.052  0.7066 -1.2482  0.5924
 1442TIP3   OH225884   4.375   1.089   8.595 -0.0888 -0.0594  0.0647
 1442TIP3    H125885   4.386   1.181   8.573  1.8153 -0.4153 -0.6992
 1442TIP3    H225886   4.318   1.089   8.672  0.9234  1.8291  0.8703
 1443TIP3   OH225887   5.179   0.736   0.791  0.2648  0.1993  0.2423
 1443TIP3    H125888   5.212   0.760   0.705  1.4913 -1.2068  0.2839
 1443TIP3    H225889   5.118   0.664   0.775  0.6742 -0.2237  0.5635
 1444TIP3   OH225890   1.532   2.585   1.191 -0.6407  0.1832 -0.0570
 1444TIP3    H125891   1.506   2.498   1.160 -0.6473  0.0709  0.2528
 1444TIP3    H225892   1.627   2.586   1.183 -0.5807 -0.0878  0.5152
 1445TIP3   OH225893   1.143   5.791   1.762  0.1013  0.1906 -0.6311
 1445TIP3    H125894   1.210   5.772   1.828 -2.4040 -0.0945  2.0248
 1445TIP3    H225895   1.121   5.706   1.725  0.4744  0.1476 -0.7551
 1446TIP3   OH225896   2.247   4.873   2.847  0.2928  0.5870 -0.2459
 1446TIP3    H125897   2.202   4.803   2.893  0.2250 -0.5135 -1.9008
 1446TIP3    H225898   2.178   4.935   2.823  0.2692  0.9441  0.6807
 1447TIP3   OH225899   2.030   4.994   2.346  0.2655  0.2722  0.2436
 1447TIP3    H125900   1.988   5.008   2.260 -0.5268 -1.4413  0.3200
 1447TIP3    H225901   1.963   4.951   2.398  1.4164 -0.5248  1.0949
 1448TIP3   OH225902   3.690   3.627   8.396 -0.0252 -0.0447  0.2017
 1448TIP3    H125903   3.701   3.556   8.333  0.1036 -0.2675  0.4693
 1448TIP3    H225904   3.776   3.667   8.404 -0.0214 -0.0698  0.2942
 1449TIP3   OH225905   2.159   2.573   0.462  0.1240 -0.0983 -0.3706
 1449TIP3    H125906   2.085   2.559   0.403 -1.5459 -0.5335  1.7195
 1449TIP3    H225907   2.163   2.668   0.473 -0.6474 -0.1105  0.1013
 1450TIP3   OH225908   5.814   1.625   8.209  0.4638  0.0011  0.0494
 1450TIP3    H125909   5.722   1.652   8.215  0.2377 -0.5301 -0.8042
 1450TIP3    H225910   5.810   1.530   8.197  1.2382 -0.4638  2.8970
 1451TIP3   OH225911   0.458   0.351   8.593 -0.5443 -0.5264  0.3055
 1451TIP3    H125912   0.493   0.312   8.673 -0.4592  0.0182  0.5322
 1451TIP3    H225913   0.369   0.376   8.616 -1.1516 -1.9988 -0.2980
 1452TIP3   OH225914   0.180   4.390   8.760  0.1226  0.2803  0.2780
 1452TIP3    H125915   0.111   4.352   8.814 -0.0981 -2.2383 -1.6042
 1452TIP3    H225916   0.183   4.482   8.787 -2.3873 -0.0327  2.0149
 1453TIP3   OH225917   4.686   6.132   8.778 -0.3564 -0.6141 -0.0443
 1453TIP3    H125918   4.675   6.188   8.701  1.0970  0.9294  0.7850
 1453TIP3    H225919   4.632   6.055   8.760 -2.7480  1.1823 -1.1125
 1454TIP3   OH225920   0.192   1.365   1.166  0.1569  0.1965  0.0156
 1454TIP3    H125921   0.213   1.452   1.134  1.5969 -0.3083 -0.4616
 1454TIP3    H225922   0.265   1.310   1.137 -1.0377 -1.3053 -0.2620
 1455TIP3   OH225923   5.953   2.385   8.257 -0.2753  0.0629 -0.1960
 1455TIP3    H125924   6.019   2.417   8.196  0.4207  0.2714  0.6595
 1455TIP3    H225925   5.870   2.399   8.211  0.1912  0.8377 -0.8268
 1456TIP3   OH225926   2.462   4.340   3.025 -0.7068 -0.1802 -0.3503
 1456TIP3    H125927   2.493   4.293   2.948 -1.7591 -0.2277 -0.7615
 1456TIP3    H225928   2.407   4.277   3.071 -0.3493 -0.0457  0.2817
 1457TIP3   OH225929   4.823   3.974   8.152  0.4792  0.4381 -0.1683
 1457TIP3    H125930   4.768   3.948   8.077  1.3193 -0.7679 -0.4030
 1457TIP3    H225931   4.898   4.017   8.112  0.5969  0.4112  0.0241
 1458TIP3   OH225932   4.197   3.091   0.143 -0.8377 -0.1872  0.1337
 1458TIP3    H125933   4.263   3.031   0.108 -1.5915 -1.3818  0.6932
 1458TIP3    H225934   4.248   3.163   0.181  0.1820 -1.3875  1.1092
 1459TIP3   OH225935   5.926   6.475   7.815 -0.2813  0.3044  0.0541
 1459TIP3    H125936   5.925   6.481   7.720  1.4651  1.7516  0.0759
 1459TIP3    H225937   5.912   6.382   7.834 -1.1034  0.0723 -1.5698
 1460TIP3   OH225938   5.021   1.119   8.566  0.3238 -0.3332  0.0397
 1460TIP3    H125939   5.103   1.117   8.616  0.3717  0.8673  0.0313
 1460TIP3    H225940   4.963   1.176   8.616 -0.3509 -0.7834 -0.2113
 1461TIP3   OH225941   6.555   1.500   7.526  0.1013  0.0385 -0.6163
 1461TIP3    H125942   6.461   1.514   7.529 -0.0278 -0.8377 -0.3887
 1461TIP3    H225943   6.567   1.428   7.465  0.5080 -0.7209  0.3309
 1462TIP3   OH225944   2.634   1.979   1.341  0.9246  0.1572  0.3389
 1462TIP3    H125945   2.663   2.069   1.326  1.4004 -0.3044 -1.8309
 1462TIP3    H225946   2.705   1.940   1.392  2.6342  0.0124 -1.9650
 1463TIP3   OH225947   5.042   0.144   0.467 -0.7644 -0.1623 -0.1809
 1463TIP3    H125948   5.041   0.093   0.385 -0.9255 -1.2402  0.4750
 1463TIP3    H225949   4.958   0.190   0.466 -1.1455 -0.8325 -0.2360
 1464TIP3   OH225950   2.940   3.425   7.685 -0.1074 -0.0754 -0.1901
 1464TIP3    H125951   2.951   3.367   7.610  0.3622 -1.9698  1.2759
 1464TIP3    H225952   3.029   3.448   7.711 -0.2744  0.7943 -0.3680
 1465TIP3   OH225953   4.621   0.659   2.916 -0.0169 -0.0270  0.1182
 1465TIP3    H125954   4.628   0.751   2.939  0.6840  0.3952 -1.5821
 1465TIP3    H225955   4.703   0.620   2.945  0.6944  0.4166 -1.2040
 1466TIP3   OH225956   6.094   2.954   1.381 -0.1899  0.4803 -0.2803
 1466TIP3    H125957   6.109   2.933   1.474 -0.5530  0.0793 -0.3089
 1466TIP3    H225958   6.001   2.936   1.368 -0.0883  0.3306 -0.7798
 1467TIP3   OH225959   2.303   5.739   9.100 -0.5038  0.2704 -0.1243
 1467TIP3    H125960   2.210   5.755   9.114 -0.1532  3.9095 -0.9568
 1467TIP3    H225961   2.340   5.733   9.188 -1.4726 -1.0998  0.2083
 1468TIP3   OH225962   2.326   4.293   8.045 -0.3799  0.0227 -0.3509
 1468TIP3    H125963   2.372   4.217   8.009  2.7976  1.0405  1.1596
 1468TIP3    H225964   2.334   4.360   7.978 -1.9612 -0.4711 -1.0980
 1469TIP3   OH225965   1.152   2.274   2.332  0.0720  0.6993 -0.0091
 1469TIP3    H125966   1.124   2.353   2.286 -3.8187 -1.0502 -1.0151
 1469TIP3    H225967   1.107   2.278   2.416  2.3032  0.8924  1.2752
 1470TIP3   OH225968   5.388   0.191   7.362  0.4253  0.5886  0.0356
 1470TIP3    H125969   5.369   0.282   7.341  0.0136  0.4066 -0.3957
 1470TIP3    H225970   5.397   0.189   7.457  0.8531  1.1540  0.0114
 1471TIP3   OH225971   0.229   0.468   8.984 -1.1303 -0.6440 -0.3922
 1471TIP3    H125972   0.158   0.531   8.971 -0.1574  0.1890 -1.9325
 1471TIP3    H225973   0.184   0.385   9.000 -2.4624 -0.1821 -1.5584
 1472TIP3   OH225974   0.966   0.049   2.664 -0.3030 -0.3931 -0.4272
 1472TIP3    H125975   0.887  -0.000   2.688  0.3222 -1.0261  0.4234
 1472TIP3    H225976   1.011  -0.007   2.601  0.2363 -0.7693  0.2784
 1473TIP3   OH225977   2.078   2.546   0.847  0.2330 -0.3427  0.0047
 1473TIP3    H125978   2.081   2.552   0.943 -0.0397 -2.0869  0.1536
 1473TIP3    H225979   2.149   2.485   0.825 -0.6681 -1.1289 -0.7734
 1474TIP3   OH225980   2.295   2.318   1.692 -0.0789 -0.7481 -0.2311
 1474TIP3    H125981   2.220   2.372   1.715 -0.1966 -1.1628  0.4050
 1474TIP3    H225982   2.298   2.250   1.760  0.1462 -1.4548 -0.9207
 1475TIP3   OH225983   0.777   1.325   8.425  0.4982 -0.5627  0.3116
 1475TIP3    H125984   0.750   1.390   8.490  0.8232 -0.1670  0.0555
 1475TIP3    H225985   0.700   1.317   8.367  0.0714 -1.1906  0.9466
 1476TIP3   OH225986   6.082   0.294   8.049  0.2051  0.1158 -0.2887
 1476TIP3    H125987   6.041   0.381   8.055  1.6046  0.7844 -0.0522
 1476TIP3    H225988   6.086   0.276   7.955 -2.4464 -0.8970 -0.2923
 1477TIP3   OH225989   0.302   2.187   1.092  0.2516  0.3747  0.4027
 1477TIP3    H125990   0.335   2.111   1.138  0.0904  0.6310  0.9433
 1477TIP3    H225991   0.224   2.156   1.046  0.1371  0.2365  0.6916
 1478TIP3   OH225992   0.578   4.950   7.970  1.1571  0.1681  0.0459
 1478TIP3    H125993   0.502   4.960   8.027  0.3462 -1.1485 -0.7446
 1478TIP3    H225994   0.567   5.018   7.903  0.5069 -0.2070 -0.2341
 1479TIP3   OH225995   6.730   4.214   2.773 -0.1660 -0.5452 -0.7311
 1479TIP3    H125996   6.783   4.193   2.849  0.7003  0.6233 -0.9755
 1479TIP3    H225997   6.787   4.197   2.698  0.2335  1.5672 -0.9659
 1480TIP3   OH225998   6.206   0.880   7.749 -0.1673  0.2513 -0.0884
 1480TIP3    H125999   6.150   0.906   7.676 -0.6543 -0.9990 -0.1738
 1480TIP3    H226000   6.230   0.963   7.791 -2.8516  0.8218  0.5214
 1481TIP3   OH226001   0.289   4.162   7.848  0.1232 -0.0877  0.2347
 1481TIP3    H126002   0.249   4.075   7.854  0.1459 -0.0301  1.7357
 1481TIP3    H226003   0.280   4.187   7.756  1.7235 -2.4093 -0.6330
 1482TIP3   OH226004   3.415   5.030   7.909  0.3145 -0.0471 -0.2319
 1482TIP3    H126005   3.432   5.020   8.002  2.6173 -0.6411 -0.6609
 1482TIP3    H226006   3.363   5.110   7.902  1.1773  0.6925  1.4543
 1483TIP3   OH226007   1.576   5.203   8.640 -0.5192 -0.3853  0.2791
 1483TIP3    H126008   1.631   5.278   8.662 -0.9379  0.4905 -1.4881
 1483TIP3    H226009   1.627   5.155   8.574 -1.4998  0.0047 -0.7985
 1484TIP3   OH226010   5.036   5.752   7.768  0.2514 -0.2619  0.1507
 1484TIP3    H126011   4.985   5.726   7.692  1.7701 -0.6591 -0.7751
 1484TIP3    H226012   5.103   5.811   7.734  0.2637  0.4510  1.3644
 1485TIP3   OH226013   2.006   2.053   1.833  0.6555  0.2883  0.3748
 1485TIP3    H126014   2.000   2.148   1.847  0.4924  0.1707  1.1261
 1485TIP3    H226015   2.045   2.019   1.914 -2.9703 -0.7488  1.8494
 1486TIP3   OH226016   1.470   6.102   1.422 -0.7351  0.4700 -0.5052
 1486TIP3    H126017   1.448   6.009   1.411 -0.4635  0.4119 -0.5668
 1486TIP3    H226018   1.385   6.145   1.434 -0.8173  0.1204  0.2156
 1487TIP3   OH226019   5.277   1.745   0.418 -0.2494  0.4367 -0.2760
 1487TIP3    H126020   5.287   1.781   0.330  0.1663 -1.7479 -1.1783
 1487TIP3    H226021   5.183   1.730   0.427 -0.1736 -0.3404 -0.7733
 1488TIP3   OH226022   5.740   3.639   8.984  0.0975 -0.1819 -0.1217
 1488TIP3    H126023   5.776   3.653   9.071  0.1089  1.1040 -0.3108
 1488TIP3    H226024   5.659   3.691   8.983 -2.1918 -3.4285  0.5084
 1489TIP3   OH226025   0.605   3.445   1.813  0.4094 -0.3648 -0.2565
 1489TIP3    H126026   0.626   3.406   1.899 -0.2269  0.3883  0.2564
 1489TIP3    H226027   0.547   3.381   1.772 -1.0580  0.2393  0.7991
 1490TIP3   OH226028   0.211   2.379   0.625  0.2296  0.0239 -0.2653
 1490TIP3    H126029   0.252   2.401   0.542 -1.4641  0.2782 -1.0852
 1490TIP3    H226030   0.140   2.319   0.602  1.3817 -2.1055  1.3300
 1491TIP3   OH226031   6.620   6.157   7.132 -0.4151  0.7935 -0.4242
 1491TIP3    H126032   6.529   6.172   7.154 -0.1795 -1.5281  2.8651
 1491TIP3    H226033   6.618   6.080   7.075 -0.5099 -0.3955  1.1176
 1492TIP3   OH226034   5.787   0.705   0.473 -0.1104 -0.9670 -0.5739
 1492TIP3    H126035   5.740   0.657   0.541 -1.0106 -0.1456 -0.5988
 1492TIP3    H226036   5.760   0.662   0.392 -1.1711 -0.2441 -0.6245
 1493TIP3   OH226037   3.794   0.129   8.394  0.4680  0.1740  0.0335
 1493TIP3    H126038   3.728   0.140   8.462  1.2730 -0.1436  0.8829
 1493TIP3    H226039   3.745   0.098   8.318 -0.4534  0.6166  0.4328
 1494TIP3   OH226040   5.694   4.205   8.249  0.3711  0.4813 -0.3768
 1494TIP3    H126041   5.610   4.176   8.285 -0.0071  0.2975 -1.3712
 1494TIP3    H226042   5.675   4.293   8.213  0.1865 -0.1597 -1.9488
 1495TIP3   OH226043   5.933   0.918   6.781  0.4226 -0.4168 -0.3604
 1495TIP3    H126044   5.976   0.918   6.867  1.1043 -0.9840 -0.6984
 1495TIP3    H226045   5.852   0.868   6.795 -0.4870  1.1840  0.4316
 1496TIP3   OH226046   3.051   5.039   8.565  0.0703 -0.4358 -0.0533
 1496TIP3    H126047   3.145   5.024   8.574 -0.0042 -0.8292  0.1219
 1496TIP3    H226048   3.011   4.977   8.626 -0.3164 -0.5183 -0.3825
 1497TIP3   OH226049   6.164   1.302   8.025 -0.3003  0.0715  0.3996
 1497TIP3    H126050   6.139   1.364   7.957 -1.9243 -0.3200  0.5971
 1497TIP3    H226051   6.178   1.356   8.102 -1.4414  0.2588  0.4997
 1498TIP3   OH226052   6.088   3.125   0.299  0.0577 -0.9249 -0.6323
 1498TIP3    H126053   6.044   3.094   0.379 -0.1019  0.5019 -0.1499
 1498TIP3    H226054   6.022   3.115   0.230 -0.1395 -1.2221 -0.4068
 1499TIP3   OH226055   4.208   5.706   8.589 -0.6632  0.2433 -0.5561
 1499TIP3    H126056   4.129   5.727   8.640 -0.4088  0.0113 -0.0659
 1499TIP3    H226057   4.192   5.746   8.503 -1.5158 -0.1856 -0.6083
 1500TIP3   OH226058   0.095   0.224   2.968 -0.2664 -0.6602  0.0994
 1500TIP3    H126059   0.038   0.149   2.982 -0.4199 -0.5421  0.1200
 1500TIP3    H226060   0.183   0.188   2.962 -0.3208 -0.8236  0.2880
 1501TIP3   OH226061   4.821   6.342   1.087  0.3695 -0.0373 -0.0520
 1501TIP3    H126062   4.847   6.281   1.156 -0.0702  0.3635  0.4671
 1501TIP3    H226063   4.885   6.413   1.092 -0.6312  0.8099  1.0400
 1502TIP3   OH226064   6.225   4.869   2.316 -0.8662 -0.0799 -0.0243
 1502TIP3    H126065   6.283   4.858   2.391  0.7092 -0.2580 -1.2354
 1502TIP3    H226066   6.274   4.836   2.242 -2.8582 -1.0783 -0.9932
 1503TIP3   OH226067   0.128   5.735   2.321 -0.3129 -0.2050  0.3884
 1503TIP3    H126068   0.154   5.643   2.325 -1.1544 -0.4408  0.5735
 1503TIP3    H226069   0.130   5.765   2.412  1.2478  0.3472  0.2090
 1504TIP3   OH226070   6.227   0.448   0.063 -0.3655  0.5994 -0.1041
 1504TIP3    H126071   6.306   0.467   0.113 -0.6768 -1.0038  1.0966
 1504TIP3    H226072   6.157   0.494   0.110 -0.5991 -0.6029  0.7939
 1505TIP3   OH226073   2.841   2.967   9.102  0.3699  0.5891 -0.1459
 1505TIP3    H126074   2.768   2.954   9.041  0.1691  1.3834 -0.0771
 1505TIP3    H226075   2.872   2.878   9.120 -0.2498  0.2741 -0.5745
 1506TIP3   OH226076   6.681   2.976   0.428  0.7465  0.0774  0.6517
 1506TIP3    H126077   6.705   2.960   0.337  0.8434  1.3168  0.4396
 1506TIP3    H226078   6.622   3.051   0.424  0.1008 -0.3674  1.5416
 1507TIP3   OH226079   2.011   6.632   1.906  0.2058  0.0537 -0.1005
 1507TIP3    H126080   2.074   6.568   1.939  0.8047 -0.1258 -1.5210
 1507TIP3    H226081   1.940   6.632   1.970  1.9089  0.7260  1.8976
 1508TIP3   OH226082   4.758   0.666   7.274  1.1089  0.3518 -0.3182
 1508TIP3    H126083   4.825   0.731   7.251  0.3071  1.7090  0.9664
 1508TIP3    H226084   4.689   0.678   7.209  2.2052 -1.3325 -1.8991
 1509TIP3   OH226085   3.578   4.975   1.422 -0.2623  0.2409 -0.2245
 1509TIP3    H126086   3.577   4.889   1.465  0.9474  0.0723 -0.4823
 1509TIP3    H226087   3.600   4.955   1.331 -0.4593  0.7832 -0.3901
 1510TIP3   OH226088   3.997   0.943   2.746 -0.2562 -0.0609  0.6580
 1510TIP3    H126089   3.948   0.962   2.825 -0.7685 -0.9372  0.5670
 1510TIP3    H226090   4.009   1.028   2.704 -2.9757  0.0928 -0.0475
 1511TIP3   OH226091   4.432   5.660   1.856  0.1916  0.1152  0.1464
 1511TIP3    H126092   4.356   5.640   1.801 -0.2270 -1.6856  1.2820
 1511TIP3    H226093   4.507   5.631   1.805 -0.0544 -0.0219 -0.1428
 1512TIP3   OH226094   3.600   0.481   2.375  0.1242 -0.0548 -0.0333
 1512TIP3    H126095   3.668   0.521   2.429 -0.6494  0.0946  0.8447
 1512TIP3    H226096   3.648   0.442   2.302  0.9875  1.7168 -0.4718
 1513TIP3   OH226097   1.267   2.463   2.015  0.3265 -0.6535 -0.0370
 1513TIP3    H126098   1.193   2.423   2.059  0.2383 -1.5504 -0.9488
 1513TIP3    H226099   1.270   2.420   1.929  1.4798 -0.1537 -0.2732
 1514TIP3   OH226100   0.931   4.475   1.946  0.2046 -0.7044  0.1566
 1514TIP3    H126101   0.937   4.467   1.851 -0.6635 -0.5257  0.0716
 1514TIP3    H226102   0.859   4.536   1.960  0.4982 -0.5228  0.9286
 1515TIP3   OH226103   5.872   0.516   8.092 -0.1511  0.0754  0.3095
 1515TIP3    H126104   5.935   0.553   8.154  1.3974 -1.0406 -0.5208
 1515TIP3    H226105   5.795   0.571   8.100  1.4990  2.5362  0.2127
 1516TIP3   OH226106   4.108   4.831   1.182  0.3151 -0.0228  0.3642
 1516TIP3    H126107   4.121   4.746   1.224 -1.5755 -0.7098 -0.3172
 1516TIP3    H226108   4.128   4.816   1.089 -1.3400 -0.1220 -0.0056
 1517TIP3   OH226109   0.761   4.790   0.784  0.5300  0.2156 -0.3436
 1517TIP3    H126110   0.844   4.780   0.737  1.5182  0.1150  1.3255
 1517TIP3    H226111   0.758   4.883   0.808  0.1975  0.2044 -0.3380
 1518TIP3   OH226112   3.505   5.480   2.219 -0.6900 -0.0937 -0.0853
 1518TIP3    H126113   3.463   5.558   2.255 -0.3363  1.0311 -1.9743
 1518TIP3    H226114   3.508   5.418   2.292  1.1552  2.4605  2.2136
 1519TIP3   OH226115   4.288   1.308   1.611 -0.6352  0.2231  0.4750
 1519TIP3    H126116   4.255   1.220   1.591  0.2542 -0.1100  0.4716
 1519TIP3    H226117   4.279   1.316   1.706  1.0307 -0.6021  0.7345
 1520TIP3   OH226118   3.603   0.237   8.570 -0.7467 -0.4320  0.3982
 1520TIP3    H126119   3.544   0.303   8.535  0.8911  0.5220 -0.7392
 1520TIP3    H226120   3.661   0.285   8.629 -1.0435 -1.3282  1.4429
 1521TIP3   OH226121   5.791   0.151   7.710 -0.1883  0.4933 -0.5907
 1521TIP3    H126122   5.750   0.126   7.627  0.9545  1.0327 -1.3513
 1521TIP3    H226123   5.718   0.165   7.770 -0.9874 -3.9190 -0.2303
 1522TIP3   OH226124   6.305   4.906   2.744  0.0313 -0.4530 -0.3323
 1522TIP3    H126125   6.214   4.879   2.738 -0.1952  0.3034 -0.3755
 1522TIP3    H226126   6.339   4.894   2.655 -0.6987  1.5455 -0.9389
 1523TIP3   OH226127   6.325   3.853   1.009  0.1352 -0.4557 -0.2951
 1523TIP3    H126128   6.330   3.940   0.968 -1.0754  1.4901  3.2608
 1523TIP3    H226129   6.233   3.842   1.032  0.7054 -1.4016  1.7680
 1524TIP3   OH226130   6.467   6.720   2.009  0.1993  0.3362 -0.6097
 1524TIP3    H126131   6.395   6.746   1.951 -0.7757 -0.7870  0.0587
 1524TIP3    H226132   6.490   6.631   1.980  0.0390 -0.0375  0.3903
 1525TIP3   OH226133   5.886   4.474   8.890 -0.0631  0.0489 -0.0841
 1525TIP3    H126134   5.963   4.530   8.878 -0.7696  1.2616  0.8789
 1525TIP3    H226135   5.904   4.398   8.834  1.4774  0.6501 -0.4778
 1526TIP3   OH226136   4.943   3.165   0.118  0.2694  0.0949 -0.1494
 1526TIP3    H126137   4.905   3.078   0.111  0.4434  0.0365 -0.3615
 1526TIP3    H226138   4.958   3.177   0.212  2.0732 -0.8932 -0.2617
 1527TIP3   OH226139   6.152   2.147   8.232  0.2010  0.3805 -0.1588
 1527TIP3    H126140   6.158   2.233   8.275  1.5617  2.5210 -4.1161
 1527TIP3    H226141   6.239   2.108   8.244  0.0221  0.1424  0.4322
 1528TIP3   OH226142   6.619   3.767   2.782 -0.0416 -0.1303 -0.1358
 1528TIP3    H126143   6.704   3.725   2.765  1.5694  2.6169  0.5539
 1528TIP3    H226144   6.635   3.822   2.859 -2.9408 -0.6797  0.9925
 1529TIP3   OH226145   2.904   2.610   7.591  0.2609 -0.0320 -0.2021
 1529TIP3    H126146   2.818   2.623   7.551  0.1290  0.2052  0.1508
 1529TIP3    H226147   2.941   2.535   7.545 -0.0402  0.0050 -0.5113
 1530TIP3   OH226148   0.958   0.037   2.308 -0.8882 -0.2017  0.0046
 1530TIP3    H126149   1.038   0.089   2.308 -0.1967 -1.2008 -1.1236
 1530TIP3    H226150   0.909   0.068   2.231 -0.1615 -1.6160 -1.0682
 1531TIP3   OH226151   5.081   1.186   8.845  0.0831  0.6160  0.0364
 1531TIP3    H126152   5.114   1.276   8.838 -0.8286  1.0599  1.0674
 1531TIP3    H226153   4.986   1.196   8.846 -0.0661 -0.4741 -1.0182
 1532TIP3   OH226154   6.426   1.516   7.840  0.0753  0.1893  0.0008
 1532TIP3    H126155   6.390   1.553   7.760 -4.0109  0.1340  1.5335
 1532TIP3    H226156   6.388   1.569   7.910 -0.7639 -2.7814  2.0166
 1533TIP3   OH226157   4.471   5.467   0.424  0.0126 -0.3314 -0.5313
 1533TIP3    H126158   4.528   5.522   0.477 -1.4973  1.9434 -1.1291
 1533TIP3    H226159   4.385   5.507   0.432 -0.8028 -1.5440 -2.4680
 1534TIP3   OH226160   3.229   0.810   7.237 -0.0789 -0.1415 -0.2093
 1534TIP3    H126161   3.293   0.766   7.181 -0.4671 -0.0724 -0.7101
 1534TIP3    H226162   3.279   0.881   7.279 -0.0680  0.5532 -1.3792
 1535TIP3   OH226163   2.607   4.648   2.126  0.0535 -0.3225 -0.2124
 1535TIP3    H126164   2.544   4.632   2.055 -0.9659  1.1466  0.3285
 1535TIP3    H226165   2.571   4.722   2.174  1.8214  0.0634  0.5858
 1536TIP3   OH226166   1.994   1.111   8.624  0.1337  0.8038 -0.1072
 1536TIP3    H126167   1.969   1.031   8.672  1.7675  0.3138 -0.0105
 1536TIP3    H226168   1.958   1.182   8.677 -2.3177  0.1543 -0.7649
 1537TIP3   OH226169   0.883   6.382   8.459  0.1933 -0.8253  0.0778
 1537TIP3    H126170   0.854   6.469   8.486  0.1566 -1.1778  1.2242
 1537TIP3    H226171   0.950   6.357   8.523 -0.0619 -1.7912 -0.0070
 1538TIP3   OH226172   4.977   2.297   8.432  0.1624  0.3444  0.3175
 1538TIP3    H126173   4.906   2.248   8.390 -0.3369  1.0803  0.2960
 1538TIP3    H226174   5.048   2.233   8.441 -0.2703 -0.2247 -0.2531
 1539TIP3   OH226175   1.217   0.477   0.677 -0.0619  0.2707  0.1613
 1539TIP3    H126176   1.254   0.464   0.589  1.0922  0.3565  0.6058
 1539TIP3    H226177   1.272   0.547   0.714 -0.1482 -0.1882  1.1636
 1540TIP3   OH226178   6.249   3.230   7.168  0.1295 -0.1039 -0.5656
 1540TIP3    H126179   6.279   3.157   7.222 -0.2978  1.7393  2.3865
 1540TIP3    H226180   6.330   3.270   7.136  0.4016 -1.1297 -1.1951
 1541TIP3   OH226181   1.366   0.702   7.936  0.2409 -0.3875  0.0455
 1541TIP3    H126182   1.313   0.623   7.928  0.8502 -0.6402 -2.2189
 1541TIP3    H226183   1.423   0.686   8.011 -1.6516 -0.8166  1.4468
 1542TIP3   OH226184   0.493   3.876   1.022 -0.3847  0.3975  0.6569
 1542TIP3    H126185   0.433   3.950   1.033 -0.4213  0.2507  1.5712
 1542TIP3    H226186   0.511   3.847   1.112 -0.2061 -0.5717  0.3209
 1543TIP3   OH226187   6.342   3.682   0.787 -0.2322  0.1746  0.2200
 1543TIP3    H126188   6.348   3.733   0.867 -0.3663 -0.0819  0.3941
 1543TIP3    H226189   6.336   3.747   0.717 -3.1061  0.4557  0.5937
 1544TIP3   OH226190   1.692   3.122   0.444  0.3349 -0.1592 -0.2690
 1544TIP3    H126191   1.667   3.032   0.462  0.5957 -0.0499  0.6669
 1544TIP3    H226192   1.685   3.130   0.349  1.2064 -1.4176 -0.4579
 1545TIP3   OH226193   0.639   5.328   0.872 -0.2495 -0.2104  0.3497
 1545TIP3    H126194   0.675   5.383   0.802 -0.5254  1.5343  1.5043
 1545TIP3    H226195   0.548   5.316   0.848 -0.4382  0.6927  0.5601
 1546TIP3   OH226196   4.452   4.474   0.017 -0.1516  0.4395 -0.7932
 1546TIP3    H126197   4.388   4.446  -0.048 -1.5525  2.0233 -0.1715
 1546TIP3    H226198   4.520   4.406   0.015 -2.4272 -2.0071 -0.5726
 1547TIP3   OH226199   4.357   5.480   8.983 -0.0152  0.1895  0.1696
 1547TIP3    H126200   4.378   5.421   8.911  0.9969  0.5813  0.1247
 1547TIP3    H226201   4.292   5.540   8.946 -0.0850 -0.0939 -0.1757
 1548TIP3   OH226202   0.247   6.729   1.521  0.4126  0.4579 -0.4149
 1548TIP3    H126203   0.264   6.721   1.427 -1.9713  0.7352 -0.9539
 1548TIP3    H226204   0.168   6.784   1.526  0.2796  0.1536  1.7303
 1549TIP3   OH226205   5.521   5.077   8.722  0.1159 -0.0186 -0.1246
 1549TIP3    H126206   5.460   5.148   8.702 -1.6433 -0.7998  2.0413
 1549TIP3    H226207   5.468   4.998   8.716  1.3896 -0.9037  0.0365
 1550TIP3   OH226208   2.851   1.564   8.949  0.3105  0.1311 -0.3240
 1550TIP3    H126209   2.886   1.476   8.950 -1.4961 -0.6357  0.8783
 1550TIP3    H226210   2.765   1.557   8.991  0.1388  2.4673 -0.0976
 1551TIP3   OH226211   5.918   3.809   7.107  0.2167 -0.0091  0.2113
 1551TIP3    H126212   6.009   3.779   7.103  0.2094  0.0871 -1.0543
 1551TIP3    H226213   5.923   3.904   7.092 -0.1686 -0.1804 -1.1652
 1552TIP3   OH226214   6.044   6.127   8.317  0.1965 -0.0477  0.0678
 1552TIP3    H126215   6.057   6.043   8.361  0.1634 -2.0807 -3.4229
 1552TIP3    H226216   5.950   6.142   8.321  0.3650  0.7887  2.1457
 1553TIP3   OH226217   5.498   4.206   2.905  0.4242 -0.1389 -0.1623
 1553TIP3    H126218   5.594   4.204   2.911  0.3867  0.2289  3.8462
 1553TIP3    H226219   5.475   4.298   2.914 -0.2836 -0.3846  0.7268
 1554TIP3   OH226220   2.791   5.620   8.183  0.3257  0.0181  0.9476
 1554TIP3    H126221   2.848   5.637   8.108  1.8896 -2.2044  1.5248
 1554TIP3    H226222   2.778   5.706   8.223 -0.1633  1.1848 -1.5488
 1555TIP3   OH226223   5.493   6.609   7.895  0.3715  0.7501  0.4388
 1555TIP3    H126224   5.560   6.560   7.847  0.7406  1.4429  0.2352
 1555TIP3    H226225   5.525   6.612   7.985 -0.1620 -0.2672  0.6834
 1556TIP3   OH226226   6.706   2.630   1.956 -0.0749 -0.2482 -0.2113
 1556TIP3    H126227   6.752   2.557   1.996 -0.0564  0.5513  1.3122
 1556TIP3    H226228   6.727   2.625   1.863  1.6329 -0.9414  0.1861
 1557TIP3   OH226229   6.025   4.988   2.500 -0.2576  0.7435  0.6054
 1557TIP3    H126230   6.085   4.950   2.436 -0.0973  2.5699 -0.4162
 1557TIP3    H226231   6.035   4.934   2.578  1.2481 -0.1789 -0.1829
 1558TIP3   OH226232   2.894   3.819   7.077  0.4582  0.2224  0.4318
 1558TIP3    H126233   2.975   3.866   7.100  1.3017 -1.5675  1.2884
 1558TIP3    H226234   2.904   3.733   7.117 -2.1577  0.1359  1.0470
 1559TIP3   OH226235   6.020   0.088   0.886 -0.0003 -1.3498 -0.6250
 1559TIP3    H126236   5.974   0.170   0.866 -0.0886 -1.8245 -2.5850
 1559TIP3    H226237   6.091   0.114   0.945  0.3197  0.2306 -1.6419
 1560TIP3   OH226238   2.526   0.585   1.973  0.5338 -0.1166 -0.2183
 1560TIP3    H126239   2.595   0.602   1.909  1.6924 -1.0298  0.7174
 1560TIP3    H226240   2.546   0.644   2.046 -0.2244  0.2723 -0.3261
 1561TIP3   OH226241   4.027   3.842   0.636  0.0105  0.1192  0.3129
 1561TIP3    H126242   3.968   3.775   0.602 -0.0754  0.5853 -0.4812
 1561TIP3    H226243   3.971   3.917   0.655  0.3036  0.4687 -0.1787
 1562TIP3   OH226244   6.034   2.119   0.952  0.1490 -0.2742  0.1419
 1562TIP3    H126245   6.031   2.023   0.959 -0.7113 -0.2397  0.3789
 1562TIP3    H226246   6.056   2.149   1.039  1.3439 -0.2846 -0.1480
 1563TIP3   OH226247   2.625   5.691   2.490 -0.2541  0.0851  0.3430
 1563TIP3    H126248   2.544   5.708   2.537 -0.6572  2.3293 -0.9880
 1563TIP3    H226249   2.632   5.596   2.487 -2.9837 -0.1969  0.2560
 1564TIP3   OH226250   1.678   6.134   8.573  0.1229  0.2943  0.6902
 1564TIP3    H126251   1.682   6.060   8.513  0.3250  0.8889 -0.0474
 1564TIP3    H226252   1.767   6.168   8.576  0.2921 -0.2137  1.9724
 1565TIP3   OH226253   6.396   3.007   8.006 -0.2438 -0.2599 -0.9904
 1565TIP3    H126254   6.317   2.955   8.017  0.4801 -1.3507 -0.8084
 1565TIP3    H226255   6.381   3.085   8.060 -0.4022 -1.3588  0.6106
 1566TIP3   OH226256   3.298   4.610   2.166  0.5384 -0.1098  0.1541
 1566TIP3    H126257   3.231   4.613   2.098  0.2506  0.6390  0.4542
 1566TIP3    H226258   3.250   4.580   2.244  1.0507 -1.8588 -0.1578
 1567TIP3   OH226259   4.260   6.687   8.355 -0.0752 -0.2964 -0.1851
 1567TIP3    H126260   4.202   6.646   8.291 -1.7137  0.4795  0.7488
 1567TIP3    H226261   4.280   6.772   8.318 -0.7334  0.0102  0.1456
 1568TIP3   OH226262   5.422   3.195   7.272 -0.4920  0.2755 -0.3526
 1568TIP3    H126263   5.360   3.213   7.202 -1.1698 -0.6207 -0.0145
 1568TIP3    H226264   5.369   3.157   7.342  0.1189  1.4117  0.7687
 1569TIP3   OH226265   6.726   1.046   1.905 -0.1749 -0.2819 -0.0677
 1569TIP3    H126266   6.757   0.960   1.879  0.3953  0.0604 -0.5158
 1569TIP3    H226267   6.772   1.065   1.987 -1.3399 -0.9903  0.7927
 1570TIP3   OH226268   3.299   4.002   7.653  0.1375  0.2112  0.5621
 1570TIP3    H126269   3.249   4.078   7.623 -0.8704 -1.2120 -1.5964
 1570TIP3    H226270   3.275   3.993   7.745 -1.7758  0.9699  0.1846
 1571TIP3   OH226271   3.324   6.483   8.883 -0.1788  0.0860 -0.0340
 1571TIP3    H126272   3.324   6.506   8.977 -0.4185  0.3706 -0.1009
 1571TIP3    H226273   3.308   6.389   8.881  0.6861 -0.0799  0.2495
 1572TIP3   OH226274   2.114   0.662   0.217  0.3102 -0.0661  0.0131
 1572TIP3    H126275   2.191   0.641   0.163 -0.6863 -1.1646 -1.0209
 1572TIP3    H226276   2.067   0.580   0.225 -0.3385  0.4027  1.3815
 1573TIP3   OH226277   4.337   5.207   8.548  0.7306  0.6182 -0.3133
 1573TIP3    H126278   4.248   5.178   8.526  0.5690 -0.7262  1.8266
 1573TIP3    H226279   4.369   5.142   8.610  2.4427  2.2006  0.5780
 1574TIP3   OH226280   2.329   1.181   8.472  0.1798  0.6335  0.6364
 1574TIP3    H126281   2.347   1.111   8.533 -1.5705  0.4200  0.9635
 1574TIP3    H226282   2.414   1.201   8.432  0.7186 -1.6985  0.4647
 1575TIP3   OH226283   0.932   6.686   8.576 -0.1549  0.5455  0.1622
 1575TIP3    H126284   0.982   6.766   8.595  1.1177 -0.9769  4.6112
 1575TIP3    H226285   0.998   6.621   8.554 -0.9680  0.1986 -1.3356
 1576TIP3   OH226286   2.127   4.923   8.914  0.0304  0.2887  0.2595
 1576TIP3    H126287   2.144   4.878   8.831 -0.2151  1.3688 -0.3899
 1576TIP3    H226288   2.037   4.898   8.936  0.5925 -1.2131  1.0055
 1577TIP3   OH226289   0.851   2.265   1.557  0.0377 -0.0602  0.1680
 1577TIP3    H126290   0.765   2.261   1.517  0.9081  1.3775 -2.0090
 1577TIP3    H226291   0.908   2.216   1.498  0.8327 -0.5434  1.2957
 1578TIP3   OH226292   4.995   6.697   8.579 -0.9672 -0.2559 -0.9706
 1578TIP3    H126293   4.989   6.667   8.488  1.0321  0.4127 -1.3773
 1578TIP3    H226294   4.961   6.786   8.578 -2.0994 -0.6762 -0.7969
 1579TIP3   OH226295   1.258   5.617   0.398 -0.7600  0.4003 -0.1990
 1579TIP3    H126296   1.256   5.663   0.482 -0.3206  0.3840 -0.1777
 1579TIP3    H226297   1.168   5.584   0.387 -0.4435 -1.0292  1.0595
 1580TIP3   OH226298   5.401   4.832   8.694  0.1872  0.0292 -0.1045
 1580TIP3    H126299   5.308   4.845   8.712  0.2088  0.3528 -0.2123
 1580TIP3    H226300   5.428   4.764   8.756 -0.2787 -0.5787 -0.5545
 1581TIP3   OH226301   5.674   5.742   2.661 -0.0195  1.2744  0.0951
 1581TIP3    H126302   5.693   5.792   2.582  0.7841 -0.4213 -0.8270
 1581TIP3    H226303   5.760   5.713   2.693 -0.5017 -1.1249 -0.5360
 1582TIP3   OH226304   1.709   5.691   0.411 -0.3376  0.4174 -0.4077
 1582TIP3    H126305   1.782   5.747   0.388 -0.5841  0.6857 -0.5435
 1582TIP3    H226306   1.652   5.746   0.465 -0.3817  0.1780 -0.2090
 1583TIP3   OH226307   2.512   3.099   9.066  0.0305 -0.3083 -0.7639
 1583TIP3    H126308   2.474   3.074   9.150 -0.2453  0.1905 -0.7388
 1583TIP3    H226309   2.512   3.018   9.015 -1.1270 -0.3197 -0.7815
 1584TIP3   OH226310   0.090   0.540   8.272  0.5030 -0.8495 -0.0210
 1584TIP3    H126311   0.137   0.614   8.310  0.0477 -0.0708 -0.9352
 1584TIP3    H226312   0.154   0.469   8.271  1.1615 -0.2715  0.2421
 1585TIP3   OH226313   0.478   0.183   3.087  0.5974 -0.0065  0.4624
 1585TIP3    H126314   0.556   0.213   3.040  0.7718  0.3436  0.9611
 1585TIP3    H226315   0.429   0.263   3.106 -0.5191 -0.3230 -0.9205
 1586TIP3   OH226316   3.484   0.951   8.588  0.2289 -0.1787 -0.2139
 1586TIP3    H126317   3.397   0.917   8.609  0.7749 -1.2230  0.3913
 1586TIP3    H226318   3.526   0.882   8.537  1.3190 -0.3926  0.9468
 1587TIP3   OH226319   6.593   4.955   2.370 -0.6426  0.6592  0.7981
 1587TIP3    H126320   6.658   4.947   2.440  1.2288  1.7580 -0.7104
 1587TIP3    H226321   6.593   4.870   2.327 -0.3681  0.5860  0.9414
 1588TIP3   OH226322   6.624   4.749   2.147  0.7819 -0.1381  0.6506
 1588TIP3    H126323   6.645   4.801   2.069  1.9885 -1.0138  0.3551
 1588TIP3    H226324   6.679   4.671   2.139 -2.2101 -2.3908  0.1505
 1589TIP3   OH226325   1.932   2.335   1.948 -0.4374  0.1120  0.1259
 1589TIP3    H126326   1.868   2.264   1.939 -0.3202  0.1193 -0.8464
 1589TIP3    H226327   1.968   2.323   2.036 -1.9102  0.2261  0.7913
 1590TIP3   OH226328   3.946   4.344   2.194  0.0965  0.3429 -0.4564
 1590TIP3    H126329   3.929   4.325   2.287  0.2778 -0.7925 -0.6363
 1590TIP3    H226330   3.861   4.330   2.151  0.1411  0.3279 -0.5389
 1591TIP3   OH226331   3.822   1.799   7.965 -0.1372  0.6404 -0.3915
 1591TIP3    H126332   3.875   1.833   8.037  0.4542 -0.8853 -0.0588
 1591TIP3    H226333   3.883   1.748   7.913 -1.3325 -1.7263  0.3566
 1592TIP3   OH226334   1.677   0.531   0.534 -0.2845 -0.0373 -0.2858
 1592TIP3    H126335   1.611   0.561   0.471 -1.6712 -0.9431  0.6726
 1592TIP3    H226336   1.676   0.599   0.602  1.5061  1.1553 -1.3497
 1593TIP3   OH226337   6.028   4.161   7.990 -0.2326 -0.4118  0.6605
 1593TIP3    H126338   5.993   4.074   8.011 -0.4986 -0.4166  0.2159
 1593TIP3    H226339   6.045   4.158   7.895  0.3094 -0.1729  0.7450
 1594TIP3   OH226340   5.335   0.168   8.651  0.9731  0.0424 -0.2088
 1594TIP3    H126341   5.357   0.163   8.744 -0.3095 -2.4573  0.0451
 1594TIP3    H226342   5.393   0.105   8.609  0.9529  0.5290 -0.9902
 1595TIP3   OH226343   0.491   0.156   6.847  0.2503 -0.0248  0.3509
 1595TIP3    H126344   0.465   0.221   6.913  0.0819 -0.7629  1.0337
 1595TIP3    H226345   0.585   0.170   6.836  0.2966  0.0609  0.8115
 1596TIP3   OH226346   4.180   5.932   2.065 -0.2696 -0.2253 -0.0849
 1596TIP3    H126347   4.173   5.983   2.146 -0.9137 -0.2308 -0.1283
 1596TIP3    H226348   4.090   5.928   2.032  0.0536  0.1416 -1.0268
 1597TIP3   OH226349   1.236   0.545   6.898 -0.5842 -0.0694  0.2059
 1597TIP3    H126350   1.288   0.567   6.975 -1.0425 -2.1621  1.1803
 1597TIP3    H226351   1.172   0.616   6.891 -2.0743 -0.9617  3.2282
 1598TIP3   OH226352   3.095   3.599   9.031 -0.0905 -0.4634  0.0460
 1598TIP3    H126353   3.074   3.692   9.032  0.4555 -0.3292 -0.6522
 1598TIP3    H226354   3.058   3.566   9.113  1.0738  0.6638  1.0780
 1599TIP3   OH226355   6.358   2.459   7.854  0.2087 -0.1040  0.0755
 1599TIP3    H126356   6.444   2.466   7.813  1.3820 -2.2564  1.9056
 1599TIP3    H226357   6.298   2.438   7.782  1.2014  1.3661 -1.2200
 1600TIP3   OH226358   5.157   0.232   8.456 -0.3246 -0.3449  0.6934
 1600TIP3    H126359   5.066   0.236   8.487 -0.0160 -1.8625  1.9501
 1600TIP3    H226360   5.208   0.210   8.534  1.1597  0.6423  0.0383
 1601TIP3   OH226361   1.423   1.476   8.390 -0.4871 -0.2452  0.4297
 1601TIP3    H126362   1.355   1.537   8.362  0.4596  1.1708  1.1010
 1601TIP3    H226363   1.392   1.443   8.474 -0.1487  0.7747  0.9740
 1602TIP3   OH226364   5.514   0.811   6.768  0.9991 -0.1107 -0.2783
 1602TIP3    H126365   5.508   0.721   6.736  2.5927 -0.4641  0.3145
 1602TIP3    H226366   5.598   0.815   6.813  1.0045  1.7077 -0.3568
 1603TIP3   OH226367   4.771   5.263   8.326 -0.0891 -0.2340  1.3674
 1603TIP3    H126368   4.818   5.335   8.368 -0.0175 -0.2750  1.3559
 1603TIP3    H226369   4.679   5.277   8.351 -0.2972  0.7173  0.1783
 1604TIP3   OH226370   4.958   4.634   0.014  0.2162 -0.1885 -0.4344
 1604TIP3    H126371   5.043   4.631   0.057  0.1016  1.8835  0.0572
 1604TIP3    H226372   4.978   4.652  -0.078  0.3376 -0.4309 -0.4537
 1605TIP3   OH226373   3.622   5.746   1.836 -0.7454  0.2584  0.3244
 1605TIP3    H126374   3.580   5.808   1.777 -0.5727 -0.3417 -0.4357
 1605TIP3    H226375   3.550   5.709   1.887 -0.7215  2.1904  1.9180
 1606TIP3   OH226376   3.729   1.198   1.377 -0.5606 -0.0000  0.0337
 1606TIP3    H126377   3.681   1.119   1.350 -1.0235 -0.2095  1.4134
 1606TIP3    H226378   3.815   1.187   1.337 -1.9186  1.0424 -3.6883
 1607TIP3   OH226379   4.656   4.861   0.906  0.8641 -0.0083 -0.2617
 1607TIP3    H126380   4.693   4.936   0.860  0.4932 -0.0911 -0.7084
 1607TIP3    H226381   4.731   4.815   0.943  1.0676  0.7679  0.3082
 1608TIP3   OH226382   2.113   3.424   8.709  0.1972  0.7959 -0.2017
 1608TIP3    H126383   2.126   3.518   8.725 -0.6342  0.7966  0.5095
 1608TIP3    H226384   2.027   3.419   8.667  1.1105  0.5200 -2.1692
 1609TIP3   OH226385   1.410   3.098   2.060 -0.1206  0.1740  0.2390
 1609TIP3    H126386   1.395   3.008   2.030  0.2398 -0.4623  1.8261
 1609TIP3    H226387   1.335   3.147   2.029 -1.5831 -1.2367  1.3766
 1610TIP3   OH226388   4.903   2.361   0.304 -0.1569 -0.3178 -0.2072
 1610TIP3    H126389   4.903   2.273   0.341  0.9152 -0.3793 -0.3303
 1610TIP3    H226390   4.960   2.412   0.361 -0.4813  0.2154 -0.3469
 1611TIP3   OH226391   2.582   2.913   2.011 -0.1982  0.0203  0.1350
 1611TIP3    H126392   2.593   2.824   2.044  0.6842 -0.0204 -0.2575
 1611TIP3    H226393   2.617   2.969   2.080 -0.2999  0.0410  0.1699
 1612TIP3   OH226394   1.468   6.629   3.527  0.1111  0.2464 -0.1404
 1612TIP3    H126395   1.521   6.671   3.595  0.0412 -0.2522  0.2353
 1612TIP3    H226396   1.402   6.693   3.504 -0.1173  0.2715  0.5665
 1613TIP3   OH226397   2.142   1.315   0.048 -0.1287  0.3684 -0.0197
 1613TIP3    H126398   2.123   1.406   0.026 -1.5268 -0.1812 -1.2871
 1613TIP3    H226399   2.223   1.318   0.098  1.0526  2.1229 -1.8912
 1614TIP3   OH226400   2.595   4.456   8.548 -0.1116 -0.3062  0.7434
 1614TIP3    H126401   2.501   4.467   8.537  0.2519  0.4809 -2.7642
 1614TIP3    H226402   2.615   4.499   8.630 -2.3979  2.4000  0.0303
 1615TIP3   OH226403   5.896   2.663   1.092  0.1035  0.9126 -0.1327
 1615TIP3    H126404   5.879   2.707   1.009 -1.7266  3.7605  1.6006
 1615TIP3    H226405   5.823   2.602   1.102  2.0691 -2.0306 -2.0139
 1616TIP3   OH226406   6.523   6.490   8.306  0.1993 -0.1706 -0.3979
 1616TIP3    H126407   6.535   6.524   8.395  0.2697  0.7774 -0.7590
 1616TIP3    H226408   6.436   6.519   8.281  1.0124  1.5256 -1.4500
 1617TIP3   OH226409   1.358   0.131   1.999 -0.5713 -0.2248 -0.0555
 1617TIP3    H126410   1.446   0.140   1.962 -0.3334 -1.5499  0.1335
 1617TIP3    H226411   1.301   0.115   1.923 -0.3906 -0.9682 -0.0409
 1618TIP3   OH226412   4.890   0.862   1.276  0.7784  0.2341  0.4153
 1618TIP3    H126413   4.847   0.788   1.232 -0.0397  0.8767  0.1064
 1618TIP3    H226414   4.967   0.824   1.318  0.2575 -0.8274  0.4293
 1619TIP3   OH226415   0.336   3.074   7.948  0.1800  0.7258 -0.2972
 1619TIP3    H126416   0.300   3.117   7.870 -0.8871 -0.8238 -0.7083
 1619TIP3    H226417   0.272   3.006   7.969  1.7684 -0.6380  0.3359
 1620TIP3   OH226418   5.034   1.172   8.279 -0.3042 -0.0859 -0.0623
 1620TIP3    H126419   4.945   1.153   8.251 -0.7302  0.3828  0.9174
 1620TIP3    H226420   5.029   1.176   8.374  0.9015 -0.7129  0.0526
 1621TIP3   OH226421   1.008   6.541   0.217 -0.2147 -0.4423 -0.0605
 1621TIP3    H126422   1.044   6.604   0.154  0.0824  1.2532  1.6871
 1621TIP3    H226423   1.064   6.465   0.210 -0.5166 -0.5330 -2.1935
 1622TIP3   OH226424   5.669   4.269   8.711  0.0982  0.3387 -0.5121
 1622TIP3    H126425   5.590   4.323   8.711 -0.2743 -0.1944 -0.1618
 1622TIP3    H226426   5.707   4.283   8.624  0.0873  1.2637 -0.3814
 1623TIP3   OH226427   6.227   5.039   1.124 -0.4145  0.8214  0.2250
 1623TIP3    H126428   6.322   5.030   1.129 -0.2105  1.5510 -1.5446
 1623TIP3    H226429   6.206   5.105   1.191  0.5023  1.5720 -0.1983
 1624TIP3   OH226430   0.444   5.815   7.747 -0.0630 -0.0354  0.6756
 1624TIP3    H126431   0.414   5.876   7.680 -1.1241  0.0784  1.2322
 1624TIP3    H226432   0.419   5.729   7.715  0.7329 -0.1253  0.2605
 1625TIP3   OH226433   1.661   0.473   2.063  0.0205  0.0880 -0.1871
 1625TIP3    H126434   1.660   0.390   2.112 -0.6580  0.2420  0.0762
 1625TIP3    H226435   1.601   0.458   1.990  2.3785 -0.7503 -2.0501
 1626TIP3   OH226436   0.968   4.417   1.303  0.3160 -0.1762 -0.2466
 1626TIP3    H126437   1.059   4.397   1.283  0.5007 -2.0341  2.0037
 1626TIP3    H226438   0.943   4.351   1.369 -2.7845 -0.0194 -1.1108
 1627TIP3   OH226439   4.771   2.729   1.150 -0.2088  0.1101 -0.2673
 1627TIP3    H126440   4.688   2.737   1.197 -0.7362  0.6555 -1.2563
 1627TIP3    H226441   4.755   2.772   1.066  0.9024 -0.2867 -0.6995
 1628TIP3   OH226442   5.711   1.550   6.719 -0.3186  0.1648 -0.7030
 1628TIP3    H126443   5.698   1.461   6.685 -1.1082 -0.6301  1.4603
 1628TIP3    H226444   5.795   1.546   6.764 -2.0339 -0.7826  2.7906
 1629TIP3   OH226445   0.837   4.309   0.254 -0.3110  0.1501 -0.3449
 1629TIP3    H126446   0.926   4.275   0.243 -0.0506  0.2636  1.1466
 1629TIP3    H226447   0.843   4.401   0.226  0.7644  0.9598  2.2405
 1630TIP3   OH226448   4.150   1.998   0.978  0.2403  0.3241  0.4542
 1630TIP3    H126449   4.139   1.954   0.894  0.5477 -1.2467  1.2101
 1630TIP3    H226450   4.114   1.938   1.042  2.7676  0.0634  1.7662
 1631TIP3   OH226451   1.784   0.584   0.116 -0.5781  0.8622  0.1546
 1631TIP3    H126452   1.833   0.574   0.198 -1.3754 -0.0547  0.5441
 1631TIP3    H226453   1.723   0.656   0.133  0.6146  2.0352 -0.3455
 1632TIP3   OH226454   1.303   2.122   2.119  0.2517 -0.3048  0.2130
 1632TIP3    H126455   1.374   2.186   2.126 -1.3488  1.9146 -2.2569
 1632TIP3    H226456   1.260   2.125   2.205  1.2452  0.6467  0.7043
 1633TIP3   OH226457   1.040   5.974   2.142 -0.4777  0.1585 -0.1232
 1633TIP3    H126458   1.107   5.916   2.178 -1.5255 -0.9469  0.1182
 1633TIP3    H226459   0.992   6.006   2.218 -2.0016 -1.3105 -0.4207
 1634TIP3   OH226460   1.182   4.114   2.971  0.5686  0.2314 -0.0481
 1634TIP3    H126461   1.140   4.066   3.043 -0.3775 -1.8596 -1.8743
 1634TIP3    H226462   1.113   4.168   2.934 -0.2911 -2.0838 -2.1082
 1635TIP3   OH226463   4.173   0.825   7.962 -0.4663 -0.1537  0.4036
 1635TIP3    H126464   4.111   0.760   7.929  1.1103 -2.2298  1.3107
 1635TIP3    H226465   4.145   0.842   8.052 -1.2439  0.9761 -0.0217
 1636TIP3   OH226466   1.136   6.236   2.754  0.0233  0.1670 -0.1463
 1636TIP3    H126467   1.043   6.260   2.755 -0.0074  0.0508  0.8475
 1636TIP3    H226468   1.136   6.145   2.725 -0.3807 -0.5339  1.8800
 1637TIP3   OH226469   2.369   3.695   0.691 -0.8680  0.6073 -0.4304
 1637TIP3    H126470   2.292   3.641   0.708  1.0630 -1.9870  0.5743
 1637TIP3    H226471   2.418   3.694   0.773  0.5800  1.6291 -1.2455
 1638TIP3   OH226472   3.990   3.820   9.049  0.0832 -0.4813 -0.1288
 1638TIP3    H126473   3.995   3.856   8.961 -0.4447 -0.3086 -0.0937
 1638TIP3    H226474   4.068   3.853   9.093 -0.2562  0.4151 -0.1738
 1639TIP3   OH226475   2.224   0.835   8.838  0.1845  0.0024 -0.5400
 1639TIP3    H126476   2.159   0.791   8.784  0.6610 -1.3384 -0.0543
 1639TIP3    H226477   2.307   0.797   8.812  0.8158  1.6550 -1.1066
 1640TIP3   OH226478   6.669   6.108   7.412 -0.0656  0.1323  0.4150
 1640TIP3    H126479   6.614   6.030   7.400  0.7623 -0.1554 -1.8612
 1640TIP3    H226480   6.687   6.139   7.324  0.2349  2.5293  1.2413
 1641TIP3   OH226481   2.073   1.248   3.286 -0.1183 -0.4352 -0.0871
 1641TIP3    H126482   2.158   1.276   3.320 -0.7229  0.8146  0.4568
 1641TIP3    H226483   2.014   1.253   3.362 -0.9054 -0.2480 -0.6921
 1642TIP3   OH226484   1.494   2.448   7.444 -0.2344 -0.2666 -0.0839
 1642TIP3    H126485   1.454   2.534   7.456  0.4670 -0.0974  1.3134
 1642TIP3    H226486   1.580   2.467   7.405  0.4113 -0.1957  1.3048
 1643TIP3   OH226487   2.185   4.806   8.196  0.1221  0.8170  0.3504
 1643TIP3    H126488   2.261   4.767   8.154  0.0316  1.5447 -0.5144
 1643TIP3    H226489   2.139   4.851   8.125 -0.9121  0.6984  0.9320
 1644TIP3   OH226490   6.146   1.313   1.480 -0.2285 -0.6431  0.0678
 1644TIP3    H126491   6.162   1.387   1.422  2.5997 -1.0073  0.2226
 1644TIP3    H226492   6.071   1.267   1.442 -0.6518  1.0783 -1.2600
 1645TIP3   OH226493   0.511   5.514   0.076 -0.0353  0.3918 -0.2756
 1645TIP3    H126494   0.524   5.443   0.139 -1.4482  0.4673  0.1455
 1645TIP3    H226495   0.566   5.491   0.002 -0.0180 -0.8469  0.1017
 1646TIP3   OH226496   1.871   5.980   0.638  0.0833 -0.6977 -0.1783
 1646TIP3    H126497   1.817   6.058   0.637  0.8845 -0.1133 -1.8737
 1646TIP3    H226498   1.809   5.907   0.634 -0.6242 -0.0501 -2.1694
 1647TIP3   OH226499   6.529   3.970   9.081  0.4533  0.1689 -0.3431
 1647TIP3    H126500   6.606   3.935   9.035  0.8128 -0.6651  0.8406
 1647TIP3    H226501   6.478   3.892   9.103 -0.4622  0.6780 -0.6179
 1648TIP3   OH226502   4.019   4.287   1.860  0.7676  0.0091  0.0956
 1648TIP3    H126503   3.968   4.214   1.894  2.1770 -1.1450 -0.1871
 1648TIP3    H226504   3.953   4.350   1.829 -0.4809 -1.5299 -0.5061
 1649TIP3   OH226505   4.247   3.160   7.494 -0.1131  0.2384  0.0218
 1649TIP3    H126506   4.291   3.165   7.579  3.8557 -2.9102 -1.4957
 1649TIP3    H226507   4.193   3.081   7.499  2.7158 -1.9691 -1.1152
 1650TIP3   OH226508   0.796   3.634   2.571  0.3155  0.3192 -0.0931
 1650TIP3    H126509   0.853   3.679   2.509  2.4885  0.3720  1.7828
 1650TIP3    H226510   0.824   3.667   2.657 -0.4503 -1.9491  1.1116
 1651TIP3   OH226511   2.618   5.007   2.408 -0.1639  0.2554  0.1136
 1651TIP3    H126512   2.697   5.029   2.359  0.5324  0.7947  1.4208
 1651TIP3    H226513   2.650   4.976   2.493 -1.3439 -0.0290  0.4772
 1652TIP3   OH226514   5.787   4.284   0.640 -0.1716 -0.3710 -0.5907
 1652TIP3    H126515   5.810   4.214   0.579 -0.4675 -0.8069 -0.2025
 1652TIP3    H226516   5.696   4.304   0.621  0.5871  1.7438 -2.5128
 1653TIP3   OH226517   6.240   0.601   7.440 -0.2559  0.4826  0.1269
 1653TIP3    H126518   6.157   0.614   7.395 -0.9892  0.0332  1.2889
 1653TIP3    H226519   6.271   0.516   7.409 -1.0587 -0.1080  0.8790
 1654TIP3   OH226520   5.572   3.320   7.977 -0.5951  0.7692  0.1036
 1654TIP3    H126521   5.479   3.315   8.002 -0.8709 -0.6626 -1.0814
 1654TIP3    H226522   5.602   3.229   7.975  0.5424  1.1318 -0.5763
 1655TIP3   OH226523   6.606   3.739   7.779  0.2290  0.6579  0.6093
 1655TIP3    H126524   6.700   3.719   7.771  0.0562 -0.6760  1.5491
 1655TIP3    H226525   6.596   3.824   7.736  1.3286 -0.4806 -2.1490
 1656TIP3   OH226526   5.554   6.242   1.312  0.4462 -0.3908  0.3567
 1656TIP3    H126527   5.627   6.231   1.373  0.1371 -1.1108  0.6081
 1656TIP3    H226528   5.512   6.156   1.309 -0.8565  0.2008  0.8009
 1657TIP3   OH226529   4.691   3.223   1.134 -0.2902  0.1877 -0.4602
 1657TIP3    H126530   4.658   3.261   1.053  0.7109  1.2400 -0.4050
 1657TIP3    H226531   4.660   3.132   1.133 -1.4789  0.5752 -1.3249
 1658TIP3   OH226532   6.328   1.798   7.500  0.4789 -0.0560  0.4270
 1658TIP3    H126533   6.313   1.862   7.570 -0.7669 -0.4450  0.5453
 1658TIP3    H226534   6.251   1.808   7.443  0.4996 -1.1216  0.2071
 1659TIP3   OH226535   2.065   3.681   8.817 -0.4337 -0.2934 -0.0808
 1659TIP3    H126536   1.988   3.731   8.844  0.2495  1.2412 -0.8565
 1659TIP3    H226537   2.085   3.713   8.729  2.3425  0.9454  0.8887
 1660TIP3   OH226538   3.356   1.275   7.955  0.3741 -0.9533 -0.1028
 1660TIP3    H126539   3.278   1.271   7.899  0.0576 -0.0546  0.2517
 1660TIP3    H226540   3.413   1.338   7.911 -0.9644  1.8205  1.8388
 1661TIP3   OH226541   5.546   6.660   1.591 -0.0102 -0.3641  0.1315
 1661TIP3    H126542   5.623   6.705   1.626  0.4852 -0.7811 -0.3964
 1661TIP3    H226543   5.545   6.683   1.498 -1.8123  1.4445  0.5425
 1662TIP3   OH226544   5.089   2.501   8.824 -0.0921 -0.3625 -0.0670
 1662TIP3    H126545   5.149   2.574   8.840 -2.8519  2.0666 -0.0089
 1662TIP3    H226546   5.058   2.514   8.735 -1.5999 -0.6527  0.3775
 1663TIP3   OH226547   1.782   1.758   2.042 -0.2938  0.0740  0.6908
 1663TIP3    H126548   1.794   1.744   2.136 -1.6679  0.1479  0.9062
 1663TIP3    H226549   1.704   1.814   2.036 -0.2477  0.0372 -0.4889
 1664TIP3   OH226550   6.444   0.982   0.104 -0.4410 -0.4680 -0.4532
 1664TIP3    H126551   6.449   0.962   0.198 -1.7436 -0.2800 -0.3198
 1664TIP3    H226552   6.442   1.078   0.100  0.4877 -0.4555 -0.7393
 1665TIP3   OH226553   2.577   1.817   7.216  0.1890 -0.6191 -0.1647
 1665TIP3    H126554   2.672   1.808   7.207  0.1026 -2.1588  0.0590
 1665TIP3    H226555   2.565   1.889   7.277  1.1625  0.3898 -1.1203
 1666TIP3   OH226556   4.664   2.626   0.840 -0.2755  0.2043  0.2686
 1666TIP3    H126557   4.652   2.561   0.910 -2.0280 -1.5094 -1.4903
 1666TIP3    H226558   4.577   2.664   0.827  0.0844  0.7296 -0.7651
 1667TIP3   OH226559   2.734   2.264   1.148  0.1255 -0.1124  0.1789
 1667TIP3    H126560   2.781   2.182   1.132 -0.3710 -0.5262  0.7671
 1667TIP3    H226561   2.800   2.322   1.186  0.6550  0.0122 -0.9015
 1668TIP3   OH226562   5.777   3.212   7.514 -0.1017 -0.4669  0.2262
 1668TIP3    H126563   5.707   3.191   7.453  0.8181 -0.7959 -0.7499
 1668TIP3    H226564   5.758   3.301   7.544 -0.2066 -0.0428 -1.0614
 1669TIP3   OH226565   6.242   5.236   8.486 -0.2534  0.5196 -0.1708
 1669TIP3    H126566   6.284   5.313   8.525  0.5776  0.1053 -0.2178
 1669TIP3    H226567   6.263   5.242   8.393  0.0681  0.0858 -0.1285
 1670TIP3   OH226568   4.563   4.189   8.698  0.5408 -0.1142 -0.2202
 1670TIP3    H126569   4.615   4.235   8.631  0.3349 -1.7718 -1.5775
 1670TIP3    H226570   4.501   4.255   8.729  0.0224  0.4958 -2.3616
 1671TIP3   OH226571   1.226   0.977   0.626  0.5429  0.0463 -0.6003
 1671TIP3    H126572   1.153   0.972   0.688  1.4067 -0.9915  0.3917
 1671TIP3    H226573   1.225   0.892   0.581  0.8171  0.2256 -0.9476
 1672TIP3   OH226574   5.230   0.862   8.472  0.1401  1.2474  0.2878
 1672TIP3    H126575   5.256   0.901   8.555  1.2133  0.1645  0.4955
 1672TIP3    H226576   5.293   0.897   8.408 -0.3349  1.6427  0.0275
 1673TIP3   OH226577   0.480   4.506   8.218 -0.1517  0.0750  0.0218
 1673TIP3    H126578   0.439   4.431   8.260  2.2677 -0.7495  1.0942
 1673TIP3    H226579   0.574   4.491   8.228  0.4361  3.0585 -0.0839
 1674TIP3   OH226580   0.397   1.011   2.286 -0.0398 -0.1168 -0.1007
 1674TIP3    H126581   0.327   1.001   2.351 -1.9514  1.6806 -1.7266
 1674TIP3    H226582   0.380   1.096   2.245  2.8163  0.1378 -0.9880
 1675TIP3   OH226583   0.026   4.348   0.954 -0.0280 -0.0598  0.1596
 1675TIP3    H126584   0.027   4.407   1.029  0.2163 -0.4992  0.4985
 1675TIP3    H226585  -0.063   4.356   0.919 -0.2161 -0.0367  0.6384
 1676TIP3   OH226586   6.408   0.172   1.521  0.6261  0.2574  0.1203
 1676TIP3    H126587   6.467   0.178   1.446 -1.4142 -0.1475 -1.6226
 1676TIP3    H226588   6.438   0.094   1.569  0.6119 -0.8232 -1.5610
 1677TIP3   OH226589   3.848   6.255   8.018  0.1282 -0.4884 -0.4098
 1677TIP3    H126590   3.832   6.197   7.944  0.7688 -0.7364 -0.3643
 1677TIP3    H226591   3.931   6.298   7.996  1.0062 -1.5252  0.7418
 1678TIP3   OH226592   6.351   4.750   2.107  0.3748 -0.2913 -0.3926
 1678TIP3    H126593   6.352   4.804   2.028 -0.8357  3.3174  1.8205
 1678TIP3    H226594   6.441   4.754   2.139  0.3524  0.2412 -0.3786
 1679TIP3   OH226595   0.723   2.950   0.887 -0.0418 -0.1916 -0.2286
 1679TIP3    H126596   0.642   2.956   0.836  0.6796 -0.4801 -1.4463
 1679TIP3    H226597   0.774   3.025   0.858  0.2043 -0.1157  0.4030
 1680TIP3   OH226598   1.633   2.388   0.237  0.8072  0.5664  0.3488
 1680TIP3    H126599   1.645   2.367   0.144 -1.3820  1.5271 -0.2107
 1680TIP3    H226600   1.590   2.311   0.273 -1.9889  1.6349 -0.4175
 1681TIP3   OH226601   1.743   3.756   1.260 -0.3800 -0.1123 -0.4067
 1681TIP3    H126602   1.724   3.688   1.196 -0.8966  0.2486 -0.6388
 1681TIP3    H226603   1.838   3.770   1.253 -0.5043  0.2530 -1.4106
 1682TIP3   OH226604   1.007   5.532   0.305  0.5359  0.1771 -0.1798
 1682TIP3    H126605   0.922   5.520   0.345  0.7198  1.9503  0.8557
 1682TIP3    H226606   0.998   5.495   0.217 -0.8244 -0.9636  0.4096
 1683TIP3   OH226607   1.953   6.121   8.460  0.0500  0.2703  0.3192
 1683TIP3    H126608   2.018   6.069   8.413 -0.2475 -0.8587  1.1113
 1683TIP3    H226609   1.878   6.126   8.402  0.0212 -0.3232  0.3079
 1684TIP3   OH226610   6.236   3.983   1.864  0.2898 -0.6533 -0.4631
 1684TIP3    H126611   6.178   4.059   1.852 -1.6420 -1.9295  0.2213
 1684TIP3    H226612   6.176   3.910   1.878  2.0875 -1.7356  2.5242
 1685TIP3   OH226613   1.453   2.797   1.815  0.5526  0.4380  0.2013
 1685TIP3    H126614   1.382   2.787   1.879 -0.6455 -1.9265 -1.3555
 1685TIP3    H226615   1.532   2.777   1.865 -0.2896 -0.8292  1.1086
 1686TIP3   OH226616   4.309   1.169   0.394  0.0131  1.0787  0.0093
 1686TIP3    H126617   4.223   1.211   0.405 -1.4678 -0.6019 -3.6660
 1686TIP3    H226618   4.296   1.080   0.425  0.4939  0.8861 -0.3399
 1687TIP3   OH226619   1.996   2.207   8.606 -0.1516  0.0056  0.0064
 1687TIP3    H126620   2.076   2.241   8.566 -0.6000  1.3502  0.2135
 1687TIP3    H226621   1.968   2.137   8.547  2.9894 -2.9412  1.6630
 1688TIP3   OH226622   5.572   1.581   2.608  0.1633 -0.0163 -0.6016
 1688TIP3    H126623   5.609   1.593   2.695  1.9636  0.3753 -1.3772
 1688TIP3    H226624   5.640   1.612   2.548 -1.7523  1.5213 -2.1195
 1689TIP3   OH226625   3.379   6.043   1.950  0.8832 -0.3027  0.2832
 1689TIP3    H126626   3.352   6.084   1.868 -0.3227 -1.0572  0.2782
 1689TIP3    H226627   3.339   5.956   1.948 -0.0932  0.0393  2.1402
 1690TIP3   OH226628   2.719   4.982   1.559  0.2938 -0.2573 -0.6575
 1690TIP3    H126629   2.682   5.029   1.484 -1.2994 -0.5986 -0.1065
 1690TIP3    H226630   2.693   5.033   1.635  0.6004 -0.7468 -0.2187
 1691TIP3   OH226631   1.766   1.162   0.822 -0.2751  0.1270  0.0436
 1691TIP3    H126632   1.713   1.202   0.753  0.7658  2.8142  0.6759
 1691TIP3    H226633   1.851   1.146   0.779 -1.3615 -4.0575 -0.9413
 1692TIP3   OH226634   3.940   6.314   1.102 -0.2408 -0.3202 -0.2371
 1692TIP3    H126635   4.002   6.339   1.033 -0.1568  0.5202  0.1256
 1692TIP3    H226636   3.994   6.272   1.168 -0.2086 -0.4686 -0.3567
 1693TIP3   OH226637   6.230   3.235   7.776  0.2015  0.3786  0.6454
 1693TIP3    H126638   6.201   3.322   7.806  0.1475  1.4774 -2.2965
 1693TIP3    H226639   6.305   3.214   7.831  0.3727  2.4184  1.2637
 1694TIP3   OH226640   2.290   1.412   8.209  0.3554 -0.2831  0.2454
 1694TIP3    H126641   2.277   1.367   8.125  1.8964 -0.4279  0.0515
 1694TIP3    H226642   2.385   1.426   8.214  0.2480  0.0424  1.8120
 1695TIP3   OH226643   5.350   5.707   7.042  0.1856 -0.0803  0.9287
 1695TIP3    H126644   5.382   5.795   7.064  0.3844 -0.5430  2.5859
 1695TIP3    H226645   5.415   5.648   7.078  0.3766 -0.9282 -0.7267
 1696TIP3   OH226646   4.389   5.777   1.089 -0.4486  0.3292  0.1954
 1696TIP3    H126647   4.399   5.869   1.064 -1.2694  0.6162  0.8928
 1696TIP3    H226648   4.331   5.778   1.165 -2.2227 -0.9222 -1.0485
 1697TIP3   OH226649   0.482   0.786   0.684  0.0115 -0.1475  0.4250
 1697TIP3    H126650   0.403   0.831   0.654  0.9509  1.3206  0.0457
 1697TIP3    H226651   0.462   0.693   0.675 -1.4242  0.2065 -0.3053
 1698TIP3   OH226652   2.447   4.375   2.235 -0.1973  0.1410  0.1545
 1698TIP3    H126653   2.520   4.437   2.242 -0.3870  0.4548 -0.6045
 1698TIP3    H226654   2.378   4.414   2.288 -0.4766  0.8212 -0.7003
 1699TIP3   OH226655   4.286   1.904   1.580 -0.1285 -0.3082  0.1391
 1699TIP3    H126656   4.229   1.980   1.578 -0.8287 -0.8473 -0.7295
 1699TIP3    H226657   4.364   1.934   1.628  0.1293  1.2985 -1.1982
 1700TIP3   OH226658   3.790   4.400   7.394  0.3716 -0.0665 -0.2746
 1700TIP3    H126659   3.724   4.331   7.385  1.3766 -0.9724 -1.1139
 1700TIP3    H226660   3.760   4.469   7.335 -0.0968 -0.2424 -0.2506
 1701TIP3   OH226661   4.672   2.603   2.865  0.3092  0.1754 -0.0842
 1701TIP3    H126662   4.591   2.654   2.875 -0.6754 -1.2225 -0.5370
 1701TIP3    H226663   4.729   2.634   2.935 -1.8236 -1.0047  2.3319
 1702TIP3   OH226664   6.146   5.462   2.860 -0.1199  0.1140 -0.0383
 1702TIP3    H126665   6.213   5.495   2.800 -0.5968  0.3811 -0.4315
 1702TIP3    H226666   6.141   5.369   2.840  1.7619 -0.4069  1.5901
 1703TIP3   OH226667   4.630   0.659   1.885  0.3848  0.1270 -0.0164
 1703TIP3    H126668   4.715   0.648   1.929  0.5529  2.9621  0.5999
 1703TIP3    H226669   4.572   0.691   1.954 -0.4186  0.8898 -1.0206
 1704TIP3   OH226670   0.432   4.589   7.073 -0.2645  0.1526 -0.1869
 1704TIP3    H126671   0.459   4.566   7.162  2.9031 -0.5530 -1.1779
 1704TIP3    H226672   0.418   4.505   7.029  2.5131  0.2149 -1.4176
 1705TIP3   OH226673   4.889   1.041   2.091 -0.2534  0.2829 -0.2079
 1705TIP3    H126674   4.825   1.032   2.020  2.2364  1.6498 -2.8592
 1705TIP3    H226675   4.897   1.135   2.105 -0.0642  0.0605  1.3531
 1706TIP3   OH226676   5.396   2.370   0.188 -0.2347  0.1092 -0.1072
 1706TIP3    H126677   5.484   2.383   0.223 -1.1937  1.7942  1.9233
 1706TIP3    H226678   5.367   2.458   0.162 -0.9507 -0.5768 -1.7596
 1707TIP3   OH226679   4.851   1.857   7.831  0.5027 -0.0434 -0.3861
 1707TIP3    H126680   4.801   1.841   7.751  0.9738 -0.7155 -0.5576
 1707TIP3    H226681   4.910   1.782   7.837  2.0469  1.1187 -0.6072
 1708TIP3   OH226682   4.266   4.097   8.838 -0.3855  0.3026  0.1591
 1708TIP3    H126683   4.220   4.016   8.819 -0.2743  0.2394  0.1606
 1708TIP3    H226684   4.314   4.118   8.758 -0.0163  0.1011  0.3212
 1709TIP3   OH226685   6.396   4.390   2.455 -0.0889  0.7737  0.5324
 1709TIP3    H126686   6.469   4.387   2.392 -0.6889 -0.0182 -0.1439
 1709TIP3    H226687   6.437   4.416   2.538  0.9815  0.2192  0.1934
 1710TIP3   OH226688   1.902   0.489   0.333  0.1634 -0.3108  0.0864
 1710TIP3    H126689   1.826   0.483   0.392 -0.8700 -0.2398 -1.1992
 1710TIP3    H226690   1.907   0.403   0.292  1.1516 -0.5035  0.5778
 1711TIP3   OH226691   4.447   6.298   1.545 -0.1326 -0.3161 -0.8894
 1711TIP3    H126692   4.450   6.216   1.594 -0.3700 -0.0337 -0.3929
 1711TIP3    H226693   4.482   6.276   1.459  2.8079 -0.2809  0.1662
 1712TIP3   OH226694   6.691   6.523   3.462  0.3395 -0.3273 -0.0475
 1712TIP3    H126695   6.666   6.465   3.390  1.1028  0.0377 -0.6272
 1712TIP3    H226696   6.719   6.465   3.532 -1.1068 -0.7135  0.2521
 1713TIP3   OH226697   4.201   5.757   1.279 -0.0453  0.7535 -0.2839
 1713TIP3    H126698   4.176   5.668   1.252  1.8081 -0.1692  0.8447
 1713TIP3    H226699   4.119   5.796   1.309 -0.7302 -1.0083  0.3068
 1714TIP3   OH226700   2.279   0.264   0.133  0.3903  0.0515  0.4043
 1714TIP3    H126701   2.286   0.352   0.171  1.8965 -0.9436  2.6502
 1714TIP3    H226702   2.189   0.238   0.153 -0.7685  1.7465 -2.0759
 1715TIP3   OH226703   5.687   4.924   8.937 -0.1621  0.0647  0.4288
 1715TIP3    H126704   5.604   4.952   8.974 -1.2034 -0.8805 -1.0868
 1715TIP3    H226705   5.680   4.942   8.843  1.3391 -0.0387  0.2602
 1716TIP3   OH226706   5.616   2.251   1.291  0.6977 -0.1441  0.4292
 1716TIP3    H126707   5.667   2.330   1.304  0.7565  0.1099 -1.1183
 1716TIP3    H226708   5.574   2.263   1.206 -1.8818 -0.3862  1.5702
 1717TIP3   OH226709   6.003   5.294   2.131 -0.2319  0.1235 -0.2023
 1717TIP3    H126710   6.054   5.240   2.191 -2.7623 -3.8077 -1.1835
 1717TIP3    H226711   6.022   5.259   2.045 -0.8026  1.9537 -1.1251
 1718TIP3   OH226712   3.383   4.900   1.943 -0.4095  0.3979 -0.2616
 1718TIP3    H126713   3.418   4.888   2.032 -0.3395  0.1912 -0.3163
 1718TIP3    H226714   3.307   4.842   1.939  1.5984 -2.3581 -1.4776
 1719TIP3   OH226715   3.524   1.450   8.368  0.2295 -0.2315 -0.0547
 1719TIP3    H126716   3.570   1.526   8.403 -0.6314 -0.2633  1.2159
 1719TIP3    H226717   3.528   1.385   8.438 -0.4282 -0.7734 -0.5003
 1720TIP3   OH226718   4.462   6.057   2.617 -0.0189 -0.1452  0.1186
 1720TIP3    H126719   4.366   6.055   2.624  0.0386 -2.0421  0.8789
 1720TIP3    H226720   4.488   6.132   2.670 -1.0263 -0.4794  1.1309
 1721TIP3   OH226721   0.395   4.635   1.886 -0.4330  0.6911  0.4428
 1721TIP3    H126722   0.426   4.638   1.795 -0.1333 -0.3741  0.5003
 1721TIP3    H226723   0.317   4.580   1.883 -0.5825  0.8815  0.7910
 1722TIP3   OH226724   5.764   4.825   1.044 -0.5138  0.1080 -0.4605
 1722TIP3    H126725   5.739   4.758   0.981 -2.4068 -0.3789  0.7456
 1722TIP3    H226726   5.692   4.828   1.107 -0.5487  3.3130 -0.4714
 1723TIP3   OH226727   2.695   0.112   8.821 -0.5353 -0.4261  0.4149
 1723TIP3    H126728   2.732   0.069   8.743  0.3662 -2.5355  1.9048
 1723TIP3    H226729   2.662   0.195   8.789  1.4686 -0.4136 -1.8989
 1724TIP3   OH226730   2.412   6.521   2.081 -0.1114 -0.1751  0.9473
 1724TIP3    H126731   2.459   6.533   2.164  0.0937 -0.1857  0.8326
 1724TIP3    H226732   2.388   6.609   2.054  1.4786  0.0238  0.0540
 1725TIP3   OH226733   3.807   4.037   8.313  0.4384  0.1182  0.1762
 1725TIP3    H126734   3.791   3.943   8.302  0.3007  0.1027  0.4909
 1725TIP3    H226735   3.736   4.066   8.371 -0.3344  0.6787 -0.9991
 1726TIP3   OH226736   3.775   3.895   0.652  0.9493 -0.5122 -0.0650
 1726TIP3    H126737   3.769   3.892   0.747  0.2393 -1.1947 -0.1188
 1726TIP3    H226738   3.692   3.934   0.624  0.6254 -1.4192 -0.4379
 1727TIP3   OH226739   4.293   0.174   0.190  0.3119 -0.3719  0.1644
 1727TIP3    H126740   4.381   0.168   0.154  0.1976 -1.3243  0.0207
 1727TIP3    H226741   4.295   0.251   0.247  1.7793 -1.4484  1.6382
 1728TIP3   OH226742   5.988   2.228   1.237 -0.4981 -0.3369 -0.2678
 1728TIP3    H126743   5.960   2.316   1.264  0.1205 -0.0624 -0.5080
 1728TIP3    H226744   6.053   2.202   1.302 -1.8510 -1.3192  0.7695
 1729TIP3   OH226745   0.706   6.139   8.092 -0.2154  0.2827  0.9725
 1729TIP3    H126746   0.775   6.173   8.148  2.1954  0.0821 -1.6390
 1729TIP3    H226747   0.694   6.049   8.120 -0.4056  0.6985  2.3040
 1730TIP3   OH226748   4.325   3.570   1.221 -0.5726 -0.0166 -0.2177
 1730TIP3    H126749   4.360   3.500   1.276 -0.2046 -0.4651 -1.0018
 1730TIP3    H226750   4.323   3.532   1.133 -0.3465  0.9705 -0.6547
 1731TIP3   OH226751   1.693   5.687   0.906  0.3488  0.1710  0.6054
 1731TIP3    H126752   1.711   5.629   0.832  1.3275  1.7828 -0.4807
 1731TIP3    H226753   1.779   5.717   0.934 -0.1094  0.7134  1.4746
 1732TIP3   OH226754   2.697   1.740   8.686  0.4426 -0.3743  0.0725
 1732TIP3    H126755   2.715   1.761   8.594 -1.5535  1.3246 -0.0232
 1732TIP3    H226756   2.622   1.680   8.681 -1.3674  1.6845  0.5162
 1733TIP3   OH226757   4.116   2.234   1.952  0.0958 -0.2554 -0.5483
 1733TIP3    H126758   4.203   2.196   1.970  0.5581  0.2665 -1.5995
 1733TIP3    H226759   4.054   2.169   1.985  0.8647 -0.0236  1.5019
 1734TIP3   OH226760   1.335   4.207   1.477  0.2615 -0.2201 -0.7260
 1734TIP3    H126761   1.279   4.282   1.456 -0.7559 -0.1914  1.7287
 1734TIP3    H226762   1.372   4.181   1.393  0.9179  3.1908 -1.6722
 1735TIP3   OH226763   1.300   5.682   7.240 -0.4347  0.2310 -0.4212
 1735TIP3    H126764   1.215   5.643   7.261 -0.2280 -0.1292 -0.2268
 1735TIP3    H226765   1.304   5.761   7.294 -0.0117 -0.5602  0.7687
 1736TIP3   OH226766   4.054   1.116   8.527 -0.1437 -0.3666 -0.0407
 1736TIP3    H126767   4.012   1.093   8.444  0.2077 -1.3750  0.0564
 1736TIP3    H226768   4.119   1.182   8.503 -0.9957  0.3972 -0.3486
 1737TIP3   OH226769   4.521   1.289   0.517  0.2609 -0.1462 -0.5756
 1737TIP3    H126770   4.448   1.259   0.463  1.5780  0.7263 -2.9869
 1737TIP3    H226771   4.506   1.383   0.527 -0.0318 -0.3129  0.7513
 1738TIP3   OH226772   5.263   1.855   0.172  0.5470 -0.2876  0.4297
 1738TIP3    H126773   5.187   1.843   0.115  1.1358 -1.9555 -0.0549
 1738TIP3    H226774   5.288   1.947   0.160 -1.0325  0.1297  0.1757
 1739TIP3   OH226775   1.666   6.315   8.865 -0.5414  0.0298  0.2392
 1739TIP3    H126776   1.633   6.228   8.889  0.2321 -0.1074  0.8445
 1739TIP3    H226777   1.600   6.350   8.806  0.6947 -2.3701 -2.8549
 1740TIP3   OH226778   2.068   0.248   8.725  0.1336 -0.3782 -0.1207
 1740TIP3    H126779   2.035   0.159   8.712 -1.0054 -0.3726  2.2661
 1740TIP3    H226780   2.066   0.287   8.638 -0.0148 -2.4419 -1.1166
 1741TIP3   OH226781   4.668   6.636   2.114 -0.3025 -0.0811 -0.4214
 1741TIP3    H126782   4.573   6.627   2.118 -0.5150  1.7989 -0.4278
 1741TIP3    H226783   4.699   6.550   2.084 -1.8956 -1.0443  0.5511
 1742TIP3   OH226784   6.086   2.027   1.674  0.0797  0.9690  0.1283
 1742TIP3    H126785   6.141   2.103   1.690  0.7158  1.0409 -1.9782
 1742TIP3    H226786   6.086   2.018   1.578 -1.6069 -0.4873  0.2144
 1743TIP3   OH226787   3.823   4.264   1.474  0.3682 -0.0788 -0.3180
 1743TIP3    H126788   3.832   4.173   1.503  0.8695  0.4914  1.4653
 1743TIP3    H226789   3.911   4.301   1.484  0.3987  0.3681 -1.9640
 1744TIP3   OH226790   0.912   5.080   8.058 -0.0762 -0.1651  0.2602
 1744TIP3    H126791   0.904   5.176   8.054 -2.0081 -0.2352  1.0649
 1744TIP3    H226792   0.988   5.065   8.115  0.7037  0.8712 -0.4775
 1745TIP3   OH226793   4.625   3.754   7.545  0.1549 -0.3656  0.6727
 1745TIP3    H126794   4.584   3.841   7.540 -1.1484 -1.0272 -1.6478
 1745TIP3    H226795   4.553   3.695   7.566  0.9050 -1.0099  1.5288
 1746TIP3   OH226796   6.218   5.669   0.736 -0.1057  0.0481  0.2711
 1746TIP3    H126797   6.191   5.702   0.822  0.3865  0.9522  0.0877
 1746TIP3    H226798   6.305   5.633   0.750 -0.2996 -0.4167  0.2904
 1747TIP3   OH226799   5.418   3.358   1.543  0.4507 -0.1011  0.1091
 1747TIP3    H126800   5.474   3.291   1.505  0.6049 -0.0875  0.3173
 1747TIP3    H226801   5.454   3.375   1.630 -0.4946 -0.8514  0.6678
 1748TIP3   OH226802   5.761   2.465   7.302 -0.4590 -0.3142 -0.3575
 1748TIP3    H126803   5.824   2.427   7.240  0.1974 -0.8473  0.6066
 1748TIP3    H226804   5.705   2.520   7.249  1.3344  0.8383 -1.1321
 1749TIP3   OH226805   5.615   1.899   7.739  0.1668  0.0069 -0.7079
 1749TIP3    H126806   5.674   1.875   7.667 -0.7261 -1.2313 -1.0724
 1749TIP3    H226807   5.555   1.962   7.700 -0.5381 -0.9280 -1.1867
 1750TIP3   OH226808   4.415   6.349   7.051 -0.0414 -0.0245 -0.0443
 1750TIP3    H126809   4.450   6.306   6.972 -0.4903 -0.5794  0.0507
 1750TIP3    H226810   4.320   6.336   7.045 -0.0045 -1.0400  1.1364
 1751TIP3   OH226811   0.636   5.779   9.016 -0.4549 -1.0057  0.5431
 1751TIP3    H126812   0.614   5.844   9.082 -0.4076 -1.0599  0.6120
 1751TIP3    H226813   0.728   5.759   9.031  0.3157  0.8843 -1.1351
 1752TIP3   OH226814   5.627   0.259   8.354  0.7132 -0.7683  0.3172
 1752TIP3    H126815   5.719   0.279   8.372  0.9707 -1.6793  0.0385
 1752TIP3    H226816   5.581   0.340   8.375  1.5280 -0.4281  0.8566
 1753TIP3   OH226817   0.179   6.645   3.344 -0.1378 -0.0833 -0.9666
 1753TIP3    H126818   0.254   6.618   3.398 -1.2946  0.9235  1.3067
 1753TIP3    H226819   0.106   6.592   3.377 -1.0664  1.1709 -0.9325
 1754TIP3   OH226820   1.375   2.453   7.182  0.4384  0.2612  0.1298
 1754TIP3    H126821   1.402   2.444   7.273  1.7916 -0.9006 -0.3496
 1754TIP3    H226822   1.408   2.539   7.155 -2.2450  1.8085  1.4193
 1755TIP3   OH226823   3.020   4.955   2.080 -0.1119 -0.8473 -0.5988
 1755TIP3    H126824   3.103   4.988   2.113 -0.7863  0.1746  0.0937
 1755TIP3    H226825   2.971   4.929   2.158 -1.4494  0.9747 -0.7603
 1756TIP3   OH226826   5.668   5.620   0.191  0.4626  0.1057 -0.7088
 1756TIP3    H126827   5.624   5.700   0.221  1.9196  0.0032  2.0436
 1756TIP3    H226828   5.749   5.651   0.151  0.5164  0.0554 -0.6384
 1757TIP3   OH226829   2.081   1.494   0.828 -0.4340 -0.2999  0.1585
 1757TIP3    H126830   2.110   1.403   0.825  1.6318  0.2653  1.0411
 1757TIP3    H226831   2.087   1.525   0.737  0.3712 -0.6194  0.0988
 1758TIP3   OH226832   5.335   6.623   7.122 -0.8283 -0.6218  0.1661
 1758TIP3    H126833   5.261   6.565   7.107  0.1896 -1.3164 -2.8576
 1758TIP3    H226834   5.345   6.671   7.040  2.3693 -0.9821  0.2217
 1759TIP3   OH226835   3.824   2.325   8.729  0.2895  0.4190  0.0544
 1759TIP3    H126836   3.852   2.337   8.638  0.8079  0.5754  0.2333
 1759TIP3    H226837   3.784   2.408   8.754 -0.5050  0.1428 -0.2521
 1760TIP3   OH226838   1.440   0.637   2.291 -0.2547 -0.5521 -0.3174
 1760TIP3    H126839   1.383   0.586   2.348  0.9848 -0.6274  0.9049
 1760TIP3    H226840   1.480   0.572   2.233 -0.3462 -0.6781 -0.2413
 1761TIP3   OH226841   5.443   3.178   2.325  0.2811 -0.3496 -0.5802
 1761TIP3    H126842   5.369   3.187   2.386  1.0758 -0.4329  0.4220
 1761TIP3    H226843   5.403   3.183   2.238 -0.6930  1.4627 -0.0792
 1762TIP3   OH226844   4.289   3.490   0.559  0.0649  0.4342 -0.4652
 1762TIP3    H126845   4.285   3.584   0.543  0.2675  0.6918  0.8501
 1762TIP3    H226846   4.198   3.463   0.567  0.0397  0.8176  0.6767
 1763TIP3   OH226847   1.539   4.247   2.633  0.6496  0.3400  0.2306
 1763TIP3    H126848   1.447   4.223   2.645  0.0415  2.5243  0.2115
 1763TIP3    H226849   1.586   4.193   2.697 -0.4795 -1.5478 -0.4430
 1764TIP3   OH226850   2.548   0.002   1.003  0.2916 -0.4031 -0.7289
 1764TIP3    H126851   2.477   0.039   0.950  0.2093 -1.2434 -1.2200
 1764TIP3    H226852   2.535  -0.092   0.998 -0.5049 -0.5286  1.8625
 1765TIP3   OH226853   2.397   4.990   1.166 -0.1413 -0.1344 -0.7501
 1765TIP3    H126854   2.333   4.948   1.109 -0.2699 -3.1686  1.3957
 1765TIP3    H226855   2.352   4.999   1.250  1.4784 -0.1814  0.1679
 1766TIP3   OH226856   2.974   1.458   8.280 -0.4412  0.4988 -0.1767
 1766TIP3    H126857   2.958   1.363   8.277 -3.9557  0.9730 -0.9563
 1766TIP3    H226858   2.967   1.480   8.373 -0.9368  0.1321 -0.1189
 1767TIP3   OH226859   1.627   1.273   0.594 -0.0643 -0.2729  0.3618
 1767TIP3    H126860   1.617   1.368   0.595 -0.9191 -0.3492  1.5600
 1767TIP3    H226861   1.682   1.255   0.518  0.4916  1.2137  0.3829
 1768TIP3   OH226862   2.131   3.132   8.321  0.0042  0.2570  0.2287
 1768TIP3    H126863   2.037   3.120   8.319 -0.1496  1.3244  0.3733
 1768TIP3    H226864   2.147   3.186   8.399  0.3320  3.0098 -1.5737
 1769TIP3   OH226865   2.825   0.082   2.085  0.6050  0.2588  0.5417
 1769TIP3    H126866   2.751   0.091   2.145  0.6214  0.2992  0.5562
 1769TIP3    H226867   2.811  -0.002   2.042  1.1491 -0.2632  1.3621
 1770TIP3   OH226868   1.823   1.903   1.679  0.0586  0.0255 -0.7319
 1770TIP3    H126869   1.911   1.919   1.713  0.4620  1.8861 -2.5063
 1770TIP3    H226870   1.771   1.975   1.713 -0.0561  0.6187 -2.1033
 1771TIP3   OH226871   2.851   5.233   0.501 -0.3878 -0.8017 -0.7805
 1771TIP3    H126872   2.923   5.171   0.517  0.6432  0.5133 -0.0639
 1771TIP3    H226873   2.881   5.314   0.542 -2.8996 -0.5581  0.7947
 1772TIP3   OH226874   1.823   6.333   1.810  0.0527 -0.3024  0.1864
 1772TIP3    H126875   1.862   6.251   1.841  1.6010  0.4935  0.4152
 1772TIP3    H226876   1.820   6.389   1.887  0.5781  0.4322 -0.3195
 1773TIP3   OH226877   3.662   6.041   1.241  0.3870 -0.5458 -0.6193
 1773TIP3    H126878   3.624   6.001   1.162 -0.8352 -1.5566  0.4382
 1773TIP3    H226879   3.642   5.979   1.311  1.1282  0.5087  0.5658
 1774TIP3   OH226880   3.068   1.054   1.080  0.1038  0.5846  0.0254
 1774TIP3    H126881   3.087   0.985   1.143  0.8224 -0.1030 -0.9205
 1774TIP3    H226882   3.045   1.130   1.134  2.7374  0.6319  1.2189
 1775TIP3   OH226883   2.145   1.217   2.530 -0.3686 -0.3327 -0.3383
 1775TIP3    H126884   2.079   1.261   2.583 -1.7307 -1.8845 -0.6513
 1775TIP3    H226885   2.227   1.230   2.577 -1.2017  0.0615  1.0626
 1776TIP3   OH226886   2.303   4.496   8.577  0.3256 -0.8871 -0.1597
 1776TIP3    H126887   2.227   4.522   8.525  0.5668  0.5556  0.1593
 1776TIP3    H226888   2.279   4.411   8.614 -0.4016 -1.2866 -1.4856
 1777TIP3   OH226889   2.624   2.350   2.428 -0.2344  0.0197 -0.0432
 1777TIP3    H126890   2.529   2.348   2.419 -0.2701 -2.1171  0.3025
 1777TIP3    H226891   2.642   2.291   2.501  1.3689  0.4644 -0.0394
 1778TIP3   OH226892   5.914   1.841   1.357 -0.2069 -0.0609  0.4497
 1778TIP3    H126893   5.851   1.913   1.369 -0.7797 -0.0825 -1.8925
 1778TIP3    H226894   5.999   1.884   1.350 -0.2666  0.1869  1.1706
 1779TIP3   OH226895   5.065   3.074   8.483 -0.4305 -0.3887  0.3097
 1779TIP3    H126896   4.983   3.123   8.476  0.8835  1.7797 -1.2547
 1779TIP3    H226897   5.125   3.133   8.527  0.5677 -1.5684  0.6019
 1780TIP3   OH226898   3.825   3.534   7.813 -0.2773 -0.1513 -0.3309
 1780TIP3    H126899   3.861   3.447   7.827 -1.0433 -0.5927 -0.9978
 1780TIP3    H226900   3.901   3.590   7.797  0.3908 -0.2513  2.1343
 1781TIP3   OH226901   2.261   6.660   0.577 -0.2447  0.5293 -0.0235
 1781TIP3    H126902   2.348   6.659   0.618 -0.9036  0.9990  1.4573
 1781TIP3    H226903   2.271   6.716   0.500  0.5021  1.5560  0.7896
 1782TIP3   OH226904   2.622   2.300   7.274 -0.1149 -0.4717  0.6271
 1782TIP3    H126905   2.605   2.322   7.183 -0.3731 -1.1385  0.5101
 1782TIP3    H226906   2.570   2.221   7.291  0.1941 -0.5553  1.2503
 1783TIP3   OH226907   3.275   5.232   0.269  0.6758  0.5868  0.5327
 1783TIP3    H126908   3.281   5.243   0.364  0.4375  0.2531  0.5893
 1783TIP3    H226909   3.228   5.310   0.239  1.5726  1.1487  0.5738
 1784TIP3   OH226910   5.120   6.371   8.910 -0.0495  0.1033 -0.2140
 1784TIP3    H126911   5.077   6.310   8.970  0.3605 -0.3393 -0.3603
 1784TIP3    H226912   5.048   6.418   8.869 -0.5245 -1.7583 -1.6658
 1785TIP3   OH226913   2.072   3.236   2.615 -0.3916 -0.1614  0.4335
 1785TIP3    H126914   1.979   3.216   2.608 -0.1118 -1.3769 -0.1177
 1785TIP3    H226915   2.116   3.151   2.605  0.8901  0.6858 -2.0472
 1786TIP3   OH226916   5.718   3.634   2.221  0.6199  0.1850  0.5848
 1786TIP3    H126917   5.709   3.633   2.316  0.5856  0.1220  0.5812
 1786TIP3    H226918   5.811   3.614   2.206  0.8734  1.2639  0.6330
 1787TIP3   OH226919   5.316   5.338   7.993  0.0773  0.4534  0.3099
 1787TIP3    H126920   5.251   5.386   7.941  1.0332  0.0009 -1.3661
 1787TIP3    H226921   5.367   5.289   7.929 -0.3666 -2.2399  1.8769
 1788TIP3   OH226922   0.119   6.044   1.123  0.6467  0.1894 -0.3317
 1788TIP3    H126923   0.157   5.957   1.140  3.7657  1.4759 -0.2032
 1788TIP3    H226924   0.152   6.068   1.037  1.4101  2.0192  0.4372
 1789TIP3   OH226925   0.011   2.990   7.796 -0.8201 -0.1050  0.1037
 1789TIP3    H126926   0.101   2.970   7.771 -0.4677  0.1275  1.1114
 1789TIP3    H226927  -0.012   3.067   7.744 -0.4596 -0.1946 -0.1948
 1790TIP3   OH226928   1.952   2.731   7.942  0.1813  0.2589 -0.0896
 1790TIP3    H126929   2.000   2.672   8.000 -0.3474 -0.0133  0.0788
 1790TIP3    H226930   2.005   2.735   7.862  0.4814 -0.0323  0.0942
 1791TIP3   OH226931   2.157   4.748   2.136  0.6688  0.3372  0.3280
 1791TIP3    H126932   2.071   4.707   2.143  0.1319  1.5922  1.6761
 1791TIP3    H226933   2.189   4.723   2.049 -0.8198 -0.5816  0.0154
 1792TIP3   OH226934   2.672   5.073   1.061  0.3160  0.9174  0.1573
 1792TIP3    H126935   2.708   5.112   0.981  0.4769  1.2498  0.3882
 1792TIP3    H226936   2.578   5.066   1.045  0.3807  0.7376 -0.1612
 1793TIP3   OH226937   0.658   0.382   0.335  0.2117 -0.0344 -0.5160
 1793TIP3    H126938   0.665   0.478   0.329  0.0077 -0.0896 -1.9674
 1793TIP3    H226939   0.612   0.367   0.418  1.8951  1.0202  0.6621
 1794TIP3   OH226940   3.916   1.436   8.568 -0.2984 -0.5806  0.3030
 1794TIP3    H126941   3.859   1.360   8.582 -1.9666  0.2686 -1.4486
 1794TIP3    H226942   3.890   1.498   8.636 -2.0294  0.0506 -0.8563
 1795TIP3   OH226943   2.499   5.747   1.922  0.3821 -0.1167  0.3901
 1795TIP3    H126944   2.552   5.746   2.002  0.2222 -0.3038  0.4936
 1795TIP3    H226945   2.480   5.840   1.907  1.0813 -0.0049  0.1249
 1796TIP3   OH226946   0.300   2.078   2.777 -0.6996 -0.4236 -0.0085
 1796TIP3    H126947   0.208   2.098   2.791 -1.1798 -0.5903 -2.4595
 1796TIP3    H226948   0.304   1.983   2.770 -0.1521 -0.4961  1.0256
 1797TIP3   OH226949   2.798   5.913   8.487 -0.3323  0.3391  0.2400
 1797TIP3    H126950   2.744   5.836   8.505  0.0256 -0.2875 -1.2246
 1797TIP3    H226951   2.744   5.966   8.429 -0.7367  1.4145  1.5571
 1798TIP3   OH226952   3.271   2.915   0.668  0.0004  0.1980 -0.4253
 1798TIP3    H126953   3.297   2.977   0.737 -1.1960  0.1888  0.0509
 1798TIP3    H226954   3.228   2.844   0.715  0.7085 -0.6653 -1.0438
 1799TIP3   OH226955   0.617   2.735   8.656  0.1054  0.0159 -0.7130
 1799TIP3    H126956   0.618   2.668   8.724 -0.7903  0.3488 -0.3662
 1799TIP3    H226957   0.571   2.695   8.583 -0.4871  0.2662 -0.4829
 1800TIP3   OH226958   2.029   5.578   0.116  0.7002  0.1364  0.2385
 1800TIP3    H126959   2.010   5.570   0.023  2.4140  1.9153 -0.3336
 1800TIP3    H226960   2.046   5.489   0.146 -1.4112 -0.6617 -0.7428
 1801TIP3   OH226961   2.757   4.716   2.492  0.5546 -0.6031  0.5451
 1801TIP3    H126962   2.764   4.720   2.587  0.0678  1.6012  0.5438
 1801TIP3    H226963   2.675   4.669   2.476  0.2563 -0.3258  1.2339
 1802TIP3   OH226964   5.422   0.774   0.916  0.3380  0.0271 -0.4684
 1802TIP3    H126965   5.357   0.766   0.846 -0.2537  0.0755  0.0711
 1802TIP3    H226966   5.371   0.796   0.994  0.8672 -1.1444  0.2251
 1803TIP3   OH226967   4.893   5.738   1.859  0.3264 -0.0984 -0.6298
 1803TIP3    H126968   4.981   5.712   1.886 -0.0952 -0.8577  0.0560
 1803TIP3    H226969   4.849   5.764   1.941 -0.5302 -1.1005 -0.7522
 1804TIP3   OH226970   4.988   5.666   1.134 -0.1227  0.3691  0.2218
 1804TIP3    H126971   4.924   5.627   1.193  0.3250 -0.5640  0.1106
 1804TIP3    H226972   5.066   5.611   1.143  0.0934  0.4611 -0.9096
 1805TIP3   OH226973   3.264   6.209   8.550 -0.2709  0.6584  0.0847
 1805TIP3    H126974   3.268   6.142   8.482  0.1414 -0.5104  1.2211
 1805TIP3    H226975   3.280   6.292   8.504 -1.4325  0.0762 -1.4551
 1806TIP3   OH226976   0.308   4.658   7.501  0.2646  0.1088 -0.0131
 1806TIP3    H126977   0.213   4.651   7.504  0.1515  0.0616 -2.0950
 1806TIP3    H226978   0.325   4.748   7.474  0.7948  0.0745  0.1894
 1807TIP3   OH226979   3.889   2.455   1.421  0.5364 -0.2192 -0.0282
 1807TIP3    H126980   3.859   2.369   1.394  1.2266 -0.1744 -0.9999
 1807TIP3    H226981   3.824   2.485   1.484 -0.0221 -1.1990 -0.1267
 1808TIP3   OH226982   2.393   1.102   9.002  0.5090  0.1274 -0.2967
 1808TIP3    H126983   2.417   1.030   9.059  0.4498  0.3709  0.0369
 1808TIP3    H226984   2.418   1.181   9.050  0.8575  0.3239 -0.7850
 1809TIP3   OH226985   2.774   0.355   2.788 -0.4534  0.6067 -0.3862
 1809TIP3    H126986   2.691   0.367   2.742 -1.5777  0.7551  1.5708
 1809TIP3    H226987   2.804   0.444   2.808 -0.9541  0.5363  0.7688
 1810TIP3   OH226988   4.201   0.439   1.376 -0.0395 -0.4403  0.2176
 1810TIP3    H126989   4.193   0.347   1.402  1.5141 -0.9110 -0.8186
 1810TIP3    H226990   4.267   0.439   1.307 -0.4677  1.3858 -0.2579
 1811TIP3   OH226991   3.500   6.692   1.090  0.1263 -0.2459 -0.2237
 1811TIP3    H126992   3.584   6.727   1.121 -0.6705  1.9220 -0.3163
 1811TIP3    H226993   3.437   6.762   1.109 -1.4749 -1.3892 -1.1300
 1812TIP3   OH226994   0.356   4.912   3.180  0.4433  0.2510  0.2654
 1812TIP3    H126995   0.424   4.915   3.113  1.0488 -0.9466  0.7820
 1812TIP3    H226996   0.344   5.003   3.207  0.2914  0.7393 -1.3390
 1813TIP3   OH226997   1.892   2.784   0.443  0.2502 -0.1249  0.4137
 1813TIP3    H126998   1.916   2.876   0.437  0.5503 -0.1641  0.9828
 1813TIP3    H226999   1.926   2.755   0.528  0.5438 -0.8720  0.0548
 1814TIP3   OH227000   4.969   1.911   9.016 -0.2102  0.8063  0.0855
 1814TIP3    H127001   4.950   1.923   8.922 -0.3433  0.5350  0.0790
 1814TIP3    H227002   4.967   2.000   9.051 -1.3044  0.8099  0.0497
 1815TIP3   OH227003   3.317   0.449   0.952 -0.0576 -1.1206  0.4930
 1815TIP3    H127004   3.354   0.422   1.036 -0.3653 -2.1615  0.3097
 1815TIP3    H227005   3.261   0.376   0.926 -2.3011  0.3922  0.7593
 1816TIP3   OH227006   1.231   4.483   1.317  0.6541  0.0029 -0.4318
 1816TIP3    H127007   1.234   4.430   1.237  0.9968  0.7802 -0.9447
 1816TIP3    H227008   1.287   4.558   1.298 -1.1089  1.4007 -0.3364
 1817TIP3   OH227009   4.738   2.211   7.489 -0.4616  0.4866 -0.0298
 1817TIP3    H127010   4.744   2.273   7.562 -0.4647  0.9018 -0.3781
 1817TIP3    H227011   4.794   2.248   7.421 -0.2748 -0.0179 -0.1574
 1818TIP3   OH227012   1.976   4.607   1.553 -0.3197 -0.6133 -0.2716
 1818TIP3    H127013   1.924   4.666   1.608  0.4880 -0.3441  0.2107
 1818TIP3    H227014   2.043   4.572   1.611  0.7103 -0.1351 -1.1339
 1819TIP3   OH227015   6.370   4.790   7.532  0.0226  0.1778 -0.6079
 1819TIP3    H127016   6.306   4.861   7.535  0.2094  0.4086 -1.7038
 1819TIP3    H227017   6.452   4.833   7.510  0.5419 -0.1455  0.5852
 1820TIP3   OH227018   1.891   1.359   8.720  0.1008  0.4919  0.4291
 1820TIP3    H127019   1.800   1.352   8.748  1.1005 -1.3991  3.7803
 1820TIP3    H227020   1.902   1.450   8.694 -1.8344  1.8292  3.7434
 1821TIP3   OH227021   4.579   2.726   6.896 -0.8683 -0.1238 -0.1659
 1821TIP3    H127022   4.672   2.706   6.908 -0.7136  0.9518  0.5341
 1821TIP3    H227023   4.540   2.641   6.875 -0.0580 -1.0007  1.5991
 1822TIP3   OH227024   4.603   2.894   0.720  0.2892  0.0291  0.0427
 1822TIP3    H127025   4.646   2.868   0.638  0.4500  0.9272 -0.1602
 1822TIP3    H227026   4.540   2.961   0.694  0.3060  0.2795  0.6510
 1823TIP3   OH227027   2.023   3.620   0.163  0.1389 -0.8565  0.0370
 1823TIP3    H127028   1.929   3.636   0.148  0.5944  1.8736 -0.4674
 1823TIP3    H227029   2.048   3.562   0.091 -0.5923  0.8701 -1.7151
 1824TIP3   OH227030   6.641   3.965   2.973 -0.5836 -0.1465 -0.2105
 1824TIP3    H127031   6.590   3.973   3.054 -0.8527  1.0783 -0.4786
 1824TIP3    H227032   6.721   4.015   2.990 -0.6514  0.1333 -0.6904
 1825TIP3   OH227033   1.136   2.255   8.236  0.8374  0.8547 -0.6702
 1825TIP3    H127034   1.114   2.307   8.159 -1.9212  0.9852  0.1073
 1825TIP3    H227035   1.053   2.244   8.283  1.9843 -1.1738  1.0996
 1826TIP3   OH227036   2.061   4.894   0.145 -0.5240  0.1812 -0.2902
 1826TIP3    H127037   2.101   4.828   0.089  0.4077  0.5591 -0.0809
 1826TIP3    H227038   2.129   4.916   0.209 -1.2694  0.3968  0.4438
 1827TIP3   OH227039   5.506   3.669   7.761 -0.3624  0.0430  0.1188
 1827TIP3    H127040   5.512   3.663   7.856 -1.3944 -0.8492  0.1409
 1827TIP3    H227041   5.544   3.587   7.730  3.1197  1.6813 -0.4296
 1828TIP3   OH227042   0.165   3.824   0.000  0.2144  0.2322  0.5817
 1828TIP3    H127043   0.205   3.844  -0.084  2.6273 -1.0678  1.3169
 1828TIP3    H227044   0.098   3.759  -0.020  1.2222 -0.5730 -0.3115
 1829TIP3   OH227045   0.950   0.301   2.576  0.3427 -0.2369  0.0753
 1829TIP3    H127046   0.865   0.320   2.537  1.1348 -0.2692 -1.7615
 1829TIP3    H227047   0.951   0.206   2.587 -0.5561 -0.0918  1.9225
 1830TIP3   OH227048   2.051   5.535   2.274  0.1293 -0.1267 -0.2513
 1830TIP3    H127049   1.982   5.473   2.298  0.2283 -0.2682 -0.3291
 1830TIP3    H227050   2.075   5.577   2.357 -1.5441  1.4934 -0.5178
 1831TIP3   OH227051   3.431   6.720   7.835 -0.4527 -0.3960 -0.4936
 1831TIP3    H127052   3.344   6.748   7.807 -0.6435 -0.7247 -0.2319
 1831TIP3    H227053   3.418   6.685   7.923  0.2994  1.4622  0.3900
 1832TIP3   OH227054   5.834   4.758   7.187 -0.3921  0.0697 -0.2464
 1832TIP3    H127055   5.777   4.831   7.213  1.7318  0.7587  3.1783
 1832TIP3    H227056   5.881   4.790   7.111  0.3932  2.3273  1.0949
 1833TIP3   OH227057   6.444   2.244   1.156  0.5083  0.1215  0.1770
 1833TIP3    H127058   6.538   2.248   1.173  0.4108 -0.0333  0.7848
 1833TIP3    H227059   6.416   2.335   1.151  0.4142  0.2130  1.6635
 1834TIP3   OH227060   0.339   0.915   0.912 -0.1809  0.4365  0.1774
 1834TIP3    H127061   0.256   0.870   0.898 -0.3068  0.3887  0.9911
 1834TIP3    H227062   0.391   0.895   0.835 -1.1152  0.9130 -0.6043
 1835TIP3   OH227063   1.822   2.808   1.138 -0.1717  0.5951 -0.9477
 1835TIP3    H127064   1.811   2.788   1.231 -0.1722 -1.0629 -1.2730
 1835TIP3    H227065   1.874   2.888   1.136 -2.6811  2.4225  0.5062
 1836TIP3   OH227066   1.576   2.767   0.913  0.4081  0.5788  0.1088
 1836TIP3    H127067   1.653   2.726   0.953  2.4980  2.1515 -2.0433
 1836TIP3    H227068   1.574   2.855   0.950 -1.1916  0.1629  1.1072
 1837TIP3   OH227069   2.762   2.720   0.698  0.6623  0.0788 -0.1809
 1837TIP3    H127070   2.759   2.743   0.605  3.6602  1.5215 -0.0480
 1837TIP3    H227071   2.825   2.648   0.702  1.3572  0.7241  0.8057
 1838TIP3   OH227072   0.579   4.311   0.797  0.1467 -0.4433  0.3209
 1838TIP3    H127073   0.572   4.218   0.817 -1.3021 -0.9766 -2.1987
 1838TIP3    H227074   0.492   4.347   0.818 -0.5302 -0.4954 -2.0756
 1839TIP3   OH227075   3.398   5.623   1.643 -0.2547  0.3151  0.0435
 1839TIP3    H127076   3.411   5.718   1.651 -1.1917  0.3472  1.4082
 1839TIP3    H227077   3.478   5.592   1.601  0.5015  1.5860  0.4855
 1840TIP3   OH227078   4.669   3.739   0.332  0.3266 -0.0187  0.2144
 1840TIP3    H127079   4.639   3.791   0.407 -2.6941  0.7189 -1.3669
 1840TIP3    H227080   4.687   3.653   0.369 -2.8359 -0.2135  1.6446
 1841TIP3   OH227081   2.389   0.250   1.755  0.0827  0.1861 -0.0806
 1841TIP3    H127082   2.363   0.196   1.680  3.6948  0.4535 -1.7615
 1841TIP3    H227083   2.388   0.340   1.721  1.8547  0.3013  0.0964
 1842TIP3   OH227084   1.265   5.941   0.423  0.1364 -0.1499  0.1297
 1842TIP3    H127085   1.245   5.881   0.495  0.0955 -0.5359 -0.1961
 1842TIP3    H227086   1.230   6.025   0.452 -0.3500 -0.4163  0.3397
 1843TIP3   OH227087   0.869   2.722   2.168 -0.0821  0.1431 -0.0441
 1843TIP3    H127088   0.812   2.746   2.095  0.3500  1.3423 -0.0119
 1843TIP3    H227089   0.825   2.758   2.245 -0.6075 -1.2356  0.3444
 1844TIP3   OH227090   0.493   1.956   8.786 -0.0795  0.1523 -0.1133
 1844TIP3    H127091   0.420   1.910   8.744  2.1232 -0.7002 -3.3982
 1844TIP3    H227092   0.519   1.898   8.858 -0.6081 -1.2198 -0.9797
 1845TIP3   OH227093   0.847   2.508   8.295  0.5304 -0.1015 -0.5074
 1845TIP3    H127094   0.825   2.441   8.230  2.0287 -1.1700  0.0241
 1845TIP3    H227095   0.936   2.533   8.274  0.8964 -0.1759  0.8895
 1846TIP3   OH227096   1.431   1.879   2.648  0.2350  0.1025  0.5071
 1846TIP3    H127097   1.336   1.887   2.648 -0.1184 -2.7752 -0.4728
 1846TIP3    H227098   1.454   1.861   2.739  0.1119  2.6028  1.0784
 1847TIP3   OH227099   0.618   4.602   8.928 -0.2361 -0.4007  0.3324
 1847TIP3    H127100   0.708   4.635   8.934  1.7390 -4.7504 -1.4410
 1847TIP3    H227101   0.579   4.652   8.855  1.5758 -0.0699 -0.4562
 1848TIP3   OH227102   5.183   6.096   3.098 -0.5806 -0.2488 -0.2565
 1848TIP3    H127103   5.251   6.029   3.103 -0.0488  0.2667 -0.5222
 1848TIP3    H227104   5.206   6.158   3.167 -0.3551  0.3119 -0.8262
 1849TIP3   OH227105   4.811   4.982   8.466  0.5140  0.6274  0.6568
 1849TIP3    H127106   4.800   5.069   8.429  0.8203  0.5763  0.4403
 1849TIP3    H227107   4.825   4.925   8.390  2.5867  0.7449  0.9046
 1850TIP3   OH227108   0.031   0.033   8.852 -0.5040  0.1707  0.2763
 1850TIP3    H127109  -0.064   0.033   8.869 -0.5488  0.6923  0.0351
 1850TIP3    H227110   0.068   0.086   8.922 -0.0776 -2.1687  1.9533
 1851TIP3   OH227111   4.794   6.579   1.823  0.3096 -0.5798  0.0394
 1851TIP3    H127112   4.852   6.630   1.878  0.7901 -0.1957 -0.8042
 1851TIP3    H227113   4.852   6.516   1.779  0.0118 -0.5366 -0.4203
 1852TIP3   OH227114   5.710   3.638   0.752  0.2143  0.0610 -0.4488
 1852TIP3    H127115   5.702   3.648   0.847  0.4867 -0.1509 -0.4025
 1852TIP3    H227116   5.619   3.636   0.721  0.1310  1.0140 -0.2906
 1853TIP3   OH227117   4.279   4.752   8.908 -0.1762  0.1324 -0.7068
 1853TIP3    H127118   4.360   4.748   8.958 -0.8275 -4.1351  0.3433
 1853TIP3    H227119   4.216   4.794   8.967  0.5604  0.9756 -0.4967
 1854TIP3   OH227120   6.345   4.564   0.766 -0.3954 -0.2731 -0.1797
 1854TIP3    H127121   6.260   4.563   0.812 -0.2834 -0.2300  0.0317
 1854TIP3    H227122   6.392   4.637   0.807 -0.9904  0.9786 -1.6308
 1855TIP3   OH227123   6.622   5.286   0.938 -0.0774  0.4918 -0.3702
 1855TIP3    H127124   6.529   5.305   0.951  0.1386  1.4915 -0.2005
 1855TIP3    H227125   6.655   5.268   1.026  0.3996  2.6410 -0.0539
 1856TIP3   OH227126   0.682   1.165   7.197 -0.6400 -0.7218  0.0291
 1856TIP3    H127127   0.593   1.185   7.225 -1.4696 -1.5958 -1.8861
 1856TIP3    H227128   0.687   1.070   7.198 -0.7836 -0.8262 -2.8397
 1857TIP3   OH227129   4.986   4.042   3.050  0.1901  0.2951  0.2679
 1857TIP3    H127130   5.011   4.031   3.142 -0.0776  1.5016  0.5070
 1857TIP3    H227131   5.040   4.114   3.019  0.4130 -0.2254 -0.5892
 1858TIP3   OH227132   3.238   6.660   1.964  0.4793 -0.0504  0.0203
 1858TIP3    H127133   3.300   6.657   2.038  2.6299  1.1828 -1.6107
 1858TIP3    H227134   3.250   6.577   1.919  0.2640 -0.1864  0.2105
 1859TIP3   OH227135   5.731   4.430   7.342  0.2378  0.2162  0.3369
 1859TIP3    H127136   5.689   4.394   7.420  2.4998  0.3455  1.6988
 1859TIP3    H227137   5.799   4.367   7.320 -0.3048  0.2389 -1.5112
 1860TIP3   OH227138   0.531   0.101   7.240 -0.0366 -0.3004 -0.0651
 1860TIP3    H127139   0.563   0.096   7.330  0.9664 -0.7373 -0.4331
 1860TIP3    H227140   0.608   0.086   7.186 -0.6886 -0.3739 -1.0018
 1861TIP3   OH227141   1.917   6.398   8.759  0.5336  0.2211 -0.4527
 1861TIP3    H127142   1.845   6.347   8.797 -0.2583  1.4302 -0.2805
 1861TIP3    H227143   1.874   6.470   8.714  1.6548  1.2690  0.0851
 1862TIP3   OH227144   4.772   0.328   1.191 -0.2681  0.4783  0.1475
 1862TIP3    H127145   4.734   0.306   1.276 -0.8300  0.5578 -0.0849
 1862TIP3    H227146   4.812   0.246   1.161 -1.7396 -0.0801 -0.3863
 1863TIP3   OH227147   1.575   5.835   1.798  0.2794 -0.1715 -0.1341
 1863TIP3    H127148   1.640   5.765   1.802  1.1586  0.5824 -0.8884
 1863TIP3    H227149   1.612   5.899   1.739 -1.2381  0.2160 -0.7092
 1864TIP3   OH227150   3.093   4.437   8.617 -0.1885 -0.5336  0.1706
 1864TIP3    H127151   3.072   4.384   8.694 -1.8862  0.9379  0.8030
 1864TIP3    H227152   3.008   4.459   8.579  0.6045 -1.2334 -2.1824
 1865TIP3   OH227153   1.699   5.959   8.345  0.2996  0.3110 -0.1306
 1865TIP3    H127154   1.619   5.965   8.292 -0.8084 -0.3810  1.3898
 1865TIP3    H227155   1.746   5.884   8.310  0.4326  0.8707 -1.2016
 1866TIP3   OH227156   4.110   2.570   8.756 -0.0826  0.4293 -0.0269
 1866TIP3    H127157   4.142   2.635   8.693  0.1517  0.1573 -0.1901
 1866TIP3    H227158   4.027   2.605   8.787  0.2611  1.0366  0.2320
 1867TIP3   OH227159   5.805   2.485   6.778 -0.0929 -0.4723 -0.3613
 1867TIP3    H127160   5.734   2.492   6.713  0.7823  1.6914 -1.1828
 1867TIP3    H227161   5.885   2.478   6.726  0.4202 -1.8104  0.5529
 1868TIP3   OH227162   4.166   5.431   2.999 -0.1633 -0.1251  0.5459
 1868TIP3    H127163   4.076   5.452   3.023  0.1768  0.4933  1.3294
 1868TIP3    H227164   4.220   5.487   3.055  0.7010 -0.0177 -0.3659
 1869TIP3   OH227165   0.792   6.170   1.199  0.1713  0.8284 -0.8689
 1869TIP3    H127166   0.870   6.213   1.235 -0.1365 -0.2229  1.2013
 1869TIP3    H227167   0.822   6.132   1.116  1.0804  2.8371 -1.5300
 1870TIP3   OH227168   3.895   0.787   1.757 -0.2510  0.5053 -0.1870
 1870TIP3    H127169   3.863   0.877   1.752  0.1312  0.5875 -1.5104
 1870TIP3    H227170   3.817   0.732   1.747 -0.7039  0.6477  2.1380
 1871TIP3   OH227171   3.376   6.249   1.331  0.1990 -0.3575 -0.2688
 1871TIP3    H127172   3.407   6.332   1.293  1.2010 -0.5952 -0.0036
 1871TIP3    H227173   3.392   6.185   1.262  0.5131 -0.5179 -0.0504
 1872TIP3   OH227174   4.588   1.348   2.255 -0.4137  0.6453 -0.3911
 1872TIP3    H127175   4.627   1.355   2.342  0.8082  0.5737 -0.9135
 1872TIP3    H227176   4.503   1.307   2.270  0.0982 -0.0557  0.6937
 1873TIP3   OH227177   1.150   5.744   8.097  0.3118 -0.3572  0.0138
 1873TIP3    H127178   1.217   5.679   8.075  1.3504  0.9277 -0.7341
 1873TIP3    H227179   1.186   5.827   8.066 -0.2249  0.8673  2.4256
 1874TIP3   OH227180   5.769   5.839   7.453 -0.6120  0.2774 -0.4920
 1874TIP3    H127181   5.736   5.915   7.406 -2.0110  0.5714  0.8857
 1874TIP3    H227182   5.715   5.766   7.422  0.9889 -0.3071 -2.1129
 1875TIP3   OH227183   3.247   6.558   0.383 -0.6084 -0.2030  0.1805
 1875TIP3    H127184   3.322   6.536   0.438 -0.6315  0.3761  0.4451
 1875TIP3    H227185   3.270   6.642   0.344  0.4127 -1.5656 -2.4744
 1876TIP3   OH227186   2.606   0.996   2.785  0.0611 -0.4211 -0.7601
 1876TIP3    H127187   2.677   0.945   2.825  0.0543  0.4677  0.4488
 1876TIP3    H227188   2.539   1.001   2.853  0.0456  1.1577 -0.8492
 1877TIP3   OH227189   5.150   0.343   3.287 -0.6965 -0.2526 -0.0278
 1877TIP3    H127190   5.128   0.291   3.365 -0.8504 -0.9257 -0.5077
 1877TIP3    H227191   5.143   0.281   3.215 -0.1562  0.2676 -0.5353
 1878TIP3   OH227192   6.165   2.450   2.235  0.1455  0.1799  0.2604
 1878TIP3    H127193   6.136   2.520   2.294 -1.2244  0.2895 -0.5186
 1878TIP3    H227194   6.127   2.370   2.272 -1.0233  0.2977 -0.6661
 1879TIP3   OH227195   3.197   2.420   8.030 -0.8350  0.4660  0.1846
 1879TIP3    H127196   3.104   2.436   8.042 -1.0890 -0.7922  0.0700
 1879TIP3    H227197   3.209   2.329   8.058 -0.0803 -0.1485 -1.9712
 1880TIP3   OH227198   0.805   4.458   0.798 -0.1822  0.6075  0.2584
 1880TIP3    H127199   0.724   4.408   0.807  1.0118 -1.3310  0.8232
 1880TIP3    H227200   0.833   4.441   0.708 -0.7875  1.9490 -0.2061
 1881TIP3   OH227201   2.634   5.103   1.325 -0.1945 -0.2280  0.2395
 1881TIP3    H127202   2.693   5.092   1.251 -0.7249 -1.4550 -0.0240
 1881TIP3    H227203   2.550   5.067   1.295 -0.0363 -2.1381  1.9205
 1882TIP3   OH227204   0.240   5.488   2.378 -0.6429 -0.1535 -0.1738
 1882TIP3    H127205   0.241   5.467   2.472 -0.6374  0.5775 -0.0020
 1882TIP3    H227206   0.296   5.422   2.338  1.3524  0.9546  0.6663
 1883TIP3   OH227207   4.405   1.452   8.301  0.4697 -0.2118 -0.1261
 1883TIP3    H127208   4.423   1.520   8.365  1.2157 -0.5335  0.0132
 1883TIP3    H227209   4.314   1.426   8.318  0.1793  0.7345 -0.1800
 1884TIP3   OH227210   4.441   5.003   8.356 -0.4666 -0.0737 -0.1292
 1884TIP3    H127211   4.485   5.088   8.356  1.2558 -0.9244  0.2734
 1884TIP3    H227212   4.386   5.004   8.434 -1.2593  1.0285 -0.6685
 1885TIP3   OH227213   4.235   5.559   1.611  0.0785  0.1024 -0.2346
 1885TIP3    H127214   4.197   5.501   1.544  1.9399 -1.0010 -0.3802
 1885TIP3    H227215   4.234   5.507   1.691 -1.3014  1.1081  0.4562
 1886TIP3   OH227216   3.382   6.103   1.107 -0.3751  0.5422 -0.4602
 1886TIP3    H127217   3.415   6.130   1.021 -0.7095 -1.2822 -1.2026
 1886TIP3    H227218   3.353   6.013   1.094 -0.5808  0.2837  1.5399
 1887TIP3   OH227219   3.819   6.500   0.077 -0.5323 -0.3339 -0.1812
 1887TIP3    H127220   3.777   6.471   0.158  0.7845 -2.6021 -0.2346
 1887TIP3    H227221   3.907   6.525   0.103 -0.6616  0.6920 -0.6613
 1888TIP3   OH227222   4.350   2.576   0.818  0.3072  0.0907 -0.7299
 1888TIP3    H127223   4.331   2.487   0.847 -0.2457 -0.1783 -1.8735
 1888TIP3    H227224   4.267   2.610   0.787  0.9716  0.1217 -2.5903
 1889TIP3   OH227225   3.024   1.951   2.134  0.1114 -0.4444  0.6383
 1889TIP3    H127226   3.099   1.998   2.098 -0.4846  0.7416  0.9298
 1889TIP3    H227227   2.965   2.019   2.166 -1.5269 -1.3127 -0.4297
 1890TIP3   OH227228   6.609   5.575   1.297  0.5911  0.3265 -0.0165
 1890TIP3    H127229   6.567   5.659   1.280  0.6182 -0.0183 -2.0178
 1890TIP3    H227230   6.703   5.594   1.293  0.5978  0.0972 -1.1466
 1891TIP3   OH227231   1.985   0.698   0.525 -0.4102  0.3502  0.7646
 1891TIP3    H127232   1.951   0.670   0.610 -1.8512  0.3438  0.2163
 1891TIP3    H227233   1.994   0.617   0.475  0.0524  0.3957  0.7659
 1892TIP3   OH227234   5.805   3.454   1.867  0.5810  0.2797 -0.4920
 1892TIP3    H127235   5.857   3.448   1.787 -0.0096 -0.8648 -0.7979
 1892TIP3    H227236   5.837   3.534   1.910  1.4750  0.4558 -1.4523
 1893TIP3   OH227237   6.403   5.445   8.659  0.0693 -0.0702  0.0092
 1893TIP3    H127238   6.489   5.404   8.649 -0.2336 -0.4986 -1.0060
 1893TIP3    H227239   6.421   5.531   8.696  0.7693 -0.8621  1.5714
 1894TIP3   OH227240   1.026   2.284   1.910 -0.4733 -0.2546  0.1375
 1894TIP3    H127241   0.996   2.214   1.852 -1.0317  1.2447 -1.4438
 1894TIP3    H227242   1.101   2.322   1.865 -0.7942  0.8081  0.4760
 1895TIP3   OH227243   2.738   5.511   8.550 -0.1628  0.4376 -0.3431
 1895TIP3    H127244   2.825   5.478   8.575  0.3530  0.9132 -1.4634
 1895TIP3    H227245   2.711   5.456   8.477 -0.9755  0.0777  0.2053
 1896TIP3   OH227246   5.828   0.185   2.121 -0.0597 -0.2868  0.3328
 1896TIP3    H127247   5.736   0.184   2.149  0.8576 -0.4911  3.7913
 1896TIP3    H227248   5.848   0.278   2.109 -0.5417 -0.2001  0.1698
 1897TIP3   OH227249   2.483   6.068   1.003 -0.0932 -0.3037 -0.5397
 1897TIP3    H127250   2.423   5.997   1.026  0.4181 -0.4226  0.5315
 1897TIP3    H227251   2.428   6.145   0.996 -0.4888 -0.5721 -0.4242
 1898TIP3   OH227252   0.696   5.972   2.410  0.0199  0.4807  0.0282
 1898TIP3    H127253   0.625   6.035   2.423 -0.3723  0.1297 -0.3668
 1898TIP3    H227254   0.760   5.993   2.478 -1.7234 -0.9897  2.2908
 1899TIP3   OH227255   0.977   3.239   7.809  0.4707  0.0139  0.0620
 1899TIP3    H127256   1.028   3.309   7.851 -1.8414  0.6473  2.0521
 1899TIP3    H227257   1.000   3.160   7.857  0.5132  0.0818  0.1545
 1900TIP3   OH227258   3.539   1.446   7.750  0.4207 -0.3450 -0.0458
 1900TIP3    H127259   3.571   1.490   7.672 -2.9811 -0.1560 -1.4942
 1900TIP3    H227260   3.574   1.497   7.823  4.1332 -0.8292 -1.2803
 1901TIP3   OH227261   2.267   6.003   2.487  1.2605  0.1783 -0.2400
 1901TIP3    H127262   2.288   6.088   2.448 -0.6959  0.4983 -0.7016
 1901TIP3    H227263   2.225   6.024   2.570  1.5252 -0.3728  0.0400
 1902TIP3   OH227264   3.366   2.370   0.805 -0.0240 -0.0366  0.5466
 1902TIP3    H127265   3.403   2.282   0.801 -0.5920 -0.2463 -0.6239
 1902TIP3    H227266   3.430   2.425   0.760 -0.7038 -0.2620 -0.7530
 1903TIP3   OH227267   1.058   2.560   0.299 -0.4216  0.0021  0.3501
 1903TIP3    H127268   1.073   2.468   0.279 -1.3094 -0.2133  0.6244
 1903TIP3    H227269   1.122   2.580   0.368  0.1827 -0.2378 -0.1316
 1904TIP3   OH227270   3.052   2.834   7.717 -0.7304  0.1507  0.0479
 1904TIP3    H127271   2.991   2.903   7.692 -0.3224  0.1417 -1.0148
 1904TIP3    H227272   3.000   2.753   7.715 -0.4658 -0.0225 -1.9707
 1905TIP3   OH227273   3.106   2.517   1.247  0.2512 -0.3056 -0.2055
 1905TIP3    H127274   3.026   2.521   1.194  0.1499 -0.0195 -0.0314
 1905TIP3    H227275   3.103   2.430   1.288 -0.5210  0.1087  0.6490
 1906TIP3   OH227276   6.493   1.026   1.490  0.3320  0.4891 -0.4721
 1906TIP3    H127277   6.450   1.110   1.473 -2.5683 -1.0565 -1.4443
 1906TIP3    H227278   6.453   0.994   1.570  1.5454  0.0745 -0.0091
 1907TIP3   OH227279   0.395   6.713   8.442 -0.3139  0.2576  0.1940
 1907TIP3    H127280   0.307   6.677   8.457  0.7772 -2.5798  0.3337
 1907TIP3    H227281   0.427   6.736   8.529 -0.4909  0.2524  0.2624
 1908TIP3   OH227282   1.056   6.445   0.754 -0.1448  0.5660  0.3693
 1908TIP3    H127283   1.126   6.509   0.763  0.5110  0.0609 -0.9056
 1908TIP3    H227284   1.058   6.395   0.836 -0.1649  1.6601  1.0542
 1909TIP3   OH227285   1.915   1.093   3.471  0.0269 -0.2879 -0.2732
 1909TIP3    H127286   1.825   1.083   3.443 -0.2723  0.7435  0.2920
 1909TIP3    H227287   1.927   1.025   3.538  0.0569 -1.2304 -1.2173
 1910TIP3   OH227288   0.212   5.058   0.026  0.2954 -0.2471  0.2359
 1910TIP3    H127289   0.149   5.022  -0.035  0.1423  0.0078  0.2425
 1910TIP3    H227290   0.164   5.064   0.109 -0.2003  1.5210 -0.1502
 1911TIP3   OH227291   0.975   2.553   0.743  0.0889  0.2214  0.2725
 1911TIP3    H127292   1.053   2.592   0.784 -0.7760  2.1015  0.1977
 1911TIP3    H227293   0.902   2.586   0.794 -0.8995  1.1709 -1.6589
 1912TIP3   OH227294   6.232   0.806   6.933  0.6748  0.2441  0.2485
 1912TIP3    H127295   6.153   0.853   6.959  0.1332 -0.2162 -0.5374
 1912TIP3    H227296   6.202   0.719   6.908  0.8793  1.0160 -3.2500
 1913TIP3   OH227297   0.699   6.716   7.068  0.0809  0.0213  0.1397
 1913TIP3    H127298   0.728   6.632   7.032 -1.7126 -0.2638 -0.7527
 1913TIP3    H227299   0.689   6.772   6.991 -0.8773  0.3646  0.5052
 1914TIP3   OH227300   1.691   4.161   0.769 -0.0392 -0.0212 -0.2494
 1914TIP3    H127301   1.704   4.110   0.689  2.3647 -0.9444  0.6323
 1914TIP3    H227302   1.739   4.242   0.753 -1.1099  0.6003 -0.4030
 1915TIP3   OH227303   3.180   5.459   0.176  0.0110 -0.2968 -0.5773
 1915TIP3    H127304   3.114   5.513   0.219 -0.8769 -0.7604 -1.3187
 1915TIP3    H227305   3.236   5.522   0.130 -0.0594  0.0891 -0.1412
 1916TIP3   OH227306   6.245   1.542   7.615 -0.0776 -0.3766 -0.8562
 1916TIP3    H127307   6.159   1.556   7.654  0.1446  1.1476 -0.8454
 1916TIP3    H227308   6.269   1.627   7.578  1.7283 -0.5475 -0.2164
 1917TIP3   OH227309   4.125   6.510   1.837  0.2609 -0.0704  0.4918
 1917TIP3    H127310   4.094   6.493   1.926  2.3608 -0.2738  1.2581
 1917TIP3    H227311   4.102   6.601   1.821  1.2095  0.4575  1.9018
 1918TIP3   OH227312   3.515   5.411   8.719 -0.2499  0.4426  0.1338
 1918TIP3    H127313   3.507   5.411   8.814 -0.0524  1.8075  0.1718
 1918TIP3    H227314   3.428   5.434   8.687 -0.5000 -0.7104 -0.0576
 1919TIP3   OH227315   1.704   5.413   0.261 -0.5171 -0.0655  0.4328
 1919TIP3    H127316   1.613   5.384   0.257 -0.6499  0.3822  0.0995
 1919TIP3    H227317   1.698   5.506   0.282 -0.1471  0.0199  0.1607
 1920TIP3   OH227318   0.870   2.716   0.149 -0.3718 -0.0373 -0.5962
 1920TIP3    H127319   0.920   2.669   0.216  0.6798  2.6554  0.6586
 1920TIP3    H227320   0.903   2.682   0.066  1.1494 -0.6938  0.2419
 1921TIP3   OH227321   3.435   2.304   8.170  0.0072 -0.2746 -0.8019
 1921TIP3    H127322   3.437   2.212   8.194 -0.0275 -0.0055  0.2819
 1921TIP3    H227323   3.461   2.350   8.250  1.0825  0.6055 -1.6437
 1922TIP3   OH227324   0.523   2.926   0.697 -0.2720  0.3897 -0.0594
 1922TIP3    H127325   0.447   2.868   0.699  0.5470 -0.6993  0.1673
 1922TIP3    H227326   0.491   3.004   0.652 -1.7134  0.2423  0.6321
 1923TIP3   OH227327   4.602   3.587   1.035 -0.2099 -0.0222  0.2107
 1923TIP3    H127328   4.613   3.682   1.044  2.2077 -0.2594  0.3202
 1923TIP3    H227329   4.552   3.562   1.113 -1.4020  1.1912 -0.1132
 1924TIP3   OH227330   2.043   4.400   0.211 -0.1687  0.2367 -0.0585
 1924TIP3    H127331   2.010   4.472   0.158  0.4078  0.7067  0.2010
 1924TIP3    H227332   2.100   4.442   0.275  0.3707 -0.4740 -0.0582
 1925TIP3   OH227333   2.045   6.217   0.237  0.4183 -0.2166 -0.9803
 1925TIP3    H127334   2.048   6.144   0.300  0.3600  0.9056  0.3663
 1925TIP3    H227335   1.955   6.249   0.242  0.8687  1.0090 -0.2871
 1926TIP3   OH227336   1.215   6.291   8.412 -0.0979  0.1093 -0.8011
 1926TIP3    H127337   1.238   6.299   8.320 -0.1270 -1.2153 -0.9359
 1926TIP3    H227338   1.185   6.201   8.422 -0.4643  0.3494  0.4239
 1927TIP3   OH227339   6.138   4.109   2.313  0.2141 -0.4943  0.2477
 1927TIP3    H127340   6.233   4.122   2.304  0.1108  0.4173  0.3319
 1927TIP3    H227341   6.130   4.031   2.367  0.9375 -0.1358  0.9060
 1928TIP3   OH227342   5.314   0.777   2.553  0.7602  0.1602 -0.4299
 1928TIP3    H127343   5.378   0.848   2.556 -0.4191  1.2259  1.0258
 1928TIP3    H227344   5.238   0.811   2.601 -0.4528 -1.5015 -1.0699
 1929TIP3   OH227345   1.644   0.718   1.108  0.2972 -0.1250  0.0371
 1929TIP3    H127346   1.676   0.731   1.198 -0.4819 -0.3769  0.3558
 1929TIP3    H227347   1.698   0.777   1.055 -0.3742  1.2909  0.8845
 1930TIP3   OH227348   2.134   0.768   2.424 -0.2910  0.0328  0.1021
 1930TIP3    H127349   2.196   0.838   2.446  0.1828  0.5596 -2.5704
 1930TIP3    H227350   2.189   0.692   2.404 -0.6125 -0.0739 -0.3934
 1931TIP3   OH227351   4.677   2.393   7.701  0.0683  0.2119  0.3880
 1931TIP3    H127352   4.616   2.466   7.693 -0.2610 -0.2923 -2.5006
 1931TIP3    H227353   4.622   2.319   7.725 -0.5616 -0.2194 -2.1102
 1932TIP3   OH227354   6.215   0.182   0.100  0.5896 -0.3682 -0.6284
 1932TIP3    H127355   6.299   0.170   0.144  0.5028  1.8428  0.2749
 1932TIP3    H227356   6.211   0.276   0.082 -1.5444 -0.4845 -0.9653
 1933TIP3   OH227357   5.305   2.300   0.889 -0.4327  0.2093  0.7402
 1933TIP3    H127358   5.317   2.349   0.808  0.9595  0.0318  0.8087
 1933TIP3    H227359   5.218   2.260   0.881 -0.2516  0.0675 -0.7370
 1934TIP3   OH227360   5.774   1.127   2.143  0.2532  0.2388  0.9514
 1934TIP3    H127361   5.697   1.162   2.187 -0.6949 -1.9389  1.1572
 1934TIP3    H227362   5.756   1.141   2.050  0.1126  0.6954  1.0432
 1935TIP3   OH227363   6.139   5.750   8.744 -0.0697  0.0879  0.1244
 1935TIP3    H127364   6.118   5.659   8.766 -1.4193  0.7735  1.9229
 1935TIP3    H227365   6.230   5.760   8.771  0.3350 -0.8971 -0.7747
 1936TIP3   OH227366   0.824   4.098   1.076 -0.0190  0.2604  0.9716
 1936TIP3    H127367   0.849   4.015   1.036 -0.7916 -0.1895  1.3830
 1936TIP3    H227368   0.876   4.164   1.030  1.8145 -0.5944  1.7238
 1937TIP3   OH227369   3.748   2.304   8.254 -0.7352 -0.9063 -0.1879
 1937TIP3    H127370   3.770   2.261   8.172  0.8878  1.0158 -0.8550
 1937TIP3    H227371   3.702   2.384   8.228 -1.4825 -0.9715  0.8647
 1938TIP3   OH227372   1.761   4.272   7.463 -0.2926 -0.6540  0.4372
 1938TIP3    H127373   1.785   4.252   7.373 -2.5289 -0.6810 -0.2209
 1938TIP3    H227374   1.773   4.189   7.510 -2.0203 -1.5465 -0.5631
 1939TIP3   OH227375   4.491   2.599   8.850 -0.1427  0.1104 -0.3423
 1939TIP3    H127376   4.465   2.543   8.777  0.6900  0.7198 -1.1182
 1939TIP3    H227377   4.553   2.546   8.900 -1.2471 -0.5725  0.3494
 1940TIP3   OH227378   2.154   0.416   7.948 -0.0743  0.3045  0.3599
 1940TIP3    H127379   2.104   0.422   8.030  0.3925  1.1080  0.5932
 1940TIP3    H227380   2.245   0.410   7.976  0.0344 -0.1493 -0.0881
 1941TIP3   OH227381   3.711   4.138   7.969  0.1938 -0.2959 -0.0762
 1941TIP3    H127382   3.679   4.194   8.040  1.1901  0.3954 -0.1493
 1941TIP3    H227383   3.712   4.195   7.892 -1.0667 -1.0923 -0.7165
 1942TIP3   OH227384   4.668   5.337   0.265  0.1961  0.1387 -0.3761
 1942TIP3    H127385   4.634   5.280   0.196 -0.0744 -0.8968  0.5885
 1942TIP3    H227386   4.590   5.367   0.312  0.3440  1.2212 -0.7820
 1943TIP3   OH227387   6.531   0.096   8.289 -0.1949 -0.2654 -0.2840
 1943TIP3    H127388   6.580   0.057   8.362 -0.6073  2.6377  1.7308
 1943TIP3    H227389   6.582   0.074   8.211  3.0048  0.5104  1.4117
 1944TIP3   OH227390   4.669   1.942   8.232 -0.0849  0.6264 -0.1070
 1944TIP3    H127391   4.736   1.881   8.261 -0.1056  0.0026 -1.3047
 1944TIP3    H227392   4.649   1.915   8.142 -0.5591  1.9944 -0.4377
 1945TIP3   OH227393   2.431   3.081   2.263 -0.6970  0.5149  0.4035
 1945TIP3    H127394   2.418   2.986   2.268  0.9346  0.3102  1.1758
 1945TIP3    H227395   2.520   3.095   2.293 -0.4328  2.1852 -1.0167
 1946TIP3   OH227396   4.597   5.164   2.978 -0.2906  0.4362  0.1825
 1946TIP3    H127397   4.502   5.154   2.982 -0.4291  0.3780 -1.9434
 1946TIP3    H227398   4.611   5.239   2.920  0.9359 -0.3008 -0.5299
 1947TIP3   OH227399   5.009   5.913   8.540 -0.2441  0.2094 -0.0553
 1947TIP3    H127400   5.001   5.996   8.586  1.8094 -0.2921  1.3371
 1947TIP3    H227401   4.940   5.858   8.577 -1.9446  1.3864 -1.3503
 1948TIP3   OH227402   0.681   0.903   8.595  0.6364  0.1189 -0.1011
 1948TIP3    H127403   0.750   0.910   8.660 -0.2319  2.4709  0.6332
 1948TIP3    H227404   0.643   0.816   8.609  2.0979 -0.3902  0.8184
 1949TIP3   OH227405   6.345   6.175   1.391 -0.3838 -0.6712 -0.0791
 1949TIP3    H127406   6.360   6.225   1.470  3.3199  1.1618 -1.7072
 1949TIP3    H227407   6.300   6.236   1.332  1.7039 -0.0841 -1.1401
 1950TIP3   OH227408   0.878   6.304   2.451  0.2522 -0.1307 -0.3750
 1950TIP3    H127409   0.874   6.396   2.475  1.0635 -0.2552  0.2535
 1950TIP3    H227410   0.822   6.297   2.373  0.4954  0.9648 -0.6613
 1951TIP3   OH227411   2.627   5.681   2.226  0.3566 -0.0008 -0.0005
 1951TIP3    H127412   2.636   5.688   2.321 -0.7204 -0.2153  0.1301
 1951TIP3    H227413   2.546   5.631   2.213  0.1235  0.6067 -1.0339
 1952TIP3   OH227414   2.407   6.281   9.095 -0.1990  0.1021  0.6331
 1952TIP3    H127415   2.425   6.187   9.098 -1.4182 -0.1684  0.2610
 1952TIP3    H227416   2.460   6.314   9.023  0.5866 -0.2139  1.0602
 1953TIP3   OH227417   1.881   4.028   1.960  0.2114  0.1503 -0.5343
 1953TIP3    H127418   1.796   4.029   1.916 -0.2147  1.4895  0.2689
 1953TIP3    H227419   1.863   3.993   2.047  1.1369 -2.9683 -1.4479
 1954TIP3   OH227420   6.040   5.420   0.851  0.6905 -0.6546  0.7836
 1954TIP3    H127421   6.014   5.458   0.767  1.4260  1.6133  1.5085
 1954TIP3    H227422   6.115   5.365   0.830  2.1833  1.4569  0.1225
 1955TIP3   OH227423   0.613   1.321   8.178 -0.1736  0.7133 -0.7537
 1955TIP3    H127424   0.593   1.231   8.150  0.4591 -0.1803  1.4155
 1955TIP3    H227425   0.647   1.364   8.100 -1.3008 -0.6686 -2.0605
 1956TIP3   OH227426   5.118   3.664   1.539 -0.0857 -0.3196 -0.6048
 1956TIP3    H127427   5.192   3.666   1.478 -0.3200 -1.7803 -0.9890
 1956TIP3    H227428   5.159   3.651   1.625  0.1172 -1.5831 -0.8685
 1957TIP3   OH227429   0.593   3.743   1.844 -0.3511 -0.5068  0.3972
 1957TIP3    H127430   0.584   3.649   1.856  1.4226 -0.8876 -0.8074
 1957TIP3    H227431   0.552   3.760   1.759 -1.6618  0.0160  1.1174
 1958TIP3   OH227432   1.178   0.226   0.797  0.0166  0.2284  0.1286
 1958TIP3    H127433   1.191   0.306   0.746 -0.8297 -0.2765 -0.9350
 1958TIP3    H227434   1.130   0.168   0.738  0.2021 -0.8967  1.0426
 1959TIP3   OH227435   0.369   1.406   0.294  0.1360  0.3439  0.3096
 1959TIP3    H127436   0.297   1.459   0.329  2.2716  2.6903  1.5352
 1959TIP3    H227437   0.422   1.468   0.243  1.1294 -1.3636 -0.8373
 1960TIP3   OH227438   1.082   2.075   8.948 -0.1045 -0.1263 -0.3151
 1960TIP3    H127439   0.987   2.087   8.940 -0.3187 -0.4590  1.4043
 1960TIP3    H227440   1.098   1.985   8.919 -0.0487  0.4285 -2.1744
 1961TIP3   OH227441   1.010   0.569   1.291  0.6122  0.3226  0.0358
 1961TIP3    H127442   1.068   0.631   1.246  1.3647  0.9125  1.7329
 1961TIP3    H227443   0.993   0.610   1.376 -1.0313 -0.5911  0.1865
 1962TIP3   OH227444   6.428   0.781   7.164 -0.4045  0.2401  0.1752
 1962TIP3    H127445   6.358   0.786   7.100 -1.6968  1.6545  1.6206
 1962TIP3    H227446   6.508   0.784   7.113 -1.2828 -2.9187 -1.6607
 1963TIP3   OH227447   1.508   2.351   2.415 -0.2978 -0.7367  0.2226
 1963TIP3    H127448   1.455   2.387   2.344 -0.4244  0.3085  0.8226
 1963TIP3    H227449   1.484   2.258   2.418  0.1817 -0.9364 -1.4862
 1964TIP3   OH227450   6.391   2.304   0.436 -0.1682 -0.3217 -0.4298
 1964TIP3    H127451   6.296   2.293   0.439 -0.3839  1.2944 -0.2632
 1964TIP3    H227452   6.420   2.299   0.527 -0.1927 -0.1695 -0.4125
 1965TIP3   OH227453   2.342   5.849   2.248 -0.3845  0.1939  0.1227
 1965TIP3    H127454   2.304   5.856   2.336 -0.2565  0.0557  0.1891
 1965TIP3    H227455   2.405   5.921   2.244 -0.5508  0.3360  0.0644
 1966TIP3   OH227456   1.478   5.651   0.232  0.3827  0.7261  0.1608
 1966TIP3    H127457   1.397   5.620   0.272  1.2514  0.2711  1.6185
 1966TIP3    H227458   1.537   5.665   0.305  1.1702  2.4703 -0.7608
 1967TIP3   OH227459   1.013   5.938   3.270 -0.4149  0.1252 -0.1771
 1967TIP3    H127460   0.971   5.860   3.235 -0.8619  0.6836 -0.9435
 1967TIP3    H227461   0.942   6.002   3.279 -0.0618  0.4422  0.4343
 1968TIP3   OH227462   5.002   4.523   1.109  0.5912  0.4680  0.0280
 1968TIP3    H127463   5.024   4.436   1.078  1.9781  0.8880 -0.2280
 1968TIP3    H227464   5.038   4.582   1.042  1.9443  1.3188  1.4406
 1969TIP3   OH227465   1.503   4.606   2.653 -0.3763  0.9499 -0.3629
 1969TIP3    H127466   1.509   4.512   2.672  0.5745  0.8088 -1.2317
 1969TIP3    H227467   1.425   4.635   2.698  0.4975  0.1874  1.7534
 1970TIP3   OH227468   2.494   4.511   7.663 -0.0569 -0.2011 -0.6933
 1970TIP3    H127469   2.464   4.484   7.576  0.3432  1.4462 -1.3903
 1970TIP3    H227470   2.564   4.574   7.645  1.4058 -1.3266  0.8697
 1971TIP3   OH227471   0.000   0.652   8.947  0.2921 -0.3094  0.7154
 1971TIP3    H127472   0.044   0.717   8.892 -0.8108  0.6763  0.9651
 1971TIP3    H227473  -0.079   0.629   8.898 -1.5526  1.7673  2.4874
 1972TIP3   OH227474   3.987   2.844   1.216 -0.0352 -0.3205  0.3894
 1972TIP3    H127475   3.915   2.792   1.180  0.2572  0.2042 -0.9963
 1972TIP3    H227476   3.944   2.903   1.279 -0.3237 -2.4104  2.2603
 1973TIP3   OH227477   5.352   5.785   1.824 -0.4892  0.4396  0.0722
 1973TIP3    H127478   5.342   5.764   1.731  1.5682 -1.5297  0.2172
 1973TIP3    H227479   5.411   5.860   1.825  1.8948 -1.3267 -0.2248
 1974TIP3   OH227480   6.688   1.212   7.674  0.2915  0.7462  0.0253
 1974TIP3    H127481   6.639   1.198   7.593 -2.1820 -0.6699  1.6446
 1974TIP3    H227482   6.773   1.247   7.645  0.7407 -2.5650 -3.3951
 1975TIP3   OH227483   2.748   5.374   1.592 -0.1338  0.0877  1.0002
 1975TIP3    H127484   2.680   5.340   1.651 -2.0456  0.3477 -0.8919
 1975TIP3    H227485   2.804   5.428   1.647 -0.6959 -1.1753  2.8942
 1976TIP3   OH227486   1.195   4.294   0.764 -0.2092  0.0289 -0.1590
 1976TIP3    H127487   1.253   4.221   0.786  0.2250 -0.4637 -2.6721
 1976TIP3    H227488   1.254   4.363   0.733 -0.8388  0.2419 -0.9071
 1977TIP3   OH227489   4.064   5.188   1.283  0.0478  0.2742 -0.1701
 1977TIP3    H127490   4.113   5.130   1.224  0.4201 -0.8926  1.2459
 1977TIP3    H227491   3.975   5.189   1.248 -0.1138 -1.6294  0.0765
 1978TIP3   OH227492   3.516   4.299   1.757 -0.1212  0.6015  0.4533
 1978TIP3    H127493   3.531   4.212   1.720  0.1035 -0.2098  2.3543
 1978TIP3    H227494   3.422   4.304   1.770 -0.1291  0.6222  0.3885
 1979TIP3   OH227495   3.331   2.028   7.958 -0.3301 -0.7791  0.1092
 1979TIP3    H127496   3.302   2.070   7.877 -0.8835 -0.3444  0.5274
 1979TIP3    H227497   3.355   1.939   7.932  0.5012 -0.3272 -0.7206
 1980TIP3   OH227498   5.216   4.831   1.175  0.0250  0.2155  0.3398
 1980TIP3    H127499   5.275   4.758   1.191  0.1943  0.6840  1.9587
 1980TIP3    H227500   5.174   4.809   1.091  1.6432 -0.6559 -0.2876
 1981TIP3   OH227501   2.411   5.708   2.644  0.0327  0.2014  0.2323
 1981TIP3    H127502   2.411   5.793   2.690 -0.8610  0.4405 -0.2006
 1981TIP3    H227503   2.321   5.677   2.650  0.1407 -0.2649 -0.4457
 1982TIP3   OH227504   1.141   4.099   8.660  0.4757 -0.3225 -0.1811
 1982TIP3    H127505   1.191   4.069   8.584  0.3081 -0.5436 -0.2068
 1982TIP3    H227506   1.085   4.168   8.626 -0.3483 -1.1228 -0.4902
 1983TIP3   OH227507   3.977   2.786   1.812 -0.6908  0.1939  0.0111
 1983TIP3    H127508   3.975   2.771   1.718  1.9509  0.6362 -0.1864
 1983TIP3    H227509   3.923   2.716   1.849  0.8318 -1.9951 -1.6660
 1984TIP3   OH227510   4.829   3.491   1.230 -0.5104 -0.7291  0.2833
 1984TIP3    H127511   4.744   3.467   1.269  0.0509  0.5565  2.4825
 1984TIP3    H227512   4.893   3.446   1.285  0.2816 -1.0249 -0.8564
 1985TIP3   OH227513   0.826   5.396   2.361  0.2504 -0.2175 -0.5792
 1985TIP3    H127514   0.754   5.451   2.392  1.1187  0.0163  1.1518
 1985TIP3    H227515   0.897   5.457   2.343  1.4538 -0.7091  1.9984
 1986TIP3   OH227516   6.294   2.676   8.048 -0.7068 -0.0458 -0.4037
 1986TIP3    H127517   6.247   2.712   7.973 -0.5265  0.7980 -0.1190
 1986TIP3    H227518   6.372   2.635   8.010  0.1776  1.7058 -0.5554
 1987TIP3   OH227519   3.166   6.652   2.550 -0.1913  0.0061 -0.8016
 1987TIP3    H127520   3.096   6.649   2.484 -0.9580 -1.5625  0.0158
 1987TIP3    H227521   3.142   6.725   2.607 -0.8794 -0.1774 -0.8441
 1988TIP3   OH227522   0.666   1.768   7.068 -0.0183 -0.4644 -0.1392
 1988TIP3    H127523   0.615   1.813   7.000  1.6161 -1.5237 -2.1543
 1988TIP3    H227524   0.611   1.693   7.093 -0.4519 -0.3081 -0.5954
 1989TIP3   OH227525   0.562   1.632   0.151 -0.1169  0.1577 -0.3253
 1989TIP3    H127526   0.639   1.611   0.204 -0.3436  0.4760  0.1361
 1989TIP3    H227527   0.558   1.727   0.151 -0.1747  0.1580 -0.8447
 1990TIP3   OH227528   1.422   0.893   1.410  0.1580  0.1478  0.0229
 1990TIP3    H127529   1.508   0.876   1.371  0.7203  0.1838  1.1982
 1990TIP3    H227530   1.438   0.890   1.505 -1.5244 -1.9846  0.3290
 1991TIP3   OH227531   0.825   1.761   7.881  0.2943 -0.3518 -0.4974
 1991TIP3    H127532   0.797   1.686   7.934 -1.7658  0.6431 -0.0715
 1991TIP3    H227533   0.786   1.747   7.795  2.2509 -1.1238 -1.3140
 1992TIP3   OH227534   5.045   3.575   7.036  0.4979  0.4422 -0.1253
 1992TIP3    H127535   5.011   3.583   7.125  0.1185  2.5647 -0.4135
 1992TIP3    H227536   4.970   3.589   6.979  0.4499 -2.2854 -0.8585
 1993TIP3   OH227537   4.757   3.922   8.456  0.1585  0.6067  0.3774
 1993TIP3    H127538   4.706   3.843   8.437  0.0045  0.1733  2.3146
 1993TIP3    H227539   4.843   3.904   8.418  0.2971 -0.7716  1.2610
 1994TIP3   OH227540   5.997   2.115   7.986 -0.6626  0.3728 -0.0853
 1994TIP3    H127541   6.017   2.023   7.975 -2.0720  0.2475 -1.9166
 1994TIP3    H227542   6.024   2.135   8.076  0.0959 -1.6756  0.1757
 1995TIP3   OH227543   1.623   1.808   1.391 -0.2755  0.1537 -0.6073
 1995TIP3    H127544   1.711   1.788   1.420 -1.5929 -1.3616  2.8767
 1995TIP3    H227545   1.595   1.730   1.342 -0.4020 -0.3278  0.2175
 1996TIP3   OH227546   4.500   5.476   2.106 -0.0139 -0.6304 -0.4699
 1996TIP3    H127547   4.465   5.559   2.140 -0.7208 -1.2323  0.3187
 1996TIP3    H227548   4.582   5.500   2.063 -0.2954  0.5007 -0.4025
 1997TIP3   OH227549   0.920   6.373   8.917  0.4895  0.1966  0.4319
 1997TIP3    H127550   0.880   6.296   8.957 -1.2593  0.1599 -1.2482
 1997TIP3    H227551   0.903   6.363   8.823  0.2041  2.6217  0.1699
 1998TIP3   OH227552   0.585   1.516   1.923 -0.3926 -0.1790 -0.0750
 1998TIP3    H127553   0.582   1.597   1.975 -2.6746  0.0174 -0.4410
 1998TIP3    H227554   0.671   1.479   1.943  0.9448  2.5498 -0.2526
 1999TIP3   OH227555   4.036   3.777   0.925 -0.2067  0.2047 -0.4733
 1999TIP3    H127556   3.983   3.706   0.890  0.5858 -0.3861 -0.5029
 1999TIP3    H227557   4.074   3.819   0.847  0.2400 -0.0691 -0.4058
 2000TIP3   OH227558   2.061   4.704   8.438 -0.1664 -0.1150  0.4259
 2000TIP3    H127559   2.084   4.716   8.346 -0.5007  0.6276  0.4341
 2000TIP3    H227560   2.022   4.617   8.441 -0.0927 -0.1720 -0.1223
 2001TIP3   OH227561   2.832   0.929   8.319 -0.5353 -0.2456  0.5376
 2001TIP3    H127562   2.742   0.945   8.346  0.1228  2.3024  1.4686
 2001TIP3    H227563   2.877   0.901   8.399 -0.3874 -1.1248  0.1616
 2002TIP3   OH227564   1.629   2.857   0.426  0.1692 -0.0430  0.0837
 2002TIP3    H127565   1.583   2.784   0.386  0.3155 -0.9461  1.4736
 2002TIP3    H227566   1.713   2.819   0.454 -0.1590  0.3771  1.7260
 2003TIP3   OH227567   6.344   6.205   0.487  0.3953 -0.1846 -0.2603
 2003TIP3    H127568   6.408   6.251   0.433  0.8560  0.6720  0.9522
 2003TIP3    H227569   6.273   6.268   0.498  1.1110  0.3689  1.5664
 2004TIP3   OH227570   5.046   3.914   8.389  0.3307 -0.4315  0.4735
 2004TIP3    H127571   5.106   3.867   8.331 -1.2964 -0.7085 -1.0797
 2004TIP3    H227572   5.069   4.006   8.376  1.0894 -0.5792  0.7025
 2005TIP3   OH227573   4.957   2.046   7.987 -0.6582 -0.0886 -0.6044
 2005TIP3    H127574   4.900   1.981   7.947 -1.2961  0.0358  0.0884
 2005TIP3    H227575   4.914   2.130   7.968 -0.3454  0.0611 -0.6615
 2006TIP3   OH227576   4.602   1.551   0.727  0.3691  0.3973 -0.0069
 2006TIP3    H127577   4.679   1.498   0.707 -0.0619 -0.2627  0.0924
 2006TIP3    H227578   4.638   1.634   0.757  1.0544  0.8119 -1.8162
 2007TIP3   OH227579   6.067   3.348   7.370  0.0603  0.0232  0.1158
 2007TIP3    H127580   6.147   3.333   7.321  0.1298 -1.8022  0.7088
 2007TIP3    H227581   6.005   3.284   7.335 -0.8129  0.7103  0.3740
 2008TIP3   OH227582   3.512   6.393   0.167  0.4869  0.0508 -0.3842
 2008TIP3    H127583   3.537   6.354   0.083 -2.0703 -1.1602 -0.6979
 2008TIP3    H227584   3.433   6.444   0.147 -0.2565 -0.3719  1.2783
 2009TIP3   OH227585   5.273   5.258   2.284  0.1120 -0.3461 -0.1907
 2009TIP3    H127586   5.258   5.201   2.208  0.2037 -0.6024 -0.0185
 2009TIP3    H227587   5.259   5.346   2.250  2.7064 -0.2148 -1.1961
 2010TIP3   OH227588   1.364   1.523   8.658 -0.5175  0.2096 -0.0006
 2010TIP3    H127589   1.300   1.465   8.699 -0.5722  1.1079  1.2591
 2010TIP3    H227590   1.311   1.591   8.616 -0.4225  1.2037  1.4242
 2011TIP3   OH227591   3.286   0.673   0.108 -0.4493  0.1310  0.1432
 2011TIP3    H127592   3.266   0.674   0.201  0.8472  0.6964  0.4345
 2011TIP3    H227593   3.281   0.580   0.084  0.9337 -0.2554  1.1918
 2012TIP3   OH227594   3.426   0.248   0.310 -0.1157 -0.2993 -0.4965
 2012TIP3    H127595   3.468   0.325   0.272  2.1224  0.2617  2.7508
 2012TIP3    H227596   3.333   0.271   0.312  0.3303  1.7442 -0.8431
 2013TIP3   OH227597   3.286   4.267   2.035 -0.5693 -0.0438  0.4029
 2013TIP3    H127598   3.350   4.298   2.100 -0.9180 -0.6448  1.0508
 2013TIP3    H227599   3.216   4.333   2.038  0.0938  0.7205 -0.4519
 2014TIP3   OH227600   3.074   4.867   1.295  0.7318  0.0500 -0.0199
 2014TIP3    H127601   3.162   4.830   1.294  0.1159 -1.5015 -1.5816
 2014TIP3    H227602   3.031   4.822   1.368  1.6219  1.9338  1.7481
 2015TIP3   OH227603   2.719   0.151   2.477 -0.0900 -0.5785  0.8355
 2015TIP3    H127604   2.666   0.142   2.556 -0.8583  0.7999  0.5102
 2015TIP3    H227605   2.657   0.144   2.405  0.1457  0.9314  0.4405
 2016TIP3   OH227606   5.444   2.180   1.517 -0.6400  0.5850  0.2342
 2016TIP3    H127607   5.516   2.207   1.460 -1.8397  3.2320 -0.1814
 2016TIP3    H227608   5.438   2.085   1.506  2.8584  0.2013  0.4489
 2017TIP3   OH227609   1.065   1.511   2.447 -0.1185  0.0080  0.3800
 2017TIP3    H127610   0.998   1.563   2.492  0.8948  2.1276 -0.3965
 2017TIP3    H227611   1.064   1.544   2.357  0.8332 -1.0812 -0.0520
 2018TIP3   OH227612   3.263   5.412   1.059  0.5638 -0.3486 -0.1480
 2018TIP3    H127613   3.204   5.487   1.058  1.5692  0.4720  0.3557
 2018TIP3    H227614   3.205   5.336   1.070 -0.5887  0.1957 -1.8884
 2019TIP3   OH227615   6.418   0.933   8.532 -0.1563 -0.4757 -0.3568
 2019TIP3    H127616   6.329   0.904   8.515 -0.5702  0.7995 -0.4561
 2019TIP3    H227617   6.453   0.957   8.446 -0.3652  0.7744 -0.1097
 2020TIP3   OH227618   5.846   4.926   8.452 -0.2671 -0.3879 -0.0457
 2020TIP3    H127619   5.764   4.921   8.403 -1.2741  1.9305  1.2500
 2020TIP3    H227620   5.914   4.929   8.385 -1.3710 -0.3755 -1.2003
 2021TIP3   OH227621   0.698   0.738   0.036  0.0411 -0.2409  0.0198
 2021TIP3    H127622   0.688   0.833   0.029 -0.0149 -0.2395  0.1126
 2021TIP3    H227623   0.641   0.702  -0.031 -2.9148 -0.3370  2.3708
 2022TIP3   OH227624   2.548   6.462   8.131  0.1722 -0.3386  0.4048
 2022TIP3    H127625   2.542   6.377   8.174  0.2726  0.5240  2.2122
 2022TIP3    H227626   2.483   6.516   8.176 -2.2898 -0.2621 -2.8673
 2023TIP3   OH227627   2.117   3.860   0.690 -1.2882  0.0709 -0.2246
 2023TIP3    H127628   2.047   3.840   0.627 -0.3509  2.2363 -2.1323
 2023TIP3    H227629   2.191   3.889   0.635  1.1057 -1.9481  1.6965
 2024TIP3   OH227630   2.101   2.730   7.671 -0.0128  0.0073 -0.5923
 2024TIP3    H127631   2.162   2.663   7.702  0.2257  0.8367  0.8287
 2024TIP3    H227632   2.152   2.780   7.607  0.2482 -0.3560 -0.6691
 2025TIP3   OH227633   0.963   0.574   0.678  0.3232 -0.0811  0.4119
 2025TIP3    H127634   0.955   0.620   0.594 -1.6358 -0.4918  0.3231
 2025TIP3    H227635   1.047   0.530   0.674  0.3352  0.0500 -1.2638
 2026TIP3   OH227636   5.372   6.463   8.735 -0.0405  0.1962 -0.2916
 2026TIP3    H127637   5.334   6.493   8.817  1.3109 -0.2580  0.5166
 2026TIP3    H227638   5.465   6.451   8.753  0.2921  0.0886 -1.8870
 2027TIP3   OH227639   4.576   0.528   8.288 -0.0061 -0.1716 -0.2335
 2027TIP3    H127640   4.545   0.447   8.249 -0.9624  0.4367 -0.8011
 2027TIP3    H227641   4.500   0.587   8.284  1.1884  1.3724 -1.5908
 2028TIP3   OH227642   4.804   4.326   8.790 -0.0299  0.2179 -0.2691
 2028TIP3    H127643   4.759   4.249   8.756 -0.8341  1.4660 -2.1586
 2028TIP3    H227644   4.807   4.387   8.717 -0.3496  2.4090  1.4466
 2029TIP3   OH227645   5.911   3.600   8.143 -0.0902 -0.2792  0.1370
 2029TIP3    H127646   5.998   3.636   8.162  1.3265 -2.6092 -1.4588
 2029TIP3    H227647   5.884   3.557   8.224 -0.5498  1.7645  1.1518
 2030TIP3   OH227648   3.646   1.131   0.149  0.0988  0.1648  0.3668
 2030TIP3    H127649   3.564   1.081   0.144  0.9402 -1.2902  0.4999
 2030TIP3    H227650   3.653   1.174   0.063  0.0637 -1.1660 -0.3404
 2031TIP3   OH227651   2.552   2.843   8.685 -0.4263 -0.2278  0.2201
 2031TIP3    H127652   2.543   2.897   8.607  0.5966 -0.9763 -0.4436
 2031TIP3    H227653   2.484   2.776   8.675 -0.5163 -0.1278  0.1473
 2032TIP3   OH227654   2.083   0.190   1.882  0.0900  0.0849 -0.1433
 2032TIP3    H127655   2.050   0.102   1.865 -0.4443  0.3906 -0.7010
 2032TIP3    H227656   2.111   0.223   1.797  1.6792 -0.0904  0.2848
 2033TIP3   OH227657   0.943   2.850   8.069  0.2268 -0.4976 -0.0360
 2033TIP3    H127658   0.983   2.784   8.013 -0.4428 -0.1844 -0.9039
 2033TIP3    H227659   0.849   2.838   8.057  0.0645 -0.3543  0.9541
 2034TIP3   OH227660   6.349   2.067   1.882  0.3016 -0.2889 -0.2435
 2034TIP3    H127661   6.334   2.096   1.792 -0.5833 -0.3715 -0.1362
 2034TIP3    H227662   6.334   2.146   1.935 -0.2654 -0.4880 -0.0957
 2035TIP3   OH227663   4.888   2.444   0.904 -0.7713 -0.2138  0.3628
 2035TIP3    H127664   4.941   2.410   0.833  0.6374  1.4877  0.5356
 2035TIP3    H227665   4.821   2.377   0.919  0.7282 -1.9740 -0.5141
 2036TIP3   OH227666   2.046   4.345   8.881 -0.3795 -0.0067 -0.3884
 2036TIP3    H127667   2.059   4.426   8.930  1.8274  0.2853 -1.3337
 2036TIP3    H227668   1.973   4.363   8.822 -2.5117 -0.0863  2.0984
 2037TIP3   OH227669   3.844   4.657   2.248  0.4566  0.3274 -0.0890
 2037TIP3    H127670   3.751   4.677   2.250  0.6550  1.2045  0.7088
 2037TIP3    H227671   3.879   4.712   2.178 -0.2108 -2.8493 -3.2390
 2038TIP3   OH227672   1.127   0.345   1.812 -0.1516 -0.0653  0.7249
 2038TIP3    H127673   1.142   0.406   1.884  3.3312 -2.0027  1.8850
 2038TIP3    H227674   1.161   0.390   1.735 -0.8571  0.7592  0.8847
 2039TIP3   OH227675   5.437   3.943   8.141 -0.3750 -0.1568  0.2214
 2039TIP3    H127676   5.383   4.016   8.112 -0.2128 -0.5496 -1.1430
 2039TIP3    H227677   5.441   3.952   8.236 -0.9018  1.2185  0.1323
 2040TIP3   OH227678   0.303   6.186   7.794 -0.0465  0.3221 -0.2695
 2040TIP3    H127679   0.238   6.128   7.754 -0.1175  0.2870 -0.1048
 2040TIP3    H227680   0.387   6.153   7.764 -0.1382  0.8087 -1.0717
 2041TIP3   OH227681   5.354   5.266   7.382 -0.0336 -0.3126 -0.1888
 2041TIP3    H127682   5.425   5.309   7.333  0.2390  0.0475  0.5156
 2041TIP3    H227683   5.383   5.176   7.392 -0.0795 -0.3834 -0.6675
 2042TIP3   OH227684   3.777   0.621   2.151 -0.0463  0.3798  0.1349
 2042TIP3    H127685   3.840   0.684   2.184 -0.6474  0.9678  0.1729
 2042TIP3    H227686   3.813   0.536   2.176  0.2990  0.7455  0.9208
 2043TIP3   OH227687   3.198   6.116   0.088 -0.5236 -0.3498  0.1124
 2043TIP3    H127688   3.194   6.127   0.183  0.3430  0.3364  0.0816
 2043TIP3    H227689   3.115   6.151   0.056 -0.5306  0.0535  0.5694
 2044TIP3   OH227690   2.822   5.108   7.928 -0.3479 -0.4603  0.1705
 2044TIP3    H127691   2.907   5.142   7.900  0.6174 -1.0404  2.2651
 2044TIP3    H227692   2.795   5.165   8.000 -1.4071 -0.7299  0.0146
 2045TIP3   OH227693   5.302   1.030   8.699  0.1897  0.2512 -0.0452
 2045TIP3    H127694   5.359   1.096   8.660  2.0747 -0.8300  0.7841
 2045TIP3    H227695   5.309   1.045   8.794 -1.5175  0.5608  0.0664
 2046TIP3   OH227696   4.402   6.582   2.245  0.0907  0.4000 -0.0854
 2046TIP3    H127697   4.435   6.614   2.328 -1.7945 -0.7245  1.1725
 2046TIP3    H227698   4.421   6.488   2.246  0.7202  0.4920 -1.2823
 2047TIP3   OH227699   1.980   5.314   0.251  0.6601 -0.2078 -0.4475
 2047TIP3    H127700   1.975   5.219   0.256 -0.2473 -0.1008  1.4019
 2047TIP3    H227701   1.912   5.338   0.188 -2.7779 -0.5830  2.7524
 2048TIP3   OH227702   4.843   1.283   1.862  0.3940 -0.2568 -0.2258
 2048TIP3    H127703   4.877   1.346   1.925  2.4940  1.0060 -2.4276
 2048TIP3    H227704   4.748   1.287   1.872  0.5428  1.9656  0.9236
 2049TIP3   OH227705   5.278   3.936   1.694 -0.1024 -0.2777 -0.4691
 2049TIP3    H127706   5.224   3.958   1.618  0.5693 -1.5395 -1.3679
 2049TIP3    H227707   5.265   3.841   1.705  0.5976 -0.2844  0.3549
 2050TIP3   OH227708   2.596   2.546   8.977  0.3935  0.2856 -0.4264
 2050TIP3    H127709   2.573   2.455   8.996 -1.3951  0.2849 -2.1505
 2050TIP3    H227710   2.682   2.541   8.935  0.9076 -0.4471  0.6737
 2051TIP3   OH227711   3.596   3.908   1.359 -0.0738  0.2513 -0.1257
 2051TIP3    H127712   3.689   3.899   1.337 -0.2052  0.4739 -0.7829
 2051TIP3    H227713   3.596   3.936   1.451  0.5168  0.6437 -0.2404
 2052TIP3   OH227714   5.252   4.101   2.806 -0.0873 -0.0588 -0.0320
 2052TIP3    H127715   5.314   4.106   2.878 -1.1991 -1.9680  1.1399
 2052TIP3    H227716   5.187   4.168   2.825 -0.1163 -0.2349  0.4950
 2053TIP3   OH227717   4.516   2.834   1.902  0.9069  0.0585  0.4681
 2053TIP3    H127718   4.549   2.920   1.874  0.8578 -0.8955 -2.9495
 2053TIP3    H227719   4.421   2.840   1.891  0.7356  0.0065  1.7440
 2054TIP3   OH227720   0.458   1.393   1.408 -0.2451  0.3877 -0.3503
 2054TIP3    H127721   0.530   1.373   1.349  2.4793  0.7542  2.5973
 2054TIP3    H227722   0.469   1.485   1.431 -0.9009  0.1522  1.0745
 2055TIP3   OH227723   0.666   0.723   0.307 -0.1165 -0.4316  0.5177
 2055TIP3    H127724   0.679   0.721   0.212  1.1056 -1.1120  0.6867
 2055TIP3    H227725   0.591   0.782   0.319  1.0524  1.4095 -0.7291
 2056TIP3   OH227726   4.452   4.960   8.074 -0.8902 -0.2209  0.1776
 2056TIP3    H127727   4.411   5.044   8.052 -0.5296  0.2054  1.0752
 2056TIP3    H227728   4.448   4.956   8.169  0.7532 -0.3647  0.2592
 2057TIP3   OH227729   2.093   2.161   0.501 -0.3252  0.1723  0.2539
 2057TIP3    H127730   2.031   2.185   0.569  0.5428  2.2176  0.3917
 2057TIP3    H227731   2.040   2.118   0.434 -1.1529 -2.2278  2.2734
 2058TIP3   OH227732   2.892   2.772   8.025 -0.2401 -0.3512 -0.1257
 2058TIP3    H127733   2.942   2.726   7.957  0.5714 -0.5374  0.5738
 2058TIP3    H227734   2.957   2.828   8.068 -0.6136 -0.6471  0.8552
 2059TIP3   OH227735   1.402   1.958   1.445 -0.1187 -0.1271  0.2257
 2059TIP3    H127736   1.398   1.994   1.357 -0.4250 -2.4004 -0.7517
 2059TIP3    H227737   1.488   1.918   1.451 -0.6940 -1.3949  0.3391
 2060TIP3   OH227738   1.809   0.943   8.239  0.2354  0.3896  0.7925
 2060TIP3    H127739   1.742   0.931   8.172  0.6297  0.2768  0.4134
 2060TIP3    H227740   1.871   0.871   8.225 -0.6703 -0.7999  2.4974
 2061TIP3   OH227741   2.202   1.618   1.998  0.2711 -0.1835  0.2792
 2061TIP3    H127742   2.127   1.611   1.940  0.9939  1.7583 -0.9729
 2061TIP3    H227743   2.195   1.542   2.056 -3.0619  0.3293  0.7322
 2062TIP3   OH227744   2.192   4.267   8.668  0.5762  0.1119 -0.2626
 2062TIP3    H127745   2.252   4.194   8.684  0.0696 -0.0131  1.2719
 2062TIP3    H227746   2.138   4.270   8.747 -0.0349  1.5581 -0.7149
 2063TIP3   OH227747   1.291   3.043   8.660 -0.0966  0.5359 -0.0325
 2063TIP3    H127748   1.205   3.084   8.673 -0.1679 -0.2120  2.5331
 2063TIP3    H227749   1.323   3.029   8.749  1.0876 -2.5129 -0.8309
 2064TIP3   OH227750   2.084   6.410   7.430 -0.4544  0.6556  0.0250
 2064TIP3    H127751   2.089   6.506   7.439 -1.1419  0.7689 -0.7071
 2064TIP3    H227752   2.133   6.391   7.350  0.4586  0.2828  0.6456
 2065TIP3   OH227753   5.011   5.645   0.845  0.3035  0.1993 -0.1449
 2065TIP3    H127754   5.052   5.559   0.858 -0.7668 -0.2324  0.4766
 2065TIP3    H227755   4.966   5.662   0.927 -1.0938  0.4726 -0.9319
 2066TIP3   OH227756   2.444   0.264   2.023 -0.1818  0.0933 -0.4595
 2066TIP3    H127757   2.390   0.329   2.067  0.8932  0.7731 -0.0959
 2066TIP3    H227758   2.424   0.273   1.931 -0.0136  0.9828 -0.4127
 2067TIP3   OH227759   3.279   1.562   2.421 -0.2396  0.0370  0.0018
 2067TIP3    H127760   3.290   1.516   2.504 -0.4159  1.0970  0.6242
 2067TIP3    H227761   3.188   1.546   2.396 -0.1368 -0.4253 -0.0769
 2068TIP3   OH227762   1.674   2.782   2.225  0.1061  0.7124 -0.3793
 2068TIP3    H127763   1.585   2.787   2.259  0.6259 -0.0571  1.1842
 2068TIP3    H227764   1.701   2.692   2.241  0.8767  0.6954 -1.6354
 2069TIP3   OH227765   5.855   0.440   1.879 -0.1527 -0.1124 -0.1670
 2069TIP3    H127766   5.886   0.446   1.969 -0.9400 -0.0804  0.1105
 2069TIP3    H227767   5.928   0.472   1.825 -0.2185  1.2816  0.5445
 2070TIP3   OH227768   0.902   4.692   1.369 -0.2600 -0.0976  0.6001
 2070TIP3    H127769   0.921   4.603   1.340 -1.7143 -0.4121  0.5519
 2070TIP3    H227770   0.945   4.700   1.454  1.1337 -0.3307 -0.0636
 2071TIP3   OH227771   1.162   0.663   3.117 -0.9004 -0.4331  0.2482
 2071TIP3    H127772   1.225   0.666   3.046 -0.4031 -1.9682  0.5832
 2071TIP3    H227773   1.080   0.637   3.076 -1.4885  1.9012 -0.2457
 2072TIP3   OH227774   5.441   2.220   1.841  0.6536  0.4936  0.1008
 2072TIP3    H127775   5.522   2.267   1.863  0.7546  0.8902 -1.0672
 2072TIP3    H227776   5.446   2.207   1.747 -0.9496  1.0741 -0.0873
 2073TIP3   OH227777   2.553   6.552   2.287 -0.0511  0.2893 -0.1984
 2073TIP3    H127778   2.505   6.528   2.366  1.3231  0.5624  0.7604
 2073TIP3    H227779   2.644   6.563   2.317  0.6218 -0.2503 -1.9453
 2074TIP3   OH227780   0.804   5.732   7.166  0.4753  0.0253 -0.9719
 2074TIP3    H127781   0.745   5.783   7.110 -0.6894  0.7355  0.7929
 2074TIP3    H227782   0.837   5.795   7.230  0.6244 -1.0176  0.0219
 2075TIP3   OH227783   4.339   1.083   7.933 -0.8068  0.0690  0.2473
 2075TIP3    H127784   4.322   0.997   7.895  0.2448 -0.3611  0.7152
 2075TIP3    H227785   4.276   1.090   8.005  1.1772 -1.6976  2.2689
 2076TIP3   OH227786   5.769   4.648   7.537 -0.2513  0.3278 -0.2107
 2076TIP3    H127787   5.765   4.573   7.477 -0.8891 -0.2534  0.5385
 2076TIP3    H227788   5.680   4.683   7.537 -0.1153  0.6766 -0.0333
 2077TIP3   OH227789   1.379   1.627   1.474  0.3672  0.1613 -0.1847
 2077TIP3    H127790   1.464   1.610   1.513  0.4644  0.9893 -0.0195
 2077TIP3    H227791   1.354   1.714   1.506 -1.0196 -0.4938  0.6156
 2078TIP3   OH227792   1.805   5.888   1.265  0.0934 -0.2378  0.1512
 2078TIP3    H127793   1.710   5.885   1.253  0.0995  3.2914 -2.6201
 2078TIP3    H227794   1.818   5.953   1.334  0.4450  0.3127 -0.4166
 2079TIP3   OH227795   0.816   0.958   1.556  0.4498  0.0099  0.3064
 2079TIP3    H127796   0.768   0.925   1.480  0.8191  2.2437 -0.9784
 2079TIP3    H227797   0.906   0.931   1.541  0.5329  0.4980 -0.1106
 2080TIP3   OH227798   0.602   4.210   8.247 -0.3431  0.1421 -0.3126
 2080TIP3    H127799   0.539   4.232   8.316 -0.2901 -0.5201 -0.0468
 2080TIP3    H227800   0.553   4.156   8.185  0.5594 -2.6238  1.2124
 2081TIP3   OH227801   5.304   3.466   0.957 -0.0224  0.5586  0.0415
 2081TIP3    H127802   5.283   3.467   1.050  0.8562 -0.7223  0.2912
 2081TIP3    H227803   5.339   3.378   0.942  0.2353  0.8852 -1.4087
 2082TIP3   OH227804   6.063   0.877   7.313 -0.1035 -0.1549 -0.2140
 2082TIP3    H127805   6.154   0.892   7.337  0.1578  0.6336 -1.5517
 2082TIP3    H227806   6.064   0.791   7.270  0.0058 -0.1813 -0.1598
 2083TIP3   OH227807   4.687   4.239   0.421 -0.0073  0.1859  0.3212
 2083TIP3    H127808   4.697   4.331   0.443 -1.0233  0.6253 -0.9657
 2083TIP3    H227809   4.595   4.219   0.441  0.7914 -1.2765  3.0542
 2084TIP3   OH227810   0.366   4.862   8.789 -1.0632 -0.0926  0.3002
 2084TIP3    H127811   0.349   4.889   8.698  0.0210  0.8017  0.3351
 2084TIP3    H227812   0.417   4.935   8.826  1.2687 -1.7998  0.6532
 2085TIP3   OH227813   4.241   0.008   2.094  0.0961 -1.0240 -0.0968
 2085TIP3    H127814   4.302   0.049   2.032 -0.2812  1.0947  0.8478
 2085TIP3    H227815   4.291  -0.063   2.133  1.2469 -0.6750 -0.8817
 2086TIP3   OH227816   3.613   4.493   0.333  0.1859  0.3251 -0.4421
 2086TIP3    H127817   3.532   4.514   0.285 -0.3484 -1.0532 -0.2050
 2086TIP3    H227818   3.660   4.434   0.275  0.1979 -0.2383  0.1273
 2087TIP3   OH227819   1.081   5.158   2.028  0.0817  0.4265 -0.2317
 2087TIP3    H127820   1.055   5.163   1.936  1.4710  0.4705 -0.6449
 2087TIP3    H227821   1.128   5.075   2.035 -1.0734 -0.1755  0.7478
 2088TIP3   OH227822   5.482   4.062   8.917 -0.4979  0.0828 -0.0049
 2088TIP3    H127823   5.434   4.123   8.861  0.6354  0.9873 -0.0197
 2088TIP3    H227824   5.488   4.106   9.002 -0.6213 -0.4901  0.3060
 2089TIP3   OH227825   5.304   4.519   8.458  0.4017 -0.2667 -0.9054
 2089TIP3    H127826   5.324   4.476   8.375  0.5757 -1.2890 -0.3627
 2089TIP3    H227827   5.270   4.605   8.434  1.3762 -0.1616 -1.9912
 2090TIP3   OH227828   4.308   0.748   0.260  0.6228  0.1802  0.7606
 2090TIP3    H127829   4.221   0.711   0.246 -0.8620  2.9468  2.0099
 2090TIP3    H227830   4.322   0.807   0.186  0.5879  1.1564  1.5127
 2091TIP3   OH227831   3.171   6.575   8.545  0.1698  0.2531 -0.3071
 2091TIP3    H127832   3.149   6.665   8.570  0.5474  0.3227 -0.2114
 2091TIP3    H227833   3.114   6.556   8.470 -1.5585 -0.2398  1.0615
 2092TIP3   OH227834   3.906   1.175   2.324 -0.3841 -0.0207 -0.4755
 2092TIP3    H127835   3.916   1.092   2.371  0.0705 -0.0193 -0.5699
 2092TIP3    H227836   3.828   1.215   2.363 -0.3891 -0.3228 -0.1737
 2093TIP3   OH227837   6.102   1.899   7.363 -0.4199 -0.1281  0.6631
 2093TIP3    H127838   6.106   1.956   7.287  1.4434 -0.3049  0.5849
 2093TIP3    H227839   6.110   1.810   7.327 -2.9334 -0.4995  0.8131
 2094TIP3   OH227840   0.650   2.555   7.649 -0.0214 -0.0985 -0.6793
 2094TIP3    H127841   0.734   2.519   7.621 -0.0600 -0.8656  0.1484
 2094TIP3    H227842   0.586   2.516   7.589  0.2897  1.4087 -2.0978
 2095TIP3   OH227843   4.086   6.080   1.607  0.3364  0.1091  0.0554
 2095TIP3    H127844   4.089   6.175   1.617  2.2716 -0.1286  3.0855
 2095TIP3    H227845   4.136   6.047   1.681 -0.1027 -3.3066 -1.0078
 2096TIP3   OH227846   0.861   5.574   7.487  0.2076  0.4837 -0.2097
 2096TIP3    H127847   0.809   5.634   7.540  1.3448  2.9093 -1.6054
 2096TIP3    H227848   0.801   5.543   7.419 -0.8309 -1.3972  1.4599
 2097TIP3   OH227849   2.147   0.858   3.349  0.0642  0.2678  0.2581
 2097TIP3    H127850   2.149   0.764   3.364  0.0036  0.4583  1.5406
 2097TIP3    H227851   2.238   0.886   3.361  0.6738  0.0238 -2.8470
 2098TIP3   OH227852   0.653   2.534   2.583  0.1649 -0.1666 -0.3018
 2098TIP3    H127853   0.718   2.467   2.603 -1.3054 -1.0334  1.9223
 2098TIP3    H227854   0.666   2.553   2.490  3.4068 -0.4132  0.0056
 2099TIP3   OH227855   5.614   5.556   2.897  0.4388  0.4393  0.3125
 2099TIP3    H127856   5.654   5.606   2.826 -0.0850 -0.6043 -0.7500
 2099TIP3    H227857   5.598   5.621   2.966  1.0369  1.4559 -0.4793
 2100TIP3   OH227858   6.448   2.538   1.973  0.2151 -0.0435  0.4622
 2100TIP3    H127859   6.436   2.444   1.958  0.0671 -0.1385  1.1459
 2100TIP3    H227860   6.541   2.547   1.994  0.6392  0.2137 -1.3123
 2101TIP3   OH227861   2.374   6.112   8.821 -0.3379  0.1333  0.2946
 2101TIP3    H127862   2.410   6.199   8.801 -0.9730  0.7522  1.6601
 2101TIP3    H227863   2.415   6.089   8.905 -0.3853 -0.7748  0.0716
 2102TIP3   OH227864   5.180   5.774   8.366  0.4004  0.7741 -0.1272
 2102TIP3    H127865   5.131   5.798   8.445  2.8039  3.1459  0.8155
 2102TIP3    H227866   5.179   5.679   8.366 -1.2328  0.7089  1.7290
 2103TIP3   OH227867   4.483   2.782   7.548  0.6938 -0.3036 -0.0758
 2103TIP3    H127868   4.539   2.827   7.611 -0.5198  1.3165 -0.0987
 2103TIP3    H227869   4.395   2.789   7.585  0.0151  0.3249 -1.7509
 2104TIP3   OH227870   3.685   3.641   0.558  0.0602 -0.2283 -0.0513
 2104TIP3    H127871   3.726   3.724   0.580  1.1475 -0.8572  0.4018
 2104TIP3    H227872   3.594   3.663   0.541  0.8138  1.4324 -2.3769
 2105TIP3   OH227873   2.421   3.370   1.468 -0.1417 -0.0501 -0.2013
 2105TIP3    H127874   2.499   3.412   1.504 -0.3344 -0.0849  0.2681
 2105TIP3    H227875   2.453   3.290   1.427  0.1094  0.0999 -0.2995
 2106TIP3   OH227876   4.884   5.688   3.504 -0.2592  0.7561 -0.2934
 2106TIP3    H127877   4.952   5.747   3.535  1.0709 -0.6054 -0.5034
 2106TIP3    H227878   4.847   5.732   3.427 -0.7839  2.2608  0.7802
 2107TIP3   OH227879   4.586   2.706   0.076  0.2274 -0.8210 -0.0280
 2107TIP3    H127880   4.626   2.648   0.011 -0.0606 -2.9013  1.5436
 2107TIP3    H227881   4.612   2.669   0.160 -0.2256  1.2029  1.0657
 2108TIP3   OH227882   0.158   1.096   2.406  0.0231 -0.4584 -0.2705
 2108TIP3    H127883   0.135   1.180   2.446 -2.2887 -0.6852 -0.9820
 2108TIP3    H227884   0.169   1.036   2.480 -1.0654 -0.1599  0.1471
 2109TIP3   OH227885   2.364   3.171   2.703  0.1419  0.0654  0.4085
 2109TIP3    H127886   2.296   3.238   2.713 -0.4605 -0.1526 -1.7006
 2109TIP3    H227887   2.446   3.221   2.698  0.0841  0.3886  2.0460
 2110TIP3   OH227888   4.687   3.558   2.109 -0.0665 -0.2668  0.0535
 2110TIP3    H127889   4.756   3.517   2.057 -0.5037 -0.4092 -0.4229
 2110TIP3    H227890   4.716   3.547   2.199 -0.5139 -2.3065  0.0070
 2111TIP3   OH227891   2.939   2.078   1.120  0.2175 -0.9644  0.6585
 2111TIP3    H127892   2.936   2.056   1.027  0.2616  0.0423  0.4056
 2111TIP3    H227893   3.032   2.094   1.138  0.1254 -0.4638  0.7004
 2112TIP3   OH227894   0.284   4.522   2.856  0.6267  0.0627  0.3565
 2112TIP3    H127895   0.367   4.530   2.904  1.3784 -0.9794 -0.7130
 2112TIP3    H227896   0.310   4.489   2.770 -0.7703  1.2020 -0.5215
 2113TIP3   OH227897   5.063   4.807   1.683 -0.3367 -0.1869 -0.5292
 2113TIP3    H127898   4.998   4.781   1.618 -0.0358  0.0655 -0.9368
 2113TIP3    H227899   5.145   4.769   1.652 -0.5036 -1.6046  0.6537
 2114TIP3   OH227900   5.438   3.157   1.839 -0.4222 -0.1594  0.6282
 2114TIP3    H127901   5.466   3.248   1.849 -0.8033 -0.0045  0.3049
 2114TIP3    H227902   5.343   3.161   1.839 -0.6467  0.0603 -4.1110
 2115TIP3   OH227903   3.829   1.062   1.942 -0.4150  0.8185  0.0122
 2115TIP3    H127904   3.829   1.071   1.846  0.8541  0.5529 -0.0293
 2115TIP3    H227905   3.737   1.048   1.964 -0.5215 -1.1390 -1.3797
 2116TIP3   OH227906   0.653   4.355   8.799 -0.0345  0.0417 -0.8239
 2116TIP3    H127907   0.746   4.338   8.787 -0.1308 -2.8995  1.4228
 2116TIP3    H227908   0.649   4.438   8.846  1.9296 -1.8307  3.1753
 2117TIP3   OH227909   0.560   1.654   1.113  0.1299 -0.5309 -0.3994
 2117TIP3    H127910   0.543   1.682   1.203  2.9744 -0.7271  0.2925
 2117TIP3    H227911   0.473   1.633   1.077 -1.0956 -0.2588  2.2015
 2118TIP3   OH227912   3.992   0.053   1.810  0.4405 -0.1959  0.2827
 2118TIP3    H127913   3.976   0.146   1.819  1.7263 -0.0521  1.3837
 2118TIP3    H227914   3.926   0.011   1.864 -1.1785 -0.0494 -1.4729
 2119TIP3   OH227915   6.075   5.713   8.198  0.0243 -0.1450  0.1237
 2119TIP3    H127916   6.022   5.671   8.265 -1.6063  0.7155 -0.5761
 2119TIP3    H227917   6.165   5.705   8.230 -0.6018 -0.7629  1.8331
 2120TIP3   OH227918   3.978   3.387   0.361  0.2325 -0.3049  0.1329
 2120TIP3    H127919   3.946   3.415   0.275 -0.1861 -0.3329  0.2750
 2120TIP3    H227920   3.902   3.343   0.401  0.8677 -1.6622 -0.0962
 2121TIP3   OH227921   6.263   3.706   2.820  0.0269  0.1249 -0.2711
 2121TIP3    H127922   6.216   3.677   2.898  1.9862 -0.6170  0.6993
 2121TIP3    H227923   6.306   3.788   2.847  2.1545 -1.0362  0.0659
 2122TIP3   OH227924   2.142   6.058   1.231 -0.1700 -0.4249  0.6320
 2122TIP3    H127925   2.082   6.013   1.291 -1.9459  2.1201  0.9524
 2122TIP3    H227926   2.119   6.023   1.145  0.4886 -2.1261  1.1117
 2123TIP3   OH227927   6.003   4.832   9.097 -0.3921  0.0681 -0.2958
 2123TIP3    H127928   6.084   4.805   9.055  0.8753  1.2324  1.2750
 2123TIP3    H227929   5.942   4.846   9.025  1.1070  0.1537 -1.5977
 2124TIP3   OH227930   3.238   4.265   1.717 -0.0590  0.0060  0.1234
 2124TIP3    H127931   3.227   4.175   1.687  1.5535 -0.6824  1.4698
 2124TIP3    H227932   3.183   4.272   1.795  0.9298 -0.2915  0.8685
 2125TIP3   OH227933   4.100   4.001   7.195 -0.1129 -0.7708 -0.0134
 2125TIP3    H127934   4.052   4.006   7.277 -1.2289 -0.0228 -0.6698
 2125TIP3    H227935   4.168   4.068   7.202  0.5927 -1.5569  0.7698
 2126TIP3   OH227936   3.166   3.154   0.246 -0.4934 -0.2356  0.2727
 2126TIP3    H127937   3.247   3.114   0.279 -0.1784 -1.2926 -1.6140
 2126TIP3    H227938   3.097   3.118   0.301  0.0644 -1.4278  0.2282
 2127TIP3   OH227939   1.382   1.725   2.223 -0.3483  0.1977  0.6770
 2127TIP3    H127940   1.418   1.718   2.134 -1.1503 -0.2797  0.3722
 2127TIP3    H227941   1.425   1.656   2.273 -0.0488  0.3295  0.5993
 2128TIP3   OH227942   0.518   4.755   2.761 -0.2533 -0.7824 -0.1239
 2128TIP3    H127943   0.501   4.779   2.851  1.6186 -1.0679  0.3380
 2128TIP3    H227944   0.565   4.672   2.766 -2.5610 -2.2881 -1.4921
 2129TIP3   OH227945   3.384   0.536   2.052  0.5611 -0.3309 -0.2245
 2129TIP3    H127946   3.370   0.561   2.143 -0.4920  1.6083 -0.8628
 2129TIP3    H227947   3.443   0.602   2.018  0.7125 -0.8753 -1.0444
 2130TIP3   OH227948   5.830   4.111   6.832 -0.2520 -0.1868 -0.0666
 2130TIP3    H127949   5.858   4.031   6.788  2.0831  0.7062 -0.3025
 2130TIP3    H227950   5.851   4.096   6.925  0.2155  0.1462 -0.1153
 2131TIP3   OH227951   3.666   3.836   7.669  0.1930  0.5579  0.5335
 2131TIP3    H127952   3.615   3.820   7.748 -1.1729 -0.6702 -0.5261
 2131TIP3    H227953   3.667   3.931   7.659 -1.9644  0.6247  0.5789
 2132TIP3   OH227954   1.519   4.465   0.971  0.7957 -0.1801  0.7299
 2132TIP3    H127955   1.587   4.529   0.950  1.9339 -1.8772 -0.9800
 2132TIP3    H227956   1.448   4.485   0.910  0.0432  1.0218  1.9256
 2133TIP3   OH227957   4.573   6.194   6.877  0.2715 -0.4949 -0.3162
 2133TIP3    H127958   4.607   6.199   6.788  1.4037  1.0650  0.1356
 2133TIP3    H227959   4.633   6.135   6.923  1.4783  0.9395  0.0620
 2134TIP3   OH227960   0.052   4.060   1.765  0.2384  0.5243  0.2274
 2134TIP3    H127961  -0.037   4.030   1.786 -0.1462  1.8821  0.6005
 2134TIP3    H227962   0.107   3.982   1.779 -0.9961 -0.6517 -1.0517
 2135TIP3   OH227963   5.766   5.702   3.174 -0.3636  0.0724 -0.0312
 2135TIP3    H127964   5.792   5.767   3.239  3.0381  1.1892 -2.2145
 2135TIP3    H227965   5.702   5.747   3.119  0.9493  1.1762 -0.7088
 2136TIP3   OH227966   6.089   5.260   7.684 -0.6505  0.3438 -0.2825
 2136TIP3    H127967   6.140   5.257   7.603  0.5019  0.3381  0.4157
 2136TIP3    H227968   6.099   5.350   7.716  0.5505 -0.1583  0.8460
 2137TIP3   OH227969   5.631   3.027   0.384 -0.2301 -0.0550 -0.1073
 2137TIP3    H127970   5.563   3.046   0.319 -0.5653  1.7597  0.7216
 2137TIP3    H227971   5.664   3.113   0.409  2.1512 -0.8602 -0.2184
 2138TIP3   OH227972   2.599   2.112   8.172  0.0375  0.5526  0.9065
 2138TIP3    H127973   2.578   2.114   8.079  1.7435 -0.5785  0.4518
 2138TIP3    H227974   2.687   2.151   8.178  2.1165 -3.6731  1.2867
 2139TIP3   OH227975   5.714   3.871   1.960 -0.1698  0.4212  0.2109
 2139TIP3    H127976   5.761   3.918   2.030  1.6530 -0.1314 -0.5652
 2139TIP3    H227977   5.638   3.832   2.003 -1.2783  3.2737  1.0753
 2140TIP3   OH227978   0.914   5.898   9.101 -0.0856 -0.6395  0.3615
 2140TIP3    H127979   0.961   5.936   9.027 -0.9542 -0.5115 -0.1320
 2140TIP3    H227980   0.970   5.826   9.131  1.1234  0.4109  0.7056
 2141TIP3   OH227981   1.101   3.311   1.516 -0.5372  0.1862  0.0937
 2141TIP3    H127982   1.168   3.302   1.584 -1.8518  0.0681  1.4067
 2141TIP3    H227983   1.052   3.389   1.540 -1.1226  0.0583 -0.6347
 2142TIP3   OH227984   3.690   0.867   7.074  0.3984  0.2390  0.4354
 2142TIP3    H127985   3.617   0.805   7.074 -1.1938  2.0189  0.6781
 2142TIP3    H227986   3.707   0.884   6.981 -0.5479  0.9797  0.3926
 2143TIP3   OH227987   5.033   2.309   0.695  0.2152  0.0285 -0.4463
 2143TIP3    H127988   5.066   2.223   0.721  1.1115  0.7142  0.7906
 2143TIP3    H227989   4.967   2.290   0.628  0.4723 -1.6043 -0.2818
 2144TIP3   OH227990   0.896   4.808   7.442  0.2591  0.1382 -0.0044
 2144TIP3    H127991   0.832   4.876   7.460  1.1411  1.2158 -0.7960
 2144TIP3    H227992   0.938   4.835   7.360  0.1003 -1.7556 -0.7816
 2145TIP3   OH227993   4.918   6.290   8.145  0.1509  0.0929 -0.6442
 2145TIP3    H127994   4.928   6.296   8.240  0.5619  1.9131 -0.7641
 2145TIP3    H227995   5.007   6.287   8.112  0.1104  2.1332 -1.0603
 2146TIP3   OH227996   4.250   3.618   7.914  0.1624  0.2061  0.2081
 2146TIP3    H127997   4.299   3.578   7.985 -0.3990  1.6466  1.4556
 2146TIP3    H227998   4.314   3.672   7.868  0.2622  0.2163  0.3598
 2147TIP3   OH227999   5.481   0.614   1.894  0.1721 -0.2719 -0.2586
 2147TIP3    H128000   5.539   0.543   1.919  0.3651 -0.3193 -0.8209
 2147TIP3    H228001   5.419   0.575   1.833 -1.4307 -0.5763  1.4837
 2148TIP3   OH228002   3.984   2.681   0.427  0.2767  0.0944  0.4184
 2148TIP3    H128003   4.008   2.714   0.514  0.9219 -0.3308  0.4120
 2148TIP3    H228004   4.054   2.712   0.369 -1.0748  1.9232 -0.3303
 2149TIP3   OH228005   1.073   1.729   2.788  0.0046 -0.1399 -0.7574
 2149TIP3    H128006   1.019   1.677   2.729  0.4029 -2.5009  0.8301
 2149TIP3    H228007   1.031   1.720   2.874  1.1496  0.5948 -0.0834
 2150TIP3   OH228008   3.219   6.063   2.331 -0.4765 -0.4139  0.2703
 2150TIP3    H128009   3.140   6.033   2.286 -1.1616  1.9864 -0.2657
 2150TIP3    H228010   3.227   6.003   2.406 -1.0484 -2.5704 -1.2911
 2151TIP3   OH228011   2.969   0.893   2.671  0.2072 -0.1818  0.3460
 2151TIP3    H128012   3.023   0.946   2.729 -0.6120  1.9929 -0.7547
 2151TIP3    H228013   2.885   0.886   2.716  0.2760 -0.4466  0.4343
 2152TIP3   OH228014   0.283   6.687   3.097 -0.0788 -0.4960 -0.7322
 2152TIP3    H128015   0.237   6.696   3.180  0.6707 -1.2080 -0.2253
 2152TIP3    H228016   0.357   6.748   3.105  0.0946 -0.6976 -0.8051
 2153TIP3   OH228017   1.756   0.539   8.784  0.1987  0.5297  0.5666
 2153TIP3    H128018   1.758   0.488   8.865  0.4223 -2.2658 -1.0795
 2153TIP3    H228019   1.845   0.572   8.774  0.2092  0.7524  1.3611
 2154TIP3   OH228020   1.603   1.779   2.438  0.6404 -0.1134 -0.2937
 2154TIP3    H128021   1.532   1.827   2.479  0.1781  0.7942 -2.0706
 2154TIP3    H228022   1.573   1.688   2.436  0.8852 -0.2922  1.7290
 2155TIP3   OH228023   0.229   5.264   1.006 -0.0146 -0.5787  0.2864
 2155TIP3    H128024   0.162   5.328   1.030  0.1060 -0.3885  0.1192
 2155TIP3    H228025   0.246   5.215   1.087  0.0643 -0.2403  0.4741
 2156TIP3   OH228026   3.342   4.779   1.226  0.2898 -0.5457 -0.5067
 2156TIP3    H128027   3.371   4.861   1.188 -0.5958 -0.7657 -1.7421
 2156TIP3    H228028   3.419   4.743   1.270  0.8823  0.5695 -0.6139
 2157TIP3   OH228029   0.317   3.229   7.702  0.2204  0.1232  0.1103
 2157TIP3    H128030   0.288   3.193   7.619  0.7433 -0.5246  0.1971
 2157TIP3    H228031   0.376   3.300   7.679 -0.3410  0.5388 -0.0649
 2158TIP3   OH228032   5.462   5.177   7.808  0.2455 -0.3170  0.8086
 2158TIP3    H128033   5.470   5.242   7.738 -0.4173 -1.1239 -0.0311
 2158TIP3    H228034   5.462   5.093   7.763  1.1532 -0.9143  1.8931
 2159TIP3   OH228035   3.182   4.483   0.731 -0.6952 -0.2887 -0.2145
 2159TIP3    H128036   3.199   4.529   0.813  0.0243 -0.4140 -0.2893
 2159TIP3    H228037   3.211   4.544   0.663  1.1156 -1.1637 -0.2956
 2160TIP3   OH228038   5.805   1.806   6.703 -0.6333  0.2795  0.5254
 2160TIP3    H128039   5.781   1.821   6.612 -0.5747 -0.9592  0.2991
 2160TIP3    H228040   5.875   1.741   6.700 -0.3806  0.4899  1.4375
 2161TIP3   OH228041   6.033   2.292   0.061  0.1748  0.0834  0.2187
 2161TIP3    H128042   6.018   2.300  -0.033 -0.2039  1.4857  0.3686
 2161TIP3    H228043   6.096   2.221   0.070  0.0913 -0.1642 -1.0828
 2162TIP3   OH228044   1.782   6.699   1.727  0.0792 -0.6056  0.1856
 2162TIP3    H128045   1.856   6.705   1.787  1.1046  2.4849 -1.2059
 2162TIP3    H228046   1.707   6.679   1.784  1.1713  1.1488  2.3865
 2163TIP3   OH228047   6.538   5.255   0.667 -0.4919  0.3512  0.1525
 2163TIP3    H128048   6.505   5.185   0.611  1.2748 -0.8100  0.4620
 2163TIP3    H228049   6.539   5.217   0.755 -1.4596  1.5007  0.6769
 2164TIP3   OH228050   2.559   6.461   1.020 -0.0377 -0.4219 -0.0064
 2164TIP3    H128051   2.633   6.423   0.974 -0.4210 -0.6066 -0.4792
 2164TIP3    H228052   2.514   6.386   1.059  0.6787 -0.2137  1.2913
 2165TIP3   OH228053   2.513   6.143   0.686 -0.2103  0.4370 -0.4997
 2165TIP3    H128054   2.503   6.053   0.656  2.1097 -0.1576  0.3208
 2165TIP3    H228055   2.497   6.139   0.781 -0.7807  1.0252 -0.5645
 2166TIP3   OH228056   5.098   3.367   8.348 -0.4386 -0.6873  0.4058
 2166TIP3    H128057   5.052   3.352   8.265  0.5389 -2.3664  0.1280
 2166TIP3    H228058   5.039   3.334   8.415  0.4971 -3.3672  0.0107
 2167TIP3   OH228059   5.457   6.482   0.451  0.0059 -0.1994 -0.6542
 2167TIP3    H128060   5.372   6.439   0.463  0.3119 -0.2175  1.9619
 2167TIP3    H228061   5.435   6.574   0.434 -0.5464 -0.6521 -2.7252
 2168TIP3   OH228062   5.881   1.157   8.571 -0.0036 -0.0514 -0.3223
 2168TIP3    H128063   5.801   1.209   8.569  0.1496  0.2301  0.5813
 2168TIP3    H228064   5.906   1.149   8.479 -0.9029  0.1057 -0.5977
 2169TIP3   OH228065   5.230   0.042   7.647  0.1605  0.0427 -0.1061
 2169TIP3    H128066   5.216  -0.024   7.579  0.9738  0.6038 -0.8490
 2169TIP3    H228067   5.311   0.015   7.689 -1.0238 -1.0603  1.5944
 2170TIP3   OH228068   5.642   0.753   9.027  0.7117  0.1556  0.3215
 2170TIP3    H128069   5.572   0.718   9.081  0.5429 -1.8332 -1.0810
 2170TIP3    H228070   5.720   0.703   9.052  0.7603 -0.3640 -0.7936
 2171TIP3   OH228071   5.702   0.822   2.184  0.0737 -0.6349  0.0853
 2171TIP3    H128072   5.737   0.809   2.272 -1.2884 -0.9434  0.6056
 2171TIP3    H228073   5.687   0.916   2.178  0.4317 -0.5772  0.0740
 2172TIP3   OH228074   4.011   5.061   0.861  0.0412  0.3064 -0.3633
 2172TIP3    H128075   3.925   5.090   0.830 -0.1347  1.2984  0.9736
 2172TIP3    H228076   4.035   4.991   0.801 -1.9082 -0.3095 -0.5012
 2173TIP3   OH228077   6.171   3.216   6.589  0.3528  0.4137 -0.6715
 2173TIP3    H128078   6.178   3.249   6.678 -0.4908  0.5152 -0.6362
 2173TIP3    H228079   6.244   3.154   6.581  0.2674  0.1902  0.1755
 2174TIP3   OH228080   3.556   6.260   2.552  0.5300 -1.1168  0.0499
 2174TIP3    H128081   3.598   6.309   2.624 -2.5517  0.5045  0.9260
 2174TIP3    H228082   3.618   6.191   2.531  3.4403  0.8723  1.4040
 2175TIP3   OH228083   1.212   4.200   2.327  0.1215  0.0463 -0.3293
 2175TIP3    H128084   1.178   4.141   2.395 -0.4105  0.2214 -0.4334
 2175TIP3    H228085   1.134   4.245   2.294  0.6527  1.7249  0.5900
 2176TIP3   OH228086   1.549   5.910   0.522 -0.1538 -0.0191  0.1472
 2176TIP3    H128087   1.456   5.923   0.503 -0.4755 -0.3008  1.4178
 2176TIP3    H228088   1.555   5.918   0.617  1.5624  2.6643 -0.0752
 2177TIP3   OH228089   5.967   3.234   7.144  0.4698 -0.2178 -0.6020
 2177TIP3    H128090   5.927   3.220   7.058  1.1004  0.3254 -0.9917
 2177TIP3    H228091   6.060   3.216   7.131  0.4251 -1.1628  0.2277
 2178TIP3   OH228092   5.110   5.560   1.643 -0.1203  0.0821 -0.1748
 2178TIP3    H128093   5.052   5.484   1.634 -2.0986  1.4179  0.5182
 2178TIP3    H228094   5.050   5.635   1.648  1.5511  1.3798  2.6318
 2179TIP3   OH228095   2.800   1.200   7.705  0.6712 -0.5147  0.5821
 2179TIP3    H128096   2.810   1.268   7.639 -1.3095 -0.7012 -0.0035
 2179TIP3    H228097   2.705   1.188   7.712  0.9489 -3.5260  0.3182
 2180TIP3   OH228098   4.332   0.656   8.259 -0.2928  0.0265 -0.1210
 2180TIP3    H128099   4.266   0.723   8.240  0.5816  0.8381 -0.3412
 2180TIP3    H228100   4.284   0.588   8.306 -0.9627  1.3460  1.1915
 2181TIP3   OH228101   6.035   2.156   8.640 -0.3157 -0.4500  0.1095
 2181TIP3    H128102   5.987   2.186   8.563 -0.3018 -0.1920  0.1989
 2181TIP3    H228103   6.039   2.061   8.631 -0.8091 -0.4696  0.0764
 2182TIP3   OH228104   6.262   5.663   9.029  0.3559 -0.3284 -0.6655
 2182TIP3    H128105   6.295   5.655   9.119  1.4147 -2.1771 -1.1632
 2182TIP3    H228106   6.339   5.653   8.974 -0.5348 -1.1527 -1.8095
 2183TIP3   OH228107   5.194   0.107   9.102 -0.1868 -0.3314  0.4059
 2183TIP3    H128108   5.126   0.172   9.120 -0.0191  0.0727 -0.3824
 2183TIP3    H228109   5.267   0.133   9.160 -0.6673 -0.7322  1.2053
 2184TIP3   OH228110   6.387   0.762   8.316 -0.0271 -0.4910  0.3016
 2184TIP3    H128111   6.474   0.744   8.279  0.4771 -1.1325  1.7442
 2184TIP3    H228112   6.367   0.851   8.287  0.9297 -0.4772 -0.3786
 2185TIP3   OH228113   0.939   4.382   8.365 -0.5055  0.5772  0.1665
 2185TIP3    H128114   0.979   4.401   8.450  0.6617 -0.6174 -0.0683
 2185TIP3    H228115   0.908   4.292   8.372 -0.3579  0.4475 -0.6792
 2186TIP3   OH228116   2.785   3.529   8.951 -0.4938  0.4419  0.8564
 2186TIP3    H128117   2.861   3.582   8.973 -0.0458  0.0367  0.3171
 2186TIP3    H228118   2.822   3.446   8.922 -1.1640  0.0620  1.0715
 2187TIP3   OH228119   2.332   3.848   1.141  0.1117  0.1467  0.6125
 2187TIP3    H128120   2.380   3.790   1.082  0.2014  0.1471  0.6851
 2187TIP3    H228121   2.247   3.861   1.098  0.2539  0.3201  0.3808
 2188TIP3   OH228122   3.104   1.898   0.760 -0.4648 -0.0455  0.6189
 2188TIP3    H128123   3.074   1.957   0.691 -1.3012  0.3022  1.2581
 2188TIP3    H228124   3.161   1.953   0.815 -0.3294 -0.1460  0.5801
 2189TIP3   OH228125   4.870   5.185   7.772  0.5559 -0.0662 -0.2441
 2189TIP3    H128126   4.945   5.245   7.770 -0.0950  0.8244  0.9143
 2189TIP3    H228127   4.794   5.242   7.760 -0.1641 -0.4360  2.0400
 2190TIP3   OH228128   4.960   5.664   7.474 -0.0387 -0.2773 -0.2632
 2190TIP3    H128129   4.947   5.750   7.435  0.1771  0.6375  1.5871
 2190TIP3    H228130   5.032   5.625   7.425 -0.0855  0.6237 -1.0596
 2191TIP3   OH228131   1.559   2.515   1.563  0.4928 -0.3422  0.2657
 2191TIP3    H128132   1.638   2.526   1.616  2.1233 -1.2026 -1.8104
 2191TIP3    H228133   1.561   2.423   1.536 -0.7127 -0.1349 -0.6064
 2192TIP3   OH228134   1.633   0.176   2.133 -0.1193  0.2172 -0.0340
 2192TIP3    H128135   1.591   0.090   2.130 -0.8639  0.5628  0.3216
 2192TIP3    H228136   1.702   0.166   2.199 -0.1139 -0.1439 -0.0888
 2193TIP3   OH228137   6.373   0.247   8.518 -0.0144  0.1750  0.1565
 2193TIP3    H128138   6.438   0.197   8.567 -0.6311 -2.4912 -1.5358
 2193TIP3    H228139   6.424   0.296   8.454  0.4539 -2.5159 -1.7024
 2194TIP3   OH228140   1.790   2.538   1.796  0.2067 -0.0153  0.2411
 2194TIP3    H128141   1.846   2.513   1.870  0.7967  1.9514  0.5245
 2194TIP3    H228142   1.716   2.584   1.837 -0.1417 -0.0576 -0.3308
 2195TIP3   OH228143   0.099   0.948   7.385 -0.2605 -0.6247 -0.4457
 2195TIP3    H128144   0.015   0.961   7.341 -0.8215  0.2875  0.8313
 2195TIP3    H228145   0.103   0.854   7.402 -1.1455 -0.6371 -0.2893
 2196TIP3   OH228146   1.638   6.476   2.439  0.4271 -0.2770 -0.3823
 2196TIP3    H128147   1.690   6.421   2.498 -0.4968 -0.8922 -0.1196
 2196TIP3    H228148   1.571   6.417   2.405  1.2551 -0.0816 -2.5029
 2197TIP3   OH228149   1.382   1.683   7.740 -0.0347  1.0298 -0.0645
 2197TIP3    H128150   1.373   1.713   7.649 -1.9479  0.2214 -0.1863
 2197TIP3    H228151   1.353   1.757   7.793 -0.6987  0.8879 -0.2116
 2198TIP3   OH228152   5.188   1.742   7.557  0.2378 -0.0183 -0.4933
 2198TIP3    H128153   5.118   1.705   7.504  0.9095 -0.8696 -0.7958
 2198TIP3    H228154   5.243   1.668   7.581  0.8989  0.5987 -0.0395
 2199TIP3   OH228155   0.767   5.250   2.013  0.4775  0.0146 -0.1099
 2199TIP3    H128156   0.730   5.284   1.932 -0.1335  0.1613  0.2260
 2199TIP3    H228157   0.697   5.260   2.078  1.0607  0.1830  0.5084
 2200TIP3   OH228158   6.136   1.523   0.258  0.8041  0.2243  0.2388
 2200TIP3    H128159   6.116   1.498   0.348 -0.6319 -1.2042 -0.4394
 2200TIP3    H228160   6.111   1.447   0.206  0.5157  1.4573 -1.4864
 2201TIP3   OH228161   3.325   2.225   0.074 -0.1545 -0.2625 -0.2033
 2201TIP3    H128162   3.294   2.316   0.072 -0.7280 -0.4598 -1.5130
 2201TIP3    H228163   3.415   2.229   0.042  0.6233  0.0823  1.8499
 2202TIP3   OH228164   3.424   0.277   0.752 -0.5864 -0.1019 -0.1909
 2202TIP3    H128165   3.434   0.368   0.723 -0.8078 -0.3132 -0.9718
 2202TIP3    H228166   3.463   0.274   0.839  1.9816  0.1338 -1.2364
 2203TIP3   OH228167   3.214   1.261   7.729 -0.1918 -0.4727 -0.3058
 2203TIP3    H128168   3.211   1.317   7.651  0.6354 -0.5051 -0.3756
 2203TIP3    H228169   3.199   1.173   7.695 -2.1357 -0.2535 -0.1133
 2204TIP3   OH228170   1.221   2.458   7.735 -0.0285  0.4107  0.1361
 2204TIP3    H128171   1.174   2.522   7.683  0.0946 -0.1168 -0.6363
 2204TIP3    H228172   1.242   2.387   7.674 -1.4770 -1.0802  1.2915
 2205TIP3   OH228173   4.868   2.148   8.228  0.1627  0.4472 -0.1556
 2205TIP3    H128174   4.914   2.100   8.159 -1.7630 -0.8749 -0.5873
 2205TIP3    H228175   4.797   2.090   8.255  0.4301  1.2153  2.4875
 2206TIP3   OH228176   4.612   5.281   0.643 -0.1757 -0.0536 -0.7419
 2206TIP3    H128177   4.542   5.253   0.703  0.2929 -0.9761 -0.6069
 2206TIP3    H228178   4.566   5.320   0.569 -0.8216 -0.2295 -0.4395
 2207TIP3   OH228179   6.455   4.666   1.438 -0.1879 -0.2473 -0.2971
 2207TIP3    H128180   6.497   4.598   1.385  0.9420  0.2078 -0.0101
 2207TIP3    H228181   6.375   4.687   1.391  0.2978 -0.5619 -1.2968
 2208TIP3   OH228182   4.708   1.025   1.865 -0.2781 -0.0252 -0.6211
 2208TIP3    H128183   4.623   0.984   1.849 -0.3590 -0.1685  0.1050
 2208TIP3    H228184   4.700   1.113   1.828 -1.0524  0.2662  0.1971
 2209TIP3   OH228185   3.088   1.248   1.273 -0.1080 -0.3633 -0.4606
 2209TIP3    H128186   3.067   1.340   1.254 -0.4000 -0.4284 -0.4461
 2209TIP3    H228187   3.012   1.215   1.321  0.2204 -0.4668  0.0032
 2210TIP3   OH228188   4.461   1.638   8.883  0.0918  0.2258 -0.2315
 2210TIP3    H128189   4.441   1.606   8.971 -0.8257  2.8294  0.6120
 2210TIP3    H228190   4.553   1.663   8.888  0.1250  0.0787 -0.0954
 2211TIP3   OH228191   2.663   2.775   0.216  0.5487  0.1654  0.6324
 2211TIP3    H128192   2.716   2.762   0.137  0.0338 -2.5302  0.6351
 2211TIP3    H228193   2.638   2.867   0.213  0.8947  0.2703 -2.1417
 2212TIP3   OH228194   2.122   5.791   2.785  0.1042 -0.2435 -0.4448
 2212TIP3    H128195   2.057   5.781   2.854  1.2629 -0.6946  0.6160
 2212TIP3    H228196   2.178   5.714   2.793  1.3722  0.6135 -0.6501
 2213TIP3   OH228197   0.042   1.704   1.572  0.2900 -0.3071  0.1594
 2213TIP3    H128198   0.061   1.673   1.484  1.9186  0.1811  0.3086
 2213TIP3    H228199   0.118   1.756   1.596 -0.5622  0.3704  1.4918
 2214TIP3   OH228200   4.083   5.752   1.726 -0.7086 -0.4220  0.3604
 2214TIP3    H128201   4.144   5.823   1.748 -1.1103  0.1733 -0.4150
 2214TIP3    H228202   4.131   5.699   1.662 -1.0844  0.1886 -0.4407
 2215TIP3   OH228203   2.715   4.363   1.972 -0.3536 -0.5346 -0.2088
 2215TIP3    H128204   2.697   4.412   2.052  1.2591  2.1198 -1.3007
 2215TIP3    H228205   2.728   4.273   2.000 -0.9817  0.1014  2.3186
 2216TIP3   OH228206   3.388   0.745   1.000 -0.1665  0.1578  0.5244
 2216TIP3    H128207   3.436   0.703   1.071 -0.4459 -1.0938 -0.0049
 2216TIP3    H228208   3.336   0.675   0.960 -0.1121  0.8452 -0.8399
 2217TIP3   OH228209   1.343   0.466   8.683 -0.1064 -0.1724  0.1577
 2217TIP3    H128210   1.389   0.527   8.626  1.2349 -0.8137  0.5025
 2217TIP3    H228211   1.413   0.416   8.726 -1.1004 -0.4387  1.5402
 2218TIP3   OH228212   1.240   4.533   2.851  0.6384  0.2102  0.1373
 2218TIP3    H128213   1.146   4.541   2.835  0.6086 -0.4827 -0.0611
 2218TIP3    H228214   1.274   4.622   2.842  0.0294  0.4278  0.0049
 2219TIP3   OH228215   5.299   5.223   8.636 -0.4571  0.2012  0.4021
 2219TIP3    H128216   5.221   5.169   8.637  0.7633 -1.6935 -0.4700
 2219TIP3    H228217   5.295   5.272   8.554 -0.3835 -0.4437  0.0123
 2220TIP3   OH228218   6.070   1.050   8.088  0.2844  0.3397  0.6842
 2220TIP3    H128219   6.146   1.006   8.125  1.1328 -0.0228 -1.3516
 2220TIP3    H228220   6.106   1.125   8.041 -0.5682  0.0768 -0.4438
 2221TIP3   OH228221   4.928   5.727   2.159 -0.4825 -0.0281 -0.1541
 2221TIP3    H128222   5.020   5.735   2.134 -0.2959 -0.3575  0.4149
 2221TIP3    H228223   4.922   5.771   2.243 -0.9456  0.4037 -0.4147
 2222TIP3   OH228224   4.850   5.926   9.100 -0.2118 -0.0765  0.3207
 2222TIP3    H128225   4.782   5.971   9.150 -0.3475  0.6362 -0.5030
 2222TIP3    H228226   4.893   5.870   9.165  0.5018  1.8188  1.5545
 2223TIP3   OH228227   4.860   5.133   0.026 -0.4899  0.2743  0.1583
 2223TIP3    H128228   4.806   5.054   0.021 -0.1344  0.1117 -1.9408
 2223TIP3    H228229   4.798   5.202   0.049 -1.2331 -0.2366 -0.2531
 2224TIP3   OH228230   5.206   3.148   1.066 -0.3398 -0.0276 -0.0063
 2224TIP3    H128231   5.117   3.172   1.041 -0.4555  1.1955  1.4297
 2224TIP3    H228232   5.202   3.053   1.081 -1.5611  0.1032  0.6236
 2225TIP3   OH228233   3.838   2.710   7.735 -0.3905  0.1680 -0.1467
 2225TIP3    H128234   3.786   2.730   7.657  0.0388 -0.2239 -0.5399
 2225TIP3    H228235   3.889   2.790   7.750 -0.6824  0.3444 -0.1055
 2226TIP3   OH228236   2.912   1.184   8.221 -0.2636 -0.5014 -0.4211
 2226TIP3    H128237   2.888   1.112   8.279  0.8688 -1.7073 -1.3910
 2226TIP3    H228238   2.948   1.141   8.144  1.9204  1.1080 -0.3826
 2227TIP3   OH228239   2.153   3.092   8.775  0.1714  0.1976  1.1850
 2227TIP3    H128240   2.147   3.015   8.719 -0.6984 -0.5662  2.2757
 2227TIP3    H228241   2.192   3.159   8.720 -1.7285 -0.1540 -0.7084
 2228TIP3   OH228242   6.563   2.287   8.823 -0.2601 -0.1197  0.1978
 2228TIP3    H128243   6.596   2.370   8.859  1.2711 -1.0521  1.0320
 2228TIP3    H228244   6.498   2.258   8.887  1.9421 -1.4149  2.0218
 2229TIP3   OH228245   6.390   3.743   8.853 -0.5529  0.1641 -0.3703
 2229TIP3    H128246   6.448   3.729   8.927 -2.1614  0.5596  1.0278
 2229TIP3    H228247   6.448   3.744   8.777  1.2748  0.6565  0.9540
 2230TIP3   OH228248   3.366   3.807   8.036  0.5773 -0.2542 -0.4820
 2230TIP3    H128249   3.310   3.870   8.081  0.2735 -0.2074 -0.9251
 2230TIP3    H228250   3.306   3.752   7.986  1.0528  1.2586 -2.8293
 2231TIP3   OH228251   4.060   6.264   2.148 -0.0724 -0.2068 -0.3796
 2231TIP3    H128252   3.971   6.255   2.180  0.6543  0.8189  2.2261
 2231TIP3    H228253   4.075   6.359   2.144  1.1253 -0.3619 -0.0445
 2232TIP3   OH228254   5.975   3.643   0.096 -0.3712 -0.6278  0.0623
 2232TIP3    H128255   6.029   3.602   0.028  1.8597 -0.4892  1.6468
 2232TIP3    H228256   6.000   3.736   0.093  0.1850 -0.7158  1.4127
 2233TIP3   OH228257   6.721   5.994   0.398 -0.1416  0.1742  0.5140
 2233TIP3    H128258   6.708   5.902   0.378  2.7139  0.1865 -2.0000
 2233TIP3    H228259   6.664   6.040   0.337  0.8199  0.0776 -0.4754
 2234TIP3   OH228260   2.422   4.706   8.073 -0.0637  0.1304 -0.0776
 2234TIP3    H128261   2.420   4.623   8.121  0.9649 -0.0671 -0.3426
 2234TIP3    H228262   2.480   4.762   8.125 -0.2564  0.4710 -0.2260
 2235TIP3   OH228263   5.954   2.403   8.512  0.6213  0.1669  0.1132
 2235TIP3    H128264   5.989   2.492   8.522  1.3055  0.0703 -1.2491
 2235TIP3    H228265   5.954   2.388   8.418 -1.6489 -0.4432  0.1671
 2236TIP3   OH228266   3.402   0.485   8.392 -0.3130  0.3241 -0.3381
 2236TIP3    H128267   3.435   0.572   8.413 -0.6091  0.2101  0.6728
 2236TIP3    H228268   3.447   0.461   8.312  1.0638  0.7252  0.2818
 2237TIP3   OH228269   0.703   5.937   8.473 -0.4821  0.2189 -0.1168
 2237TIP3    H128270   0.674   5.919   8.384 -0.0994  0.2635 -0.2501
 2237TIP3    H228271   0.708   6.033   8.478  1.0920  0.1805 -0.5639
 2238TIP3   OH228272   5.208   1.621   0.766 -0.1395  0.4378 -0.4232
 2238TIP3    H128273   5.235   1.711   0.747  0.0068  0.9483  1.8553
 2238TIP3    H228274   5.214   1.614   0.862  1.1295 -2.3943 -0.5886
 2239TIP3   OH228275   2.760   1.283   1.210 -0.0095  0.0515 -0.2740
 2239TIP3    H128276   2.797   1.205   1.251  1.9195  0.3484 -1.3326
 2239TIP3    H228277   2.671   1.257   1.186  0.0452 -1.2810  0.8287
 2240TIP3   OH228278   6.498   0.211   0.147  0.6287  0.0316 -0.3458
 2240TIP3    H128279   6.522   0.282   0.206 -0.4439  0.2624 -0.1665
 2240TIP3    H228280   6.506   0.132   0.201  0.1494  0.1920 -0.0276
 2241TIP3   OH228281   2.917   1.507   1.301 -0.1116  0.0998  0.5035
 2241TIP3    H128282   2.852   1.446   1.266  0.8461 -1.0337  0.6236
 2241TIP3    H228283   2.910   1.585   1.246  2.1718 -2.0082 -3.1605
 2242TIP3   OH228284   6.416   3.541   1.766 -0.3452 -0.1873 -1.0270
 2242TIP3    H128285   6.326   3.549   1.735 -0.5250  0.8732 -0.2933
 2242TIP3    H228286   6.426   3.612   1.829  0.3241 -1.5764  0.5363
 2243TIP3   OH228287   0.357   5.004   0.917  0.4676  0.5895  0.4335
 2243TIP3    H128288   0.369   5.004   1.012  1.1670 -0.0043  0.3582
 2243TIP3    H228289   0.327   5.092   0.896 -0.2688  0.5433  1.2746
 2244TIP3   OH228290   3.421   3.051   1.986 -0.2507 -0.2542  0.7088
 2244TIP3    H128291   3.512   3.048   2.016  0.1617  1.3351 -0.2737
 2244TIP3    H228292   3.371   3.012   2.057  1.0045  0.5604  2.0870
 2245TIP3   OH228293   3.610   2.290   9.105 -0.3621  0.3190  0.0807
 2245TIP3    H128294   3.693   2.337   9.109 -0.2619  0.0822  0.7879
 2245TIP3    H228295   3.627   2.217   9.045 -0.1696  0.4808 -0.0643
 2246TIP3   OH228296   5.340   4.214   8.740  0.6735  0.1095 -0.2914
 2246TIP3    H128297   5.278   4.224   8.669  0.2751  0.2509  0.0687
 2246TIP3    H228298   5.379   4.301   8.750 -2.0941  1.2235  2.2037
 2247TIP3   OH228299   4.516   4.644   0.821 -0.4727  0.2218  0.1376
 2247TIP3    H128300   4.555   4.712   0.876  1.9596 -1.9395  1.2804
 2247TIP3    H228301   4.495   4.689   0.739  1.1693  2.3137  0.7732
 2248TIP3   OH228302   2.907   5.256   2.847  0.1955 -0.0018 -0.5299
 2248TIP3    H128303   2.870   5.179   2.805  1.8977 -1.0084 -0.3079
 2248TIP3    H228304   2.963   5.221   2.916 -0.0093  1.4997  0.4516
 2249TIP3   OH228305   2.930   1.540   0.354  0.0513 -0.2598 -0.6951
 2249TIP3    H128306   3.012   1.582   0.377 -0.6936 -0.4856  2.9469
 2249TIP3    H228307   2.948   1.496   0.271  3.4619  0.0582 -0.2635
 2250TIP3   OH228308   4.500   1.065   0.704 -0.2215 -0.2820  0.2485
 2250TIP3    H128309   4.422   1.092   0.752  0.9376  1.1184  1.4361
 2250TIP3    H228310   4.516   1.136   0.642 -0.6148 -1.1986 -0.9560
 2251TIP3   OH228311   4.011   5.353   0.285  0.3134  0.3878 -0.0917
 2251TIP3    H128312   3.931   5.306   0.263  0.8814  0.2078 -1.9042
 2251TIP3    H228313   4.081   5.289   0.271  0.7644  0.0740  2.8462
 2252TIP3   OH228314   4.313   0.439   0.306 -0.1716 -0.2531 -0.1294
 2252TIP3    H128315   4.374   0.459   0.234  1.9117  0.1101  1.6314
 2252TIP3    H228316   4.237   0.494   0.289  0.5144  0.2721 -1.7094
 2253TIP3   OH228317   2.857   6.035   0.218  0.1035  0.3417  0.1050
 2253TIP3    H128318   2.862   6.051   0.312  0.6781  0.4893  0.0475
 2253TIP3    H228319   2.785   5.973   0.209  1.2406 -1.1353  0.8318
 2254TIP3   OH228320   4.951   1.496   8.324  0.0564 -0.5857  0.6137
 2254TIP3    H128321   4.983   1.447   8.248 -0.7600 -0.1930 -0.0011
 2254TIP3    H228322   4.860   1.468   8.334 -0.0980  0.0072  0.9160
 2255TIP3   OH228323   2.731   2.444   7.932  0.4241  0.6163  0.7604
 2255TIP3    H128324   2.732   2.350   7.918  0.4597  0.6778  0.3353
 2255TIP3    H228325   2.727   2.482   7.844  1.7490  1.0364  0.8654
 2256TIP3   OH228326   3.049   0.360   0.791  0.7511 -0.2321  0.1599
 2256TIP3    H128327   3.012   0.409   0.864  1.3278  0.8872 -0.2836
 2256TIP3    H228328   3.072   0.275   0.829  0.9766  0.2984  1.2526
 2257TIP3   OH228329   1.996   1.882   9.018 -0.3626  0.5304  0.5985
 2257TIP3    H128330   1.962   1.955   8.966 -0.4744  0.5729  0.7322
 2257TIP3    H228331   2.011   1.919   9.105 -3.8371 -0.4306  1.7667
 2258TIP3   OH228332   1.902   0.080   8.301  0.0943 -0.2512 -0.0897
 2258TIP3    H128333   1.899   0.005   8.361 -0.9009  1.0878  1.6690
 2258TIP3    H228334   1.983   0.125   8.324 -0.7345  0.7683  0.9826
 2259TIP3   OH228335   5.799   5.329   1.521  0.2474 -0.1671 -0.1059
 2259TIP3    H128336   5.827   5.380   1.445  0.3188 -0.1923 -0.0976
 2259TIP3    H228337   5.705   5.319   1.510  0.3879 -0.9750 -0.6894
 2260TIP3   OH228338   0.925   5.193   3.136  0.0933  0.8970 -0.1945
 2260TIP3    H128339   1.014   5.158   3.138  0.2570  1.2438 -1.0009
 2260TIP3    H228340   0.887   5.166   3.220  0.2682 -1.0555 -0.6940
 2261TIP3   OH228341   5.515   5.884   0.248  0.4646 -0.5097  0.1712
 2261TIP3    H128342   5.481   5.969   0.220 -0.6384 -1.4975 -1.5918
 2261TIP3    H228343   5.469   5.866   0.330 -0.0385  0.1206  0.0345
 2262TIP3   OH228344   6.280   1.858   1.148 -0.3479 -0.6720 -0.1917
 2262TIP3    H128345   6.293   1.903   1.065 -0.4075  1.4238  0.8684
 2262TIP3    H228346   6.310   1.768   1.132  4.3631  0.7956 -1.1937
 2263TIP3   OH228347   0.051   1.740   1.150  0.1855 -0.3023  0.0282
 2263TIP3    H128348   0.013   1.826   1.169  0.3364 -0.6830  2.2950
 2263TIP3    H228349   0.087   1.711   1.234  0.8290 -2.2473 -0.8787
 2264TIP3   OH228350   2.236   6.407   3.420 -0.2742 -0.6229  0.5653
 2264TIP3    H128351   2.199   6.364   3.343  0.7976 -0.3914 -0.1114
 2264TIP3    H228352   2.183   6.485   3.433  0.1507 -0.1268 -0.5782
 2265TIP3   OH228353   6.421   1.836   0.017  0.0261  0.3907 -0.0275
 2265TIP3    H128354   6.367   1.866  -0.056 -0.8621 -2.1588 -0.5347
 2265TIP3    H228355   6.478   1.910   0.038 -0.4385  1.5560 -2.5723
 2266TIP3   OH228356   3.549   2.662   1.436 -0.2756 -0.4495 -0.0119
 2266TIP3    H128357   3.514   2.602   1.370 -0.4206  0.1277 -0.4647
 2266TIP3    H228358   3.544   2.748   1.395 -0.0945 -0.1229  0.6442
 2267TIP3   OH228359   4.692   2.793   1.550  0.1368 -0.2928  0.4109
 2267TIP3    H128360   4.712   2.768   1.640 -2.3295 -0.7441  0.9073
 2267TIP3    H228361   4.644   2.718   1.514  1.6552 -0.4054 -1.5400
 2268TIP3   OH228362   6.442   4.976   0.511  0.8610 -0.3330 -0.1280
 2268TIP3    H128363   6.501   4.939   0.576  0.7989 -0.7884 -0.3213
 2268TIP3    H228364   6.384   4.903   0.488  0.9246 -0.1982 -0.7357
 2269TIP3   OH228365   4.980   1.070   1.735 -0.0506 -0.1489 -0.6736
 2269TIP3    H128366   4.911   1.124   1.774  1.5530  2.8060 -1.6270
 2269TIP3    H228367   5.019   1.125   1.668  1.2604 -2.8453 -2.3072
 2270TIP3   OH228368   3.974   3.916   2.231  0.2255  0.2965  0.6717
 2270TIP3    H128369   4.009   3.827   2.238  0.8945  0.6065  1.3500
 2270TIP3    H228370   4.045   3.972   2.261  0.3108  1.1742 -1.0662
 2271TIP3   OH228371   1.349   3.651   1.985 -0.6414 -0.2085 -0.4033
 2271TIP3    H128372   1.272   3.611   2.025 -0.7389  0.3170 -0.0511
 2271TIP3    H228373   1.321   3.677   1.898 -1.0116  0.4195 -0.1019
 2272TIP3   OH228374   6.160   0.432   7.063  0.0118  0.4576 -0.2308
 2272TIP3    H128375   6.102   0.356   7.054 -1.3297  1.0323  2.4690
 2272TIP3    H228376   6.226   0.420   6.996 -0.9284 -2.3896 -0.7758
 2273TIP3   OH228377   4.956   4.274   7.765 -0.3878 -0.3037 -0.1907
 2273TIP3    H128378   4.966   4.365   7.792 -1.4644 -0.6570  1.6118
 2273TIP3    H228379   4.863   4.255   7.778 -0.6095 -1.0859 -2.5516
 2274TIP3   OH228380   5.654   2.778   8.016  0.2756 -0.1428  0.0126
 2274TIP3    H128381   5.606   2.708   8.060  1.6180 -1.3112 -0.3145
 2274TIP3    H228382   5.624   2.858   8.059 -0.1237 -1.0440  1.4838
 2275TIP3   OH228383   4.448   1.380   0.933  0.4061 -0.1431 -1.1696
 2275TIP3    H128384   4.485   1.468   0.923  0.3487 -0.1990 -1.9023
 2275TIP3    H228385   4.517   1.330   0.977  0.3766  0.3032 -0.5998
 2276TIP3   OH228386   0.751   3.640   8.495  0.0700 -0.1727 -0.3932
 2276TIP3    H128387   0.794   3.723   8.516 -0.5896 -0.1587  1.0421
 2276TIP3    H228388   0.800   3.574   8.545  0.8843 -0.7516 -1.8866
 2277TIP3   OH228389   1.002   0.277   0.124  0.1369  0.1837 -0.3427
 2277TIP3    H128390   1.088   0.267   0.082 -0.5986 -1.5840 -1.5234
 2277TIP3    H228391   0.947   0.318   0.057 -0.5398 -0.8467 -0.4223
 2278TIP3   OH228392   0.183   3.990   8.289  0.3558 -0.3915 -0.0663
 2278TIP3    H128393   0.175   4.083   8.266 -1.8792 -0.3575  0.5848
 2278TIP3    H228394   0.206   3.990   8.382 -2.8791 -0.3669  0.8500
 2279TIP3   OH228395   1.500   6.182   0.103 -0.8082  0.2434 -0.0571
 2279TIP3    H128396   1.414   6.142   0.094 -0.7443  0.4386 -1.9870
 2279TIP3    H228397   1.559   6.123   0.057 -0.2099  1.0191 -0.3024
 2280TIP3   OH228398   4.335   4.748   2.626 -0.0877 -0.1784  0.0496
 2280TIP3    H128399   4.370   4.837   2.624 -0.0376 -0.1949  0.2313
 2280TIP3    H228400   4.390   4.699   2.565  1.6105 -0.7294  1.9236
 2281TIP3   OH228401   3.777   1.144   0.988 -0.0123 -0.4057  0.2275
 2281TIP3    H128402   3.690   1.105   0.998 -0.0365 -0.4922 -0.2782
 2281TIP3    H228403   3.768   1.202   0.912 -0.1881  1.1695  1.3976
 2282TIP3   OH228404   6.645   5.252   1.196 -0.5242  0.0213  0.2158
 2282TIP3    H128405   6.620   5.322   1.256  0.6865 -0.5509  1.4419
 2282TIP3    H228406   6.668   5.178   1.254 -1.6304 -1.3577 -1.0212
 2283TIP3   OH228407   6.040   0.731   2.782 -0.8529  0.1852 -0.5146
 2283TIP3    H128408   5.950   0.755   2.804 -0.6372  0.7316 -0.2208
 2283TIP3    H228409   6.036   0.636   2.767 -1.4329  0.1697 -0.2950
 2284TIP3   OH228410   6.479   6.690   1.681 -0.1006 -0.2989  0.4144
 2284TIP3    H128411   6.458   6.678   1.773 -0.5710  2.6920  0.8120
 2284TIP3    H228412   6.535   6.615   1.659  1.9925  0.0537  3.7917
 2285TIP3   OH228413   3.504   2.077   1.865 -0.5734 -0.7366  0.2476
 2285TIP3    H128414   3.567   2.013   1.897 -0.6272 -0.7525  0.3199
 2285TIP3    H228415   3.461   2.034   1.791  0.5292 -0.2011 -0.7461
 2286TIP3   OH228416   0.527   3.786   8.665 -0.1366  0.2032  0.4747
 2286TIP3    H128417   0.602   3.806   8.721  0.1264 -1.5287  0.7904
 2286TIP3    H228418   0.520   3.862   8.607  1.0925  0.9429  1.2500
 2287TIP3   OH228419   5.898   5.634   2.798 -0.5984 -0.9339 -0.4657
 2287TIP3    H128420   5.919   5.576   2.871  2.8645  0.6497 -0.0060
 2287TIP3    H228421   5.929   5.587   2.720  1.3005 -0.2317 -0.1923
 2288TIP3   OH228422   1.557   4.273   2.006  0.6187 -0.0206 -0.0058
 2288TIP3    H128423   1.583   4.225   1.928  0.2412  0.8131 -0.6574
 2288TIP3    H228424   1.581   4.364   1.988 -1.1873  0.4996  0.0396
 2289TIP3   OH228425   0.111   4.890   1.681  0.5440  0.7410 -0.1635
 2289TIP3    H128426   0.070   4.957   1.625 -0.3207  0.7632  0.4677
 2289TIP3    H228427   0.067   4.809   1.656 -1.6412  1.1067  2.1054
 2290TIP3   OH228428   6.014   3.800   1.883 -0.7334  0.2117  0.1703
 2290TIP3    H128429   6.021   3.793   1.788 -0.3938 -1.1990  0.2642
 2290TIP3    H228430   5.924   3.828   1.899 -0.0731  3.1177 -0.6203
 2291TIP3   OH228431   3.236   0.952   7.637 -0.5228  0.1424  0.2895
 2291TIP3    H128432   3.141   0.943   7.630 -0.6323  0.4341  1.2919
 2291TIP3    H228433   3.266   0.960   7.546 -1.3493 -0.9071 -0.1008
 2292TIP3   OH228434   1.401   5.612   8.085  0.4250  0.4154 -0.4071
 2292TIP3    H128435   1.386   5.585   7.995  2.2349  1.2395 -0.9992
 2292TIP3    H228436   1.448   5.539   8.125 -0.5160 -0.0167 -0.0597
 2293TIP3   OH228437   3.547   1.837   6.903 -0.2937  0.0220 -0.1290
 2293TIP3    H128438   3.567   1.767   6.840 -2.2817 -0.5962 -0.1367
 2293TIP3    H228439   3.622   1.838   6.962 -0.8767 -3.3309  0.9209
 2294TIP3   OH228440   2.493   1.412   8.852 -0.0641  0.3339 -0.3336
 2294TIP3    H128441   2.527   1.324   8.841 -0.5347 -0.0826  1.3279
 2294TIP3    H228442   2.501   1.430   8.945 -2.3923  1.0170 -0.1921
 2295TIP3   OH228443   2.824   1.213   1.622  0.7167  0.4120 -0.2416
 2295TIP3    H128444   2.908   1.257   1.613  0.6070  0.3153 -2.1058
 2295TIP3    H228445   2.785   1.251   1.701  1.7767  1.6719 -0.2991
 2296TIP3   OH228446   2.211   3.584   8.215  0.0596  0.4001  0.0169
 2296TIP3    H128447   2.230   3.491   8.227 -0.4820  0.2115 -0.5308
 2296TIP3    H228448   2.142   3.603   8.279 -0.3473  0.2440 -0.3714
 2297TIP3   OH228449   3.670   3.508   0.997 -0.5200 -0.6971 -0.3602
 2297TIP3    H128450   3.585   3.553   1.002  0.4249  1.3116 -0.9857
 2297TIP3    H228451   3.703   3.508   1.087 -1.0985 -1.3545 -0.1392
 2298TIP3   OH228452   3.742   3.311   1.858  0.2902  0.1412 -0.5100
 2298TIP3    H128453   3.704   3.368   1.925 -1.7267 -1.3514 -0.2888
 2298TIP3    H228454   3.824   3.354   1.834  1.1428  0.7149  2.9326
 2299TIP3   OH228455   2.530   6.241   8.304 -0.3342 -0.4498 -0.1696
 2299TIP3    H128456   2.614   6.196   8.299 -0.4776 -0.6877 -0.4720
 2299TIP3    H228457   2.508   6.241   8.397 -0.0808 -0.5333 -0.1087
 2300TIP3   OH228458   6.288   0.294   0.462  0.4671  0.3287 -0.4839
 2300TIP3    H128459   6.252   0.251   0.540  1.3204  0.1095 -0.2012
 2300TIP3    H228460   6.266   0.387   0.474 -1.3502  0.0092 -1.0787
 2301TIP3   OH228461   0.600   5.452   1.107  0.2634  0.3468  0.1049
 2301TIP3    H128462   0.643   5.384   1.159 -0.6577 -0.2003  0.1580
 2301TIP3    H228463   0.598   5.416   1.019  0.0604  0.4461  0.0706
 2302TIP3   OH228464   3.405   3.269   0.489  0.1867 -0.2804  0.2037
 2302TIP3    H128465   3.480   3.312   0.448  0.0342 -0.2451 -0.0415
 2302TIP3    H228466   3.329   3.305   0.443  0.0242 -0.3837  0.3891
 2303TIP3   OH228467   6.050   1.555   7.891  0.1012  0.0126 -0.1792
 2303TIP3    H128468   6.053   1.624   7.958 -0.8571 -0.0914 -0.0196
 2303TIP3    H228469   6.047   1.602   7.808 -0.8471  0.1722 -0.0604
 2304TIP3   OH228470   0.245   1.078   8.438 -0.1414  0.0396 -0.5376
 2304TIP3    H128471   0.287   1.001   8.400  0.7076  0.8227 -1.2055
 2304TIP3    H228472   0.193   1.043   8.510 -0.4066 -1.2567 -1.3304
 2305TIP3   OH228473   0.238   5.541   2.025 -0.1739  0.9913  0.4698
 2305TIP3    H128474   0.180   5.470   2.054  0.0347  1.5575  2.4134
 2305TIP3    H228475   0.321   5.524   2.070  1.1143  0.4276 -1.9442
 2306TIP3   OH228476   1.769   0.881   2.206  0.1209  0.2416  0.3291
 2306TIP3    H128477   1.748   0.908   2.296  0.0006  1.3017 -0.0063
 2306TIP3    H228478   1.689   0.898   2.156  0.0815 -0.6465  0.0686
 2307TIP3   OH228479   3.605   2.643   0.349  0.1017  0.0883  0.1727
 2307TIP3    H128480   3.613   2.631   0.255  0.3916  1.3000  0.0264
 2307TIP3    H228481   3.654   2.724   0.367 -0.9072  0.4972  1.1896
 2308TIP3   OH228482   0.843   2.492   1.963 -0.1810 -0.0446 -0.0401
 2308TIP3    H128483   0.838   2.501   2.058  0.9186  0.4725 -0.0123
 2308TIP3    H228484   0.901   2.417   1.950 -0.1739  0.0061 -0.2963
 2309TIP3   OH228485   1.212   0.758   0.409 -0.3315  0.2261 -0.3176
 2309TIP3    H128486   1.223   0.816   0.334  0.1302  0.6842  0.0940
 2309TIP3    H228487   1.141   0.698   0.384 -0.3730  0.5564 -0.9975
 2310TIP3   OH228488   0.559   4.543   7.465  0.0684  0.1299  0.2891
 2310TIP3    H128489   0.531   4.453   7.446 -2.5371  0.6738  1.1649
 2310TIP3    H228490   0.479   4.587   7.492  1.8363  1.8967  3.0222
 2311TIP3   OH228491   2.696   1.149   7.289  0.0404  0.3506 -0.2929
 2311TIP3    H128492   2.787   1.122   7.304 -0.5854 -1.2081  1.0965
 2311TIP3    H228493   2.695   1.181   7.199  1.6506 -1.0990 -0.8943
 2312TIP3   OH228494   0.579   0.437   2.066 -0.4042 -0.1706 -0.2859
 2312TIP3    H128495   0.555   0.515   2.017 -0.0734  0.5438  0.6602
 2312TIP3    H228496   0.661   0.407   2.025 -0.6082 -0.1166 -0.7425
 2313TIP3   OH228497   5.387   3.164   7.761 -0.0527 -0.5450 -0.1518
 2313TIP3    H128498   5.464   3.129   7.806  0.9298  0.5718 -0.9321
 2313TIP3    H228499   5.415   3.248   7.726 -2.1785  0.7849  1.1282
 2314TIP3   OH228500   2.183   2.237   1.354 -0.2875  0.0736  0.3794
 2314TIP3    H128501   2.140   2.206   1.433  1.9378 -0.6223  1.3972
 2314TIP3    H228502   2.166   2.331   1.353 -2.6314 -0.2999  0.1420
 2315TIP3   OH228503   3.649   0.405   1.852 -0.5370  0.2345 -0.2006
 2315TIP3    H128504   3.648   0.365   1.939 -0.3406 -2.0642 -1.1666
 2315TIP3    H228505   3.559   0.398   1.822 -0.4813  0.4309 -0.4123
 2316TIP3   OH228506   1.942   0.874   0.175  0.2844  0.2539  0.0088
 2316TIP3    H128507   2.008   0.808   0.194  0.6533  0.1775 -1.4358
 2316TIP3    H228508   1.988   0.940   0.123  0.1420  2.1004  2.1111
 2317TIP3   OH228509   4.298   5.077   9.032 -0.0048 -0.5322 -0.1728
 2317TIP3    H128510   4.368   5.065   8.968 -0.2698 -1.8140 -0.2415
 2317TIP3    H228511   4.319   5.160   9.075  1.4656 -0.8208 -0.2892
 2318TIP3   OH228512   2.283   5.562   1.530  0.3220 -0.2358 -0.2089
 2318TIP3    H128513   2.203   5.523   1.497  0.3725  0.0043 -0.6196
 2318TIP3    H228514   2.262   5.655   1.541  0.9659  0.1239 -1.7273
 2319TIP3   OH228515   1.668   5.459   0.702  0.2929 -0.1926  0.0802
 2319TIP3    H128516   1.611   5.397   0.747  0.4527  0.9701  2.0051
 2319TIP3    H228517   1.610   5.508   0.644 -0.6423  0.5610  1.5661
 2320TIP3   OH228518   1.611   5.625   2.498  0.1255 -0.3302 -0.5850
 2320TIP3    H128519   1.668   5.676   2.441  0.2644  1.0950  0.7776
 2320TIP3    H228520   1.531   5.677   2.504 -0.5017 -1.2540 -0.7282
 2321TIP3   OH228521   2.860   0.475   0.971  0.3123 -0.0482  0.2584
 2321TIP3    H128522   2.845   0.425   1.052 -1.3332  0.7796  0.5055
 2321TIP3    H228523   2.777   0.469   0.924  0.4288  1.5556 -0.1979
 2322TIP3   OH228524   4.323   4.480   1.425  0.1436 -0.5362 -0.3798
 2322TIP3    H128525   4.406   4.446   1.458  0.6379 -1.0296 -2.0431
 2322TIP3    H228526   4.272   4.499   1.504  1.6501 -0.6528  0.6672
 2323TIP3   OH228527   4.815   2.134   1.278  0.9486  0.0175 -0.1030
 2323TIP3    H128528   4.832   2.055   1.329  0.7259  0.3657  0.5218
 2323TIP3    H228529   4.900   2.177   1.271  0.9192  0.1417  0.2766
 2324TIP3   OH228530   3.768   3.395   8.252 -0.0420 -0.6647  0.1807
 2324TIP3    H128531   3.816   3.384   8.170 -1.2657 -2.8921 -0.3168
 2324TIP3    H228532   3.819   3.347   8.317 -0.0077 -0.4265  0.3295
 2325TIP3   OH228533   6.426   6.223   0.019  0.3487 -0.7643  0.4328
 2325TIP3    H128534   6.515   6.258   0.012  0.0357  0.8537  3.2489
 2325TIP3    H228535   6.370   6.301   0.017 -0.8359 -1.5908  0.7886
 2326TIP3   OH228536   1.014   2.818   1.291  0.1891 -0.1609  0.3889
 2326TIP3    H128537   1.087   2.767   1.256 -0.0771  1.3325 -2.7390
 2326TIP3    H228538   0.988   2.874   1.218 -1.2863  2.4704  2.7480
 2327TIP3   OH228539   3.824   3.139   1.634  0.0404 -0.1313  0.2723
 2327TIP3    H128540   3.830   3.139   1.729  0.3745  0.3980  0.2537
 2327TIP3    H228541   3.752   3.200   1.614  0.2261  0.0573  0.1735
 2328TIP3   OH228542   5.141   3.152   7.921  0.0899 -0.3635 -0.3595
 2328TIP3    H128543   5.185   3.105   7.991  0.8391  0.7067 -0.0872
 2328TIP3    H228544   5.206   3.159   7.851  0.7144  1.9619  0.3694
 2329TIP3   OH228545   3.245   5.422   1.561  0.3338  0.2929  0.1603
 2329TIP3    H128546   3.286   5.338   1.581  0.8738 -0.0600 -2.1194
 2329TIP3    H228547   3.302   5.487   1.602  0.1260 -0.3907  1.6097
 2330TIP3   OH228548   2.665   1.494   7.670 -0.2770  0.4479  0.1665
 2330TIP3    H128549   2.752   1.481   7.633  0.3430  1.3293  1.2249
 2330TIP3    H228550   2.621   1.410   7.661  1.0107 -0.2693  0.4284
 2331TIP3   OH228551   1.244   6.565   8.051  0.6591  0.1991  0.1358
 2331TIP3    H128552   1.187   6.488   8.050  1.1654 -0.2003  1.0950
 2331TIP3    H228553   1.196   6.630   7.999 -0.2585 -0.4188  0.1755
 2332TIP3   OH228554   0.559   4.127   0.277  0.0623  0.4688 -0.5117
 2332TIP3    H128555   0.648   4.159   0.292 -0.0399 -0.2968  2.3994
 2332TIP3    H228556   0.526   4.108   0.364 -3.2259  1.3033 -1.4623
 2333TIP3   OH228557   0.252   1.719   0.289 -0.6860 -0.3869  0.2421
 2333TIP3    H128558   0.332   1.770   0.293 -0.9177 -0.0785  1.1285
 2333TIP3    H228559   0.236   1.707   0.195 -1.4505  2.4846 -0.0761
 2334TIP3   OH228560   5.397   4.883   2.223 -0.8512  0.7173  0.1681
 2334TIP3    H128561   5.323   4.853   2.277 -1.4726 -0.2094 -1.1468
 2334TIP3    H228562   5.360   4.953   2.169 -0.3396  1.3501  0.6210
 2335TIP3   OH228563   2.446   4.941   0.528 -0.1741 -0.0258  0.9777
 2335TIP3    H128564   2.483   4.861   0.565  0.7835 -0.5785 -1.0715
 2335TIP3    H228565   2.518   4.983   0.482 -0.4275  2.5245  2.6757
 2336TIP3   OH228566   2.025   6.377   1.362  0.5623 -0.2166 -0.5752
 2336TIP3    H128567   1.967   6.387   1.287 -3.1964  1.2249  2.1963
 2336TIP3    H228568   2.046   6.467   1.387  0.2851 -0.5782  1.0539
 2337TIP3   OH228569   2.542   4.838   0.909 -0.1151  0.1844  0.3656
 2337TIP3    H128570   2.469   4.887   0.949 -0.1215 -0.1370  0.7498
 2337TIP3    H228571   2.608   4.833   0.978 -0.6036 -1.4165  0.7561
 2338TIP3   OH228572   5.343   2.669   1.882  0.2839 -0.5730 -0.2348
 2338TIP3    H128573   5.378   2.757   1.867 -1.9646  0.5459  0.5217
 2338TIP3    H228574   5.288   2.652   1.806  0.3679 -1.1569 -0.1670
 2339TIP3   OH228575   2.346   5.033   7.281 -0.3292  0.0345  0.0138
 2339TIP3    H128576   2.411   5.092   7.318  0.8378 -0.3229 -1.3428
 2339TIP3    H228577   2.266   5.051   7.329  0.0521  2.4894 -0.1342
 2340TIP3   OH228578   5.589   5.415   8.677 -0.1886 -0.5982  0.4149
 2340TIP3    H128579   5.522   5.418   8.608  0.1777  0.7571  0.0844
 2340TIP3    H228580   5.672   5.413   8.629  0.0577 -3.2711  0.8026
 2341TIP3   OH228581   3.201   5.823   8.258 -0.5892 -0.0535 -0.4002
 2341TIP3    H128582   3.189   5.736   8.220 -0.9409 -0.5383  0.7923
 2341TIP3    H228583   3.163   5.817   8.345  3.3076 -0.0847  1.5483
 2342TIP3   OH228584   2.325   1.292   1.082  0.1965  0.2236  0.2827
 2342TIP3    H128585   2.346   1.385   1.088 -0.9760  0.5421 -0.2843
 2342TIP3    H228586   2.379   1.250   1.149  0.0512  1.4317  1.1738
 2343TIP3   OH228587   0.594   1.455   2.336 -0.4684  0.5019  0.1963
 2343TIP3    H128588   0.676   1.418   2.367 -0.3491  1.1031  0.6032
 2343TIP3    H228589   0.620   1.517   2.268 -0.4568  1.7572  1.3043
 2344TIP3   OH228590   1.873   4.924   8.534  0.5121 -0.3048  0.1883
 2344TIP3    H128591   1.860   5.009   8.576  1.1708 -0.9356  1.7310
 2344TIP3    H228592   1.967   4.918   8.521  0.5291 -1.0019  0.5734
 2345TIP3   OH228593   2.013   5.330   1.569  0.9150  0.1719  0.4755
 2345TIP3    H128594   2.062   5.307   1.648 -0.4672  0.4282  1.4459
 2345TIP3    H228595   1.962   5.407   1.594  1.8756  1.4462 -1.2773
 2346TIP3   OH228596   0.381   1.457   8.669  0.0780  0.3500 -0.1175
 2346TIP3    H128597   0.334   1.390   8.620 -0.8556 -0.4907  1.8547
 2346TIP3    H228598   0.404   1.523   8.603 -3.0407  0.3587 -1.3353
 2347TIP3   OH228599   5.129   6.199   1.809  0.3037  0.1714  0.0051
 2347TIP3    H128600   5.051   6.144   1.813  0.1720  0.3489 -0.1262
 2347TIP3    H228601   5.110   6.271   1.870  0.9740 -0.5615  1.1272
 2348TIP3   OH228602   5.926   4.090   8.942 -0.0664 -0.5695 -0.4206
 2348TIP3    H128603   5.954   4.156   8.877 -0.8604  1.4668  1.1968
 2348TIP3    H228604   5.832   4.104   8.950  0.0942 -0.4296  1.5140
 2349TIP3   OH228605   5.855   0.159   2.482  0.2844  0.0010 -0.5157
 2349TIP3    H128606   5.838   0.157   2.576  0.8432  0.0872 -0.4105
 2349TIP3    H228607   5.841   0.250   2.456 -0.0572 -0.0595 -0.5578
 2350TIP3   OH228608   0.853   2.161   0.128  0.4761 -0.1380 -0.0143
 2350TIP3    H128609   0.809   2.240   0.097  0.1025 -0.7995 -1.2753
 2350TIP3    H228610   0.804   2.134   0.205 -0.3194  0.0313 -0.4563
 2351TIP3   OH228611   6.388   4.703   7.781  0.0819  0.0891 -0.4463
 2351TIP3    H128612   6.373   4.727   7.690 -0.8799 -0.9954 -0.5993
 2351TIP3    H228613   6.308   4.731   7.826 -1.0547 -2.5659 -0.6133
 2352TIP3   OH228614   2.542   4.990   1.798 -0.1670 -0.5409 -0.3182
 2352TIP3    H128615   2.513   5.053   1.733  0.8778  1.6505  1.2179
 2352TIP3    H228616   2.499   4.908   1.773 -0.9738  0.5516 -2.8378
 2353TIP3   OH228617   1.827   5.031   0.226  0.1123  0.0215  0.4364
 2353TIP3    H128618   1.887   4.980   0.170 -1.2426 -0.6033 -0.4990
 2353TIP3    H228619   1.773   5.080   0.165 -0.5320  0.3498  1.2571
 2354TIP3   OH228620   6.695   2.320   1.227  0.3704 -0.0590 -0.2027
 2354TIP3    H128621   6.775   2.359   1.192  0.5045  0.8089  1.0055
 2354TIP3    H228622   6.708   2.318   1.322 -0.9533 -0.0829  0.0057
 2355TIP3   OH228623   5.434   0.586   8.156  0.3850  0.1304  0.4822
 2355TIP3    H128624   5.410   0.518   8.219 -1.1450 -0.1192 -0.3247
 2355TIP3    H228625   5.369   0.579   8.087 -0.2120  2.8145  0.6686
 2356TIP3   OH228626   5.501   4.410   7.919  0.6765 -0.0602 -0.0332
 2356TIP3    H128627   5.526   4.437   8.007 -1.1745 -0.5949  0.7031
 2356TIP3    H228628   5.405   4.420   7.917  0.8117  1.6567 -2.5869
 2357TIP3   OH228629   3.265   0.096   1.305 -0.3769  0.5691 -0.0611
 2357TIP3    H128630   3.232   0.171   1.254 -1.0325 -0.4746 -1.2207
 2357TIP3    H228631   3.205   0.025   1.283  2.3792 -1.3436 -1.9930
 2358TIP3   OH228632   6.631   3.951   8.048 -0.1570 -0.0741 -0.2338
 2358TIP3    H128633   6.684   3.939   8.127 -0.0443  1.3097 -0.0703
 2358TIP3    H228634   6.660   3.882   7.989  3.8594  2.1243 -1.2090
 2359TIP3   OH228635   5.767   1.147   7.537 -0.3961 -0.3453  0.2361
 2359TIP3    H128636   5.840   1.195   7.499 -0.9847  0.2846 -0.1298
 2359TIP3    H228637   5.720   1.112   7.461 -0.3855 -0.8867  0.4748
 2360TIP3   OH228638   0.521   4.847   2.001  0.1974  0.0707  0.2299
 2360TIP3    H128639   0.586   4.785   2.035 -0.3183  0.1584  1.4375
 2360TIP3    H228640   0.449   4.791   1.971  1.5110 -0.1487 -2.8310
 2361TIP3   OH228641   2.938   3.997   8.385  1.4833  0.4631 -0.1592
 2361TIP3    H128642   2.893   4.079   8.361  0.6065  0.5520  1.6135
 2361TIP3    H228643   2.868   3.940   8.417  2.3775 -0.1539  0.7535
 2362TIP3   OH228644   5.228   6.372   1.203  0.2576 -0.3175  0.1178
 2362TIP3    H128645   5.216   6.282   1.231 -0.1234 -0.3531 -0.1630
 2362TIP3    H228646   5.235   6.367   1.107 -0.6980  0.0465  0.0185
 2363TIP3   OH228647   1.446   0.328   2.233  0.1210 -0.7470 -0.1921
 2363TIP3    H128648   1.453   0.318   2.328 -1.0751 -0.9845 -0.1165
 2363TIP3    H228649   1.493   0.253   2.197  0.6548 -0.6080  0.2079
 2364TIP3   OH228650   4.832   3.709   1.595 -0.3004  0.0923  0.6836
 2364TIP3    H128651   4.921   3.707   1.560  0.1918  1.2310  1.8084
 2364TIP3    H228652   4.829   3.787   1.651 -2.4904  1.0376 -0.5979
 2365TIP3   OH228653   0.283   1.762   7.837 -0.0394 -0.1441  0.1578
 2365TIP3    H128654   0.206   1.783   7.890  0.9605  1.3613  1.1034
 2365TIP3    H228655   0.266   1.805   7.753 -1.4393 -2.1768 -0.6609
 2366TIP3   OH228656   3.631   2.190   7.505 -0.0617  0.0164  0.8937
 2366TIP3    H128657   3.555   2.179   7.447  0.3937 -1.0889  0.4754
 2366TIP3    H228658   3.685   2.256   7.462 -0.4162  0.2427  0.7951
 2367TIP3   OH228659   5.714   6.049   1.778  0.0531 -0.2424  0.7885
 2367TIP3    H128660   5.661   6.048   1.698 -1.3313  0.3529  1.6609
 2367TIP3    H228661   5.658   6.008   1.844  0.9400 -0.1783  1.5966
 2368TIP3   OH228662   0.900   3.349   8.830  0.0858  0.1215  0.6325
 2368TIP3    H128663   0.824   3.321   8.778  1.5728  2.3577 -3.1669
 2368TIP3    H228664   0.865   3.418   8.887 -0.7587  1.4981 -1.4356
 2369TIP3   OH228665   3.893   1.025   7.887  0.3437 -0.5655 -0.3096
 2369TIP3    H128666   3.923   1.108   7.924  0.7263 -0.6194 -0.4923
 2369TIP3    H228667   3.973   0.974   7.874  0.0249 -1.3597  0.7388
 2370TIP3   OH228668   4.573   4.946   2.369  0.2231 -0.1176  0.0263
 2370TIP3    H128669   4.514   4.946   2.444 -0.6656 -0.4819 -0.6528
 2370TIP3    H228670   4.520   4.980   2.297  0.7561 -0.7061 -0.6615
 2371TIP3   OH228671   0.932   6.021   0.482  0.0246 -0.0285  0.5553
 2371TIP3    H128672   0.943   6.072   0.563  0.3025  0.8765 -0.0441
 2371TIP3    H228673   0.875   5.948   0.508 -1.1341  1.0656  1.2296
 2372TIP3   OH228674   3.149   5.223   1.293  0.3555 -0.4166 -0.1613
 2372TIP3    H128675   3.125   5.299   1.346 -0.4731 -1.3302  0.8090
 2372TIP3    H228676   3.068   5.197   1.250  0.7787 -0.3751 -1.0058
 2373TIP3   OH228677   3.442   5.965   8.209 -0.6658 -0.1469  0.1649
 2373TIP3    H128678   3.350   5.938   8.219 -0.4924 -0.4748  0.9515
 2373TIP3    H228679   3.437   6.046   8.158 -1.2487 -1.2104 -1.5354
 2374TIP3   OH228680   6.308   4.621   0.506 -0.3432  0.1335  0.0463
 2374TIP3    H128681   6.304   4.595   0.598 -3.4243 -0.7994 -0.2329
 2374TIP3    H228682   6.295   4.540   0.457  0.9394  0.6613 -1.2465
 2375TIP3   OH228683   0.477   1.710   2.107 -0.1239 -0.3744 -0.3673
 2375TIP3    H128684   0.433   1.792   2.130  0.0440 -0.4964  0.3856
 2375TIP3    H228685   0.405   1.650   2.088 -0.2721 -0.3751  0.1822
 2376TIP3   OH228686   4.747   0.238   1.451  0.5364 -0.4453  0.2111
 2376TIP3    H128687   4.666   0.276   1.484  1.3731  0.3152  1.4639
 2376TIP3    H228688   4.758   0.157   1.501 -0.2365 -1.4051 -1.0882
 2377TIP3   OH228689   5.677   1.518   7.707  0.4011 -0.5047  0.5086
 2377TIP3    H128690   5.666   1.583   7.776 -3.2785 -0.9883  0.5858
 2377TIP3    H228691   5.587   1.496   7.680  1.6029 -2.3411 -2.5458
 2378TIP3   OH228692   5.657   2.864   0.091  1.1550 -0.2033 -0.0291
 2378TIP3    H128693   5.652   2.816   0.174 -0.2861 -0.0739 -0.0171
 2378TIP3    H228694   5.580   2.921   0.092  1.1021 -0.2263 -1.4766
 2379TIP3   OH228695   3.331   5.619   7.467 -0.4498 -0.0119 -0.3973
 2379TIP3    H128696   3.342   5.703   7.511 -0.2644  0.3024 -1.0218
 2379TIP3    H228697   3.383   5.627   7.387 -0.2582 -0.8047 -0.3561
 2380TIP3   OH228698   1.449   1.994   1.172  0.1474 -0.5577 -0.6888
 2380TIP3    H128699   1.456   2.025   1.082 -2.5143 -0.2854 -0.8946
 2380TIP3    H228700   1.435   1.899   1.164 -1.7064 -0.3173 -0.7241
 2381TIP3   OH228701   0.250   5.217   7.920 -0.4463  0.4027  0.0197
 2381TIP3    H128702   0.325   5.221   7.979  1.0072  2.0627 -1.8035
 2381TIP3    H228703   0.225   5.125   7.918  0.6398  0.0300  1.7431
 2382TIP3   OH228704   0.247   3.567   8.222  0.0294  0.2438  0.1705
 2382TIP3    H128705   0.308   3.635   8.197 -0.5538  0.5884 -0.3473
 2382TIP3    H228706   0.275   3.489   8.174  1.6731 -0.3528  1.9881
 2383TIP3   OH228707   0.135   3.078   7.169  0.4241 -0.2415  0.4278
 2383TIP3    H128708   0.145   3.118   7.083  0.2716  0.0102  0.5247
 2383TIP3    H228709   0.053   3.029   7.164  0.4342 -0.2571  0.4163
 2384TIP3   OH228710   0.438   3.370   8.997 -0.0082 -0.0588  0.5840
 2384TIP3    H128711   0.461   3.463   8.991 -1.8491  0.4635  0.9277
 2384TIP3    H228712   0.429   3.342   8.906 -1.2509  0.6139  0.4773
 2385TIP3   OH228713   0.997   2.781   1.866  0.2907 -0.0975 -0.1504
 2385TIP3    H128714   1.011   2.873   1.846 -0.5196 -0.4833 -2.8005
 2385TIP3    H228715   1.047   2.767   1.947  1.2829  2.3895 -0.2366
 2386TIP3   OH228716   6.327   2.009   2.221 -0.5574 -0.3429 -0.2709
 2386TIP3    H128717   6.241   2.048   2.210 -0.6291 -0.7098 -1.1448
 2386TIP3    H228718   6.387   2.083   2.231 -0.6899  0.0189 -1.8844
 2387TIP3   OH228719   0.483   6.366   0.371 -0.5132 -0.0862 -0.8608
 2387TIP3    H128720   0.556   6.321   0.412 -0.0182 -0.6442 -2.2919
 2387TIP3    H228721   0.516   6.453   0.350 -1.0035  0.4664  0.5558
 2388TIP3   OH228722   3.478   4.462   8.794  0.0207  0.1766 -0.7735
 2388TIP3    H128723   3.415   4.403   8.836  1.0576 -0.6463 -0.3597
 2388TIP3    H228724   3.529   4.498   8.866  1.0126 -0.3173 -1.2100
 2389TIP3   OH228725   3.898   1.094   0.739 -0.6419 -0.2201 -0.6565
 2389TIP3    H128726   3.909   1.011   0.786  1.0263 -0.0966 -0.7864
 2389TIP3    H228727   3.968   1.150   0.773  0.1768  0.1101 -2.7651
 2390TIP3   OH228728   4.245   3.287   0.338 -0.3337 -0.7149  0.0611
 2390TIP3    H128729   4.284   3.363   0.382  0.5746 -0.1555 -1.6198
 2390TIP3    H228730   4.151   3.303   0.341 -0.1134  2.1989 -2.9998
 2391TIP3   OH228731   2.124   5.761   3.566  0.4479  0.2329 -0.2451
 2391TIP3    H128732   2.210   5.740   3.531  0.7418  0.3422  0.4036
 2391TIP3    H228733   2.112   5.855   3.548  0.6495  0.3163  0.0464
 2392TIP3   OH228734   0.157   0.728   1.455  0.3679 -0.0919  0.0009
 2392TIP3    H128735   0.198   0.733   1.369 -0.2526 -0.6639 -0.3369
 2392TIP3    H228736   0.196   0.650   1.496  0.2655 -0.1307  0.0251
 2393TIP3   OH228737   1.978   2.807   9.085  0.1750  0.1225 -0.2726
 2393TIP3    H128738   1.975   2.873   9.016  1.1154  2.0129  1.3793
 2393TIP3    H228739   1.892   2.812   9.127  0.4165  0.7145  0.1732
 2394TIP3   OH228740   0.378   0.919   7.905  0.0650 -0.5177 -0.1672
 2394TIP3    H128741   0.325   0.869   7.844  0.0052 -1.6209  0.7486
 2394TIP3    H228742   0.323   0.929   7.983 -0.3459  1.9709 -0.7014
 2395TIP3   OH228743   5.918   4.099   0.464 -0.0101 -0.3734 -0.0958
 2395TIP3    H128744   5.999   4.048   0.462  1.1241  1.3620 -1.4195
 2395TIP3    H228745   5.889   4.101   0.373 -1.7873 -1.2494  0.4018
 2396TIP3   OH228746   0.624   5.723   1.789 -0.3562 -0.2338 -0.3147
 2396TIP3    H128747   0.550   5.663   1.779  0.9145 -1.5194 -3.0135
 2396TIP3    H228748   0.700   5.673   1.758  1.2947  1.7620  0.2833
 2397TIP3   OH228749   6.282   0.115   7.197 -0.5417  0.0755  0.1349
 2397TIP3    H128750   6.316   0.074   7.277  1.8478  1.3748 -0.1353
 2397TIP3    H228751   6.261   0.042   7.139  0.2279 -0.8294  0.9705
 2398TIP3   OH228752   3.986   1.882   8.718  0.0957  0.3715 -0.4307
 2398TIP3    H128753   3.979   1.902   8.811 -0.5481  0.6925 -0.5434
 2398TIP3    H228754   3.923   1.940   8.676 -0.3029 -0.4404 -0.9773
 2399TIP3   OH228755   2.658   5.415   2.463 -0.4673 -0.1377  0.4180
 2399TIP3    H128756   2.618   5.360   2.396 -0.6292 -0.4381  0.7527
 2399TIP3    H228757   2.737   5.368   2.489  0.0121  0.3579 -0.1021
 2400TIP3   OH228758   0.860   0.213   8.785 -0.2295 -0.4505  0.2042
 2400TIP3    H128759   0.883   0.179   8.871 -0.1760 -2.1545 -0.4478
 2400TIP3    H228760   0.938   0.259   8.755 -0.2293  0.0963  1.0265
 2401TIP3   OH228761   5.959   1.587   6.780 -0.8061 -0.1393 -0.2521
 2401TIP3    H128762   6.010   1.645   6.835 -2.0228  0.8665 -0.1516
 2401TIP3    H228763   6.024   1.531   6.737  0.3548  1.0463 -0.0759
 2402TIP3   OH228764   2.182   3.006   7.640 -0.2116 -0.3935  0.5547
 2402TIP3    H128765   2.176   3.023   7.546 -1.8830 -1.9586  0.3376
 2402TIP3    H228766   2.228   3.082   7.675  1.5967 -0.3526 -1.6765
 2403TIP3   OH228767   3.544   6.633   0.808  0.0517 -0.1627  0.2712
 2403TIP3    H128768   3.561   6.693   0.880 -2.2061  0.2080  0.5538
 2403TIP3    H228769   3.587   6.551   0.834 -0.1508  0.1636  1.7109
 2404TIP3   OH228770   6.326   0.850   7.397 -0.0847  0.0722 -0.0988
 2404TIP3    H128771   6.355   0.841   7.306 -1.4024  0.7573 -0.6213
 2404TIP3    H228772   6.311   0.760   7.426  0.0525 -0.1433 -0.6751
 2405TIP3   OH228773   4.901   5.358   1.813  0.6018  0.1864  0.1341
 2405TIP3    H128774   4.810   5.336   1.792  0.6915 -1.3227  1.2141
 2405TIP3    H228775   4.952   5.315   1.744  0.5665 -0.1306  0.3024
 2406TIP3   OH228776   5.801   5.439   8.197 -0.2367  0.1893 -0.1850
 2406TIP3    H128777   5.715   5.479   8.210 -0.8992 -1.2891  0.1448
 2406TIP3    H228778   5.856   5.478   8.265 -1.2563 -0.5433  1.1070
 2407TIP3   OH228779   2.668   5.195   8.238  0.5407  0.6125  0.2814
 2407TIP3    H128780   2.739   5.253   8.211  0.8106  0.2546  0.2042
 2407TIP3    H228781   2.667   5.200   8.333  0.6646  0.6259  0.2812
 2408TIP3   OH228782   2.333   2.354   2.365  0.5119  0.3715  0.0299
 2408TIP3    H128783   2.347   2.260   2.376  3.7935  0.8421  0.9975
 2408TIP3    H228784   2.276   2.379   2.438 -0.5486 -0.8322 -0.3401
 2409TIP3   OH228785   4.715   4.234   7.568  0.4141 -0.1721 -0.6490
 2409TIP3    H128786   4.787   4.273   7.518  0.7012 -1.6692 -1.4484
 2409TIP3    H228787   4.651   4.305   7.576  2.0022  1.2408  0.2011
 2410TIP3   OH228788   6.268   3.746   1.523  0.4609  0.7689  0.7696
 2410TIP3    H128789   6.284   3.840   1.530 -1.2348  1.1324  0.1932
 2410TIP3    H228790   6.175   3.736   1.545  0.3031 -0.6055 -0.4038
 2411TIP3   OH228791   3.246   1.035   0.314  0.3698  0.0033  0.5794
 2411TIP3    H128792   3.214   1.012   0.401 -1.8244  0.4423 -0.0651
 2411TIP3    H228793   3.329   1.081   0.330 -0.7439  1.4528  2.5406
 2412TIP3   OH228794   2.799   6.540   1.986 -0.2020 -0.1796  0.0406
 2412TIP3    H128795   2.729   6.495   1.938 -0.5632  0.7360 -0.3039
 2412TIP3    H228796   2.878   6.490   1.964 -0.5513 -0.4809 -0.5568
 2413TIP3   OH228797   5.678   0.435   1.647  0.0884  0.9915 -0.4578
 2413TIP3    H128798   5.715   0.510   1.601 -0.7925  1.5085 -0.3565
 2413TIP3    H228799   5.728   0.429   1.729  0.5679  1.0893 -0.7444
 2414TIP3   OH228800   3.773   5.234   2.154  0.8996 -0.4783 -0.0856
 2414TIP3    H128801   3.697   5.292   2.161  0.1470 -1.4464  0.0001
 2414TIP3    H228802   3.765   5.195   2.066  1.6032 -0.1762 -0.2869
 2415TIP3   OH228803   2.724   0.455   1.249 -0.1984  0.2397  0.0052
 2415TIP3    H128804   2.693   0.539   1.217  0.3316  0.4131 -0.0571
 2415TIP3    H228805   2.812   0.472   1.281 -0.2055 -0.2247  0.2812
 2416TIP3   OH228806   6.522   1.881   8.095 -0.0574 -0.0668  0.0289
 2416TIP3    H128807   6.479   1.949   8.146  0.2450 -0.4729  0.8431
 2416TIP3    H228808   6.519   1.913   8.004 -1.5158  0.1850  0.1556
 2417TIP3   OH228809   6.257   1.282   2.391  0.1968  0.1809  0.0170
 2417TIP3    H128810   6.291   1.253   2.307  1.7281  0.4315  0.5221
 2417TIP3    H228811   6.335   1.307   2.441 -0.4697 -1.7043  2.1789
 2418TIP3   OH228812   1.197   6.267   3.308 -0.3425 -0.6559  0.4548
 2418TIP3    H128813   1.267   6.331   3.321  0.7766 -1.6156 -0.6219
 2418TIP3    H228814   1.231   6.186   3.345 -0.0761 -1.5948 -1.7014
 2419TIP3   OH228815   0.806   0.391   2.311  0.1621  0.2713 -0.0313
 2419TIP3    H128816   0.890   0.346   2.301  0.1899  0.6006 -1.6627
 2419TIP3    H228817   0.789   0.429   2.225 -3.3353 -2.6748 -0.9183
 2420TIP3   OH228818   6.293   5.015   6.700  0.2162 -0.6219  0.5729
 2420TIP3    H128819   6.316   4.936   6.750 -2.6429 -0.7307  1.8995
 2420TIP3    H228820   6.265   5.078   6.767 -0.7798  0.3140 -0.6844
 2421TIP3   OH228821   6.346   1.786   1.835 -0.1535 -0.0251  0.0105
 2421TIP3    H128822   6.365   1.879   1.822  2.9444 -0.8141 -2.2151
 2421TIP3    H228823   6.300   1.760   1.756  1.9590 -0.9707 -0.9868
 2422TIP3   OH228824   2.799   6.701   0.733 -0.0579  0.3562  0.0334
 2422TIP3    H128825   2.835   6.741   0.654  0.7999  0.5926  0.5275
 2422TIP3    H228826   2.873   6.655   0.773 -0.7609 -0.7438  0.0959
 2423TIP3   OH228827   4.374   5.058   1.551 -0.2542  0.2903  0.0737
 2423TIP3    H128828   4.409   5.006   1.624  1.3017  0.7776 -0.2923
 2423TIP3    H228829   4.372   4.998   1.477 -2.2891 -0.3455  0.5617
 2424TIP3   OH228830   0.255   5.078   1.848  0.4540 -0.1927  0.9166
 2424TIP3    H128831   0.231   5.006   1.790 -0.8853  0.0130  1.1917
 2424TIP3    H228832   0.294   5.143   1.790  0.2579 -0.4999  0.4305
 2425TIP3   OH228833   3.559   0.066   1.991  0.4413 -0.0449 -0.2331
 2425TIP3    H128834   3.522  -0.007   2.041 -0.9473 -0.1277 -1.3293
 2425TIP3    H228835   3.518   0.143   2.028  0.9331  0.0844  0.0606
 2426TIP3   OH228836   3.801   3.258   1.208  0.6027 -0.0790 -0.6676
 2426TIP3    H128837   3.761   3.219   1.130  1.2299  0.9092 -1.5128
 2426TIP3    H228838   3.877   3.305   1.175 -0.3582  2.2323  0.2215
 2427TIP3   OH228839   0.112   3.934   0.600  0.1606 -0.0586 -0.2790
 2427TIP3    H128840   0.053   3.868   0.563 -0.2531  0.9959 -1.5812
 2427TIP3    H228841   0.199   3.896   0.592 -0.1608 -0.8634 -0.0475
 2428TIP3   OH228842   1.629   4.816   2.595  0.2731 -0.3741  0.1435
 2428TIP3    H128843   1.572   4.740   2.586  0.7897 -0.5663 -2.1669
 2428TIP3    H228844   1.601   4.858   2.677 -1.9131 -1.4807  0.0397
 2429TIP3   OH228845   0.893   5.142   8.552  0.5650  0.5600  0.1067
 2429TIP3    H128846   0.852   5.067   8.509  0.4887  1.2651 -1.1135
 2429TIP3    H228847   0.944   5.184   8.483  4.8620 -1.1884  1.8721
 2430TIP3   OH228848   3.570   0.941   1.356 -0.2024  0.2607  0.9184
 2430TIP3    H128849   3.606   0.871   1.411  1.0353  1.3571  1.5617
 2430TIP3    H228850   3.483   0.958   1.392 -0.0056 -0.0826  1.5671
 2431TIP3   OH228851   0.999   2.997   0.150 -0.1274  0.1913 -0.7824
 2431TIP3    H128852   1.021   3.002   0.057  0.1579 -0.7338 -0.7743
 2431TIP3    H228853   0.945   2.919   0.158  0.2041  0.0175 -0.1044
 2432TIP3   OH228854   0.578   5.984   0.104 -0.3365 -1.2486  0.1190
 2432TIP3    H128855   0.663   5.991   0.148  0.3463  1.0115 -1.4044
 2432TIP3    H228856   0.514   6.007   0.171  0.4811 -0.2022  0.5554
 2433TIP3   OH228857   2.763   1.805   1.783  0.0654 -0.3209 -0.1456
 2433TIP3    H128858   2.776   1.791   1.689 -1.2420 -0.1327 -0.3771
 2433TIP3    H228859   2.691   1.868   1.788  0.8822  0.5597  0.9789
 2434TIP3   OH228860   4.310   0.852   7.717 -0.3024 -0.0444 -0.8218
 2434TIP3    H128861   4.271   0.830   7.801  0.0257 -0.7569 -0.8439
 2434TIP3    H228862   4.294   0.775   7.662 -1.5462  0.8741 -1.7911
 2435TIP3   OH228863   3.652   3.777   8.859 -0.0536  0.4984  0.7093
 2435TIP3    H128864   3.617   3.859   8.893  1.2831  1.1083  0.6591
 2435TIP3    H228865   3.584   3.713   8.877 -0.0424  1.0797  3.1894
 2436TIP3   OH228866   3.575   2.811   7.161  0.0651  1.0663 -0.5789
 2436TIP3    H128867   3.567   2.869   7.237  1.0689 -0.2369  0.5738
 2436TIP3    H228868   3.611   2.867   7.092  1.9779  1.6467  0.8031
 2437TIP3   OH228869   4.092   3.249   1.632 -0.0132 -0.2227 -0.2646
 2437TIP3    H128870   4.033   3.175   1.616  0.5579 -0.7510  0.0508
 2437TIP3    H228871   4.177   3.219   1.598  0.0301  0.6169 -0.9201
 2438TIP3   OH228872   6.516   4.326   1.879 -0.4159  0.1793 -0.4454
 2438TIP3    H128873   6.440   4.371   1.915  0.2374 -0.0765  1.3535
 2438TIP3    H228874   6.531   4.253   1.939  3.1441  2.0281  1.2146
 2439TIP3   OH228875   0.526   5.052   3.377 -0.2157  0.0436  0.3658
 2439TIP3    H128876   0.492   4.976   3.329 -1.8021  0.5807  0.5946
 2439TIP3    H228877   0.452   5.112   3.383  0.4181  0.7143  2.0327
 2440TIP3   OH228878   2.124   6.186   2.136 -0.1621 -0.0557 -0.0634
 2440TIP3    H128879   2.141   6.229   2.220  1.1587  0.3017 -0.4867
 2440TIP3    H228880   2.191   6.118   2.129  2.0188  2.0896 -2.2851
 2441TIP3   OH228881   2.263   2.877   1.777  0.1091  0.5084  0.2572
 2441TIP3    H128882   2.208   2.873   1.856 -0.0157  0.9565  0.1974
 2441TIP3    H228883   2.200   2.875   1.705  0.2330 -0.0568  0.1676
 2442TIP3   OH228884   2.962   3.323   0.893 -0.1571 -0.0331 -0.1600
 2442TIP3    H128885   3.006   3.253   0.941  0.1837  1.3426  1.6484
 2442TIP3    H228886   3.022   3.344   0.822 -0.0753 -1.2839 -0.4842
 2443TIP3   OH228887   2.288   5.700   1.235  0.6125 -0.0075  0.2018
 2443TIP3    H128888   2.194   5.693   1.249  0.9349 -2.0424  1.7885
 2443TIP3    H228889   2.297   5.763   1.164 -1.8716  1.1988  0.8563
 2444TIP3   OH228890   2.392   2.197   8.691  0.0409  0.7769  0.1826
 2444TIP3    H128891   2.333   2.206   8.616  0.2152  1.7040  0.1379
 2444TIP3    H228892   2.465   2.257   8.671 -0.0979  1.3292  1.2539
 2445TIP3   OH228893   3.613   2.716   1.850  0.2950 -0.4792 -0.0697
 2445TIP3    H128894   3.618   2.754   1.938 -0.3090  0.2704 -0.3415
 2445TIP3    H228895   3.601   2.623   1.864 -0.1394 -0.3177  0.6460
 2446TIP3   OH228896   5.097   1.935   1.977  0.0988 -0.4688 -0.1319
 2446TIP3    H128897   5.107   2.019   2.023  0.3574 -0.1120 -0.8312
 2446TIP3    H228898   5.017   1.898   2.013 -0.0795  0.1311  0.1066
 2447TIP3   OH228899   0.546   6.216   2.470 -0.2153  0.0169  0.4375
 2447TIP3    H128900   0.614   6.241   2.531  0.4724  0.0075 -0.3054
 2447TIP3    H228901   0.544   6.287   2.405  0.2553 -0.7811 -0.4748
 2448TIP3   OH228902   2.424   2.374   0.020  0.1870  0.8334 -0.0713
 2448TIP3    H128903   2.397   2.301  -0.037  1.6756  0.1607  0.0482
 2448TIP3    H228904   2.341   2.411   0.051 -0.6933  1.1464 -2.5470
 2449TIP3   OH228905   5.551   5.752   8.894 -0.8077 -0.1725 -0.2796
 2449TIP3    H128906   5.490   5.812   8.936  0.2010 -0.1200  1.1497
 2449TIP3    H228907   5.634   5.766   8.939 -0.3885 -2.1872 -0.3364
 2450TIP3   OH228908   4.874   2.027   2.643 -0.2723  0.2663 -0.2510
 2450TIP3    H128909   4.801   2.089   2.647 -0.0369  0.4867  1.1329
 2450TIP3    H228910   4.939   2.064   2.702 -0.0732 -1.2252  0.4966
 2451TIP3   OH228911   4.090   3.575   8.540 -0.4239  0.1486 -0.0377
 2451TIP3    H128912   4.048   3.598   8.623  0.1887  0.1533  0.2740
 2451TIP3    H228913   4.142   3.497   8.560 -2.6978 -1.7987 -1.1345
 2452TIP3   OH228914   1.768   1.414   2.987 -0.5466  0.1859  1.1161
 2452TIP3    H128915   1.759   1.343   2.923 -0.1784  0.7290  0.4330
 2452TIP3    H228916   1.681   1.423   3.026 -1.1448  0.6844 -0.2505
 2453TIP3   OH228917   1.922   4.559   1.217  0.0486 -0.6716 -0.0342
 2453TIP3    H128918   1.908   4.558   1.312 -0.0598 -1.8506 -0.0490
 2453TIP3    H228919   1.978   4.484   1.200  0.3298 -0.2859 -0.8776
 2454TIP3   OH228920   5.527   5.593   1.955 -0.5376  0.2023  0.4713
 2454TIP3    H128921   5.499   5.582   2.046 -2.4474 -0.5287 -0.1577
 2454TIP3    H228922   5.455   5.639   1.913 -0.8396 -1.6538 -1.1974
 2455TIP3   OH228923   3.474   1.675   2.663  0.5091  0.0340 -0.4211
 2455TIP3    H128924   3.439   1.601   2.712 -0.5603  0.5264 -0.4177
 2455TIP3    H228925   3.550   1.639   2.616  0.1998 -0.9773 -0.1731
 2456TIP3   OH228926   3.986   2.785   7.094 -0.8310 -0.6650  0.5428
 2456TIP3    H128927   3.986   2.864   7.148 -1.5746 -1.2197  1.3890
 2456TIP3    H228928   3.909   2.794   7.038 -0.1232 -0.1431 -0.3796
 2457TIP3   OH228929   6.067   6.242   2.052 -0.3947  0.2937  0.5401
 2457TIP3    H128930   6.044   6.182   1.982  0.8193  0.5134 -0.0776
 2457TIP3    H228931   5.999   6.230   2.118 -1.0025 -0.6393 -0.2366
 2458TIP3   OH228932   0.411   6.135   8.921 -0.2386 -0.4970  0.0221
 2458TIP3    H128933   0.455   6.056   8.890 -1.5922 -1.4798  0.5137
 2458TIP3    H228934   0.475   6.205   8.908  1.8112 -1.9842  1.4969
 2459TIP3   OH228935   3.063   2.984   8.075  0.5116  0.3091 -0.6387
 2459TIP3    H128936   3.093   3.036   8.001  0.7468 -0.8177 -1.3522
 2459TIP3    H228937   3.143   2.944   8.110  0.3719  0.6480  0.0919
 2460TIP3   OH228938   1.082   6.173   0.013  0.2174  1.0820 -0.3962
 2460TIP3    H128939   0.990   6.159   0.035 -0.1197  1.7170 -1.3224
 2460TIP3    H228940   1.131   6.121   0.077 -0.8306 -1.8165 -1.7835
 2461TIP3   OH228941   3.411   3.057   6.992  0.3918 -0.3901  0.2296
 2461TIP3    H128942   3.380   3.027   6.906 -0.2580 -0.4083  0.4649
 2461TIP3    H228943   3.501   3.086   6.976 -0.0018  0.4204 -0.6470
 2462TIP3   OH228944   1.451   6.178   7.917  0.9852  0.2513 -0.5691
 2462TIP3    H128945   1.378   6.153   7.862 -0.7121 -1.0521  2.0621
 2462TIP3    H228946   1.523   6.121   7.891 -0.1722 -1.2449 -0.5844
 2463TIP3   OH228947   5.738   3.850   0.975 -0.1748 -0.2565  0.5454
 2463TIP3    H128948   5.808   3.879   0.917 -1.0114  0.1418 -0.3083
 2463TIP3    H228949   5.659   3.888   0.937 -0.9282 -1.1910  1.1368
 2464TIP3   OH228950   4.332   2.640   7.006 -0.8165 -0.0043 -0.5535
 2464TIP3    H128951   4.354   2.725   6.970 -2.0540  0.5079 -0.1590
 2464TIP3    H228952   4.276   2.599   6.939 -1.7693  0.2817  0.0413
 2465TIP3   OH228953   6.568   1.118   0.843  0.5421 -0.0642  0.0310
 2465TIP3    H128954   6.490   1.171   0.828  0.9996  0.6438  0.1138
 2465TIP3    H228955   6.534   1.031   0.865 -0.2072 -0.9751 -3.9530
 2466TIP3   OH228956   1.843   2.988   2.026 -0.3479 -0.2387  0.0404
 2466TIP3    H128957   1.938   2.976   2.019 -0.4082 -1.0980  0.5498
 2466TIP3    H228958   1.832   3.082   2.032  0.2861  0.0664 -2.4889
 2467TIP3   OH228959   0.357   0.629   8.528 -0.3605 -0.5223  0.2280
 2467TIP3    H128960   0.323   0.564   8.589  0.2359  0.2815  1.4554
 2467TIP3    H228961   0.285   0.691   8.517  0.3716  0.7641  2.2279
 2468TIP3   OH228962   1.666   5.588   8.395  0.2198 -0.1123 -0.0499
 2468TIP3    H128963   1.716   5.561   8.472 -0.2577 -1.4023 -0.1808
 2468TIP3    H228964   1.584   5.622   8.430 -1.6708 -4.1824 -0.0242
 2469TIP3   OH228965   2.668   4.152   2.149  0.0449 -0.4948 -0.2046
 2469TIP3    H128966   2.650   4.232   2.199  0.1890  0.7319 -2.0230
 2469TIP3    H228967   2.750   4.118   2.186  0.5251  0.7672 -0.0659
 2470TIP3   OH228968   0.799   0.143   1.085 -0.8486 -0.3632  0.7733
 2470TIP3    H128969   0.879   0.094   1.071 -1.4276 -0.7411 -1.6645
 2470TIP3    H228970   0.828   0.232   1.106  0.3392  0.1048 -2.2808
 2471TIP3   OH228971   5.190   2.125   8.368  0.5337 -0.5608  0.3393
 2471TIP3    H128972   5.235   2.140   8.285 -0.8049  1.2160 -0.1297
 2471TIP3    H228973   5.241   2.175   8.432  0.0782  0.2644  0.0733
 2472TIP3   OH228974   3.801   2.022   8.376 -0.4399  0.0589  0.0611
 2472TIP3    H128975   3.821   2.025   8.469 -0.4217 -1.5481  0.1230
 2472TIP3    H228976   3.737   2.092   8.363 -0.0958  0.6027  1.1826
 2473TIP3   OH228977   4.530   6.193   7.814 -0.2548  0.7049 -0.2253
 2473TIP3    H128978   4.447   6.241   7.814 -0.3495  0.6116  1.5142
 2473TIP3    H228979   4.585   6.242   7.875  0.9735  0.7170 -1.2913
 2474TIP3   OH228980   1.300   3.590   7.400 -0.1238  0.2494 -0.2873
 2474TIP3    H128981   1.350   3.560   7.324  1.5936 -0.7960  1.1526
 2474TIP3    H228982   1.360   3.578   7.474 -2.2649 -0.3432  1.4668
 2475TIP3   OH228983   3.707   1.644   7.599  0.3178  0.1120 -0.0127
 2475TIP3    H128984   3.718   1.738   7.611 -0.2922  0.1118  0.6125
 2475TIP3    H228985   3.789   1.615   7.559  0.5910  0.8772 -0.0144
 2476TIP3   OH228986   0.760   2.843   8.988 -0.4492  0.1363 -0.6762
 2476TIP3    H128987   0.855   2.849   8.982 -0.3770 -1.5084 -1.9065
 2476TIP3    H228988   0.728   2.930   8.965  0.7380  0.3753 -1.4858
 2477TIP3   OH228989   0.977   3.907   0.098  0.0102  0.3318 -0.5181
 2477TIP3    H128990   1.022   3.948   0.171 -2.2105 -3.1999  3.2485
 2477TIP3    H228991   1.034   3.835   0.071 -0.3506  0.0247 -0.4644
 2478TIP3   OH228992   4.543   4.014   7.539 -0.6288  0.3239  0.5345
 2478TIP3    H128993   4.628   4.058   7.546 -0.8775  1.0225 -0.5958
 2478TIP3    H228994   4.500   4.032   7.623 -0.2438  1.2489  0.5470
 2479TIP3   OH228995   4.009   3.955   0.367  0.1231 -1.0773 -0.0010
 2479TIP3    H128996   3.972   3.959   0.455 -1.3387 -0.3665 -0.6062
 2479TIP3    H228997   4.103   3.966   0.380 -0.1234 -0.3622  1.4271
 2480TIP3   OH228998   4.156   0.878   8.222 -0.3391  0.1864 -0.6575
 2480TIP3    H128999   4.086   0.938   8.248 -0.2742  0.4229 -1.0260
 2480TIP3    H229000   4.230   0.903   8.277 -0.3953  0.2641 -0.6176
 2481TIP3   OH229001   1.148   6.084   1.772 -0.5713  0.0438 -0.1027
 2481TIP3    H129002   1.146   6.122   1.685 -0.8685 -0.8372 -0.4957
 2481TIP3    H229003   1.141   5.990   1.757  1.9243 -0.3703  0.7042
 2482TIP3   OH229004   6.181   5.265   1.909  0.2002  1.0433 -0.9792
 2482TIP3    H129005   6.230   5.323   1.851 -0.0963  1.0123 -1.2613
 2482TIP3    H229006   6.199   5.177   1.876 -0.9181  1.0952 -1.7644
 2483TIP3   OH229007   0.127   3.506   1.440  0.2364  0.4804  0.0084
 2483TIP3    H129008   0.095   3.595   1.454 -1.2905 -0.1781  0.9380
 2483TIP3    H229009   0.188   3.491   1.513  0.1878  0.6344  0.0819
 2484TIP3   OH229010   1.791   4.689   0.988 -0.1866  0.0197  0.0965
 2484TIP3    H129011   1.835   4.652   1.065 -1.3159 -1.9692 -0.1612
 2484TIP3    H229012   1.726   4.748   1.025 -0.5830 -0.7653  0.6847
 2485TIP3   OH229013   2.340   4.331   0.932 -0.2247 -0.5121 -0.0719
 2485TIP3    H129014   2.396   4.259   0.960  0.0421  0.2933  1.5572
 2485TIP3    H229015   2.402   4.401   0.908 -0.4919  0.0771  0.8985
 2486TIP3   OH229016   0.687   2.247   0.897  0.3535 -0.3422 -0.0835
 2486TIP3    H129017   0.610   2.254   0.840 -0.7619  3.6254  1.5890
 2486TIP3    H229018   0.761   2.261   0.838 -0.4540 -0.5520 -1.1785
 2487TIP3   OH229019   4.385   2.546   1.878  0.1002 -0.1373  0.2997
 2487TIP3    H129020   4.317   2.582   1.935 -1.0383  1.0841 -1.7341
 2487TIP3    H229021   4.426   2.623   1.838 -0.9349 -0.9356 -2.5112
 2488TIP3   OH229022   4.221   0.901   0.033  0.0765  0.2201 -0.5087
 2488TIP3    H129023   4.261   0.893  -0.054 -1.7314  1.4335 -1.5273
 2488TIP3    H229024   4.270   0.970   0.076  0.0765  0.6217 -1.1358
 2489TIP3   OH229025   0.309   3.080   7.403  0.1953 -0.3882 -0.6852
 2489TIP3    H129026   0.264   3.160   7.431  2.0867  0.0152  1.5387
 2489TIP3    H229027   0.270   3.059   7.318 -1.5836  1.8959 -0.5457
 2490TIP3   OH229028   5.975   1.623   0.955 -0.3229  0.0732  0.2633
 2490TIP3    H129029   5.906   1.687   0.941  0.1198  0.3816 -0.5728
 2490TIP3    H229030   6.037   1.667   1.014 -0.6239 -0.0521  0.6808
 2491TIP3   OH229031   0.476   4.584   3.034  0.1256 -0.3464 -0.5171
 2491TIP3    H129032   0.473   4.595   3.129 -0.9499 -3.4696 -0.0652
 2491TIP3    H229033   0.569   4.580   3.014  0.3638 -1.1852  0.6604
 2492TIP3   OH229034   2.958   6.461   1.624  0.0077 -0.0751  0.4946
 2492TIP3    H129035   2.984   6.410   1.700  0.0476 -1.9323 -0.7002
 2492TIP3    H229036   3.037   6.466   1.569 -0.8002 -1.6125 -0.9084
 2493TIP3   OH229037   4.956   3.276   8.091 -0.2022  0.1068 -0.3604
 2493TIP3    H129038   4.932   3.344   8.028  0.3504 -0.1898 -0.9020
 2493TIP3    H229039   5.022   3.224   8.045  1.0288  0.5423  0.8737
 2494TIP3   OH229040   1.007   0.552   8.437 -0.6007  0.3322 -0.7560
 2494TIP3    H129041   0.945   0.479   8.435  0.5407 -0.6937 -0.0155
 2494TIP3    H229042   1.009   0.579   8.529  0.7627 -0.3217 -0.5620
 2495TIP3   OH229043   3.442   1.936   8.714  0.0716 -0.0819  0.5629
 2495TIP3    H129044   3.407   2.018   8.678  1.8798  0.1232 -0.8982
 2495TIP3    H229045   3.433   1.873   8.643  0.8148 -0.5331  0.8637
 2496TIP3   OH229046   3.851   2.895   0.021 -0.6347 -0.7466 -0.5940
 2496TIP3    H129047   3.924   2.911  -0.039 -0.3907 -2.2547 -0.7334
 2496TIP3    H229048   3.874   2.945   0.099  1.0475 -1.9481 -0.2704
 2497TIP3   OH229049   5.103   0.200   8.813 -0.0460  0.3733  0.0295
 2497TIP3    H129050   5.098   0.108   8.841  0.7753 -0.0458 -1.0949
 2497TIP3    H229051   5.187   0.206   8.767 -0.2597  1.6006 -0.2336
 2498TIP3   OH229052   1.839   5.063   1.822  0.4418  0.1810 -0.1679
 2498TIP3    H129053   1.757   5.065   1.871  0.0971  1.1520 -0.7691
 2498TIP3    H229054   1.879   5.148   1.838  1.0942 -0.0945 -0.2913
 2499TIP3   OH229055   4.202   1.607   1.710  0.8151 -0.3974 -0.0601
 2499TIP3    H129056   4.127   1.661   1.734  0.4848 -0.8362 -0.0912
 2499TIP3    H229057   4.170   1.517   1.718  1.4366 -0.5936  0.2442
 2500TIP3   OH229058   5.927   6.120   0.811  0.2407  0.1843  0.4857
 2500TIP3    H129059   5.993   6.134   0.744  0.7866 -0.2500  0.9246
 2500TIP3    H229060   5.977   6.102   0.891 -0.3988 -1.1021  0.6228
 2501TIP3   OH229061   4.887   3.996   7.627 -0.1587  0.3554 -0.1611
 2501TIP3    H129062   4.982   4.010   7.625 -0.0149 -0.0414  1.9459
 2501TIP3    H229063   4.850   4.083   7.619  0.5609  1.2387  3.9272
 2502TIP3   OH229064   4.196   4.871   0.377 -0.0615  0.1749 -0.2688
 2502TIP3    H129065   4.107   4.860   0.344 -0.0913 -0.9834  0.1279
 2502TIP3    H229066   4.252   4.839   0.306  0.0931  1.5368 -0.7894
 2503TIP3   OH229067   0.117   1.186   8.245  0.3009 -0.1013  0.0219
 2503TIP3    H129068   0.104   1.280   8.256  0.5645  0.2069 -1.8824
 2503TIP3    H229069   0.178   1.162   8.314  0.5936  1.2287  0.2592
 2504TIP3   OH229070   5.371   6.124   7.704 -0.3706 -0.5037 -0.7641
 2504TIP3    H129071   5.311   6.050   7.695 -2.0751  0.3469  2.0936
 2504TIP3    H229072   5.326   6.184   7.764  3.2336  0.3411  1.3695
 2505TIP3   OH229073   5.554   4.515   0.667 -0.2814  0.2849  0.1521
 2505TIP3    H129074   5.529   4.423   0.658  0.4974 -0.0611  1.1962
 2505TIP3    H229075   5.512   4.559   0.594  0.9857 -1.2377 -1.6133
 2506TIP3   OH229076   5.425   1.122   2.792 -0.4875 -0.3661  0.7584
 2506TIP3    H129077   5.377   1.091   2.869 -0.7375 -1.9170  0.0121
 2506TIP3    H229078   5.517   1.105   2.813 -0.6462 -2.2073  0.1657
 2507TIP3   OH229079   1.003   6.315   7.174  0.0017 -0.3951 -0.9625
 2507TIP3    H129080   1.055   6.238   7.199  0.3946  0.0420 -0.4108
 2507TIP3    H229081   0.923   6.278   7.139 -0.0227 -1.0651 -0.2533
 2508TIP3   OH229082   2.265   0.375   1.178 -0.3488  0.2460 -0.4710
 2508TIP3    H129083   2.172   0.389   1.194 -0.3000  0.1312 -0.1005
 2508TIP3    H229084   2.303   0.463   1.179 -0.3099  0.2224  0.2498
 2509TIP3   OH229085   3.533   4.404   2.453  0.9213 -0.1360  0.2861
 2509TIP3    H129086   3.441   4.384   2.466  1.0295 -0.0724  1.2735
 2509TIP3    H229087   3.575   4.319   2.441  0.8911 -0.2639  1.0262
 2510TIP3   OH229088   6.569   0.243   0.613  0.3996  0.5019  0.0717
 2510TIP3    H129089   6.477   0.256   0.637  0.1537 -1.6047  0.4436
 2510TIP3    H229090   6.565   0.204   0.525  0.6035 -3.4293  1.5955
 2511TIP3   OH229091   3.776   3.061   0.945 -0.3899  0.4867 -0.0445
 2511TIP3    H129092   3.835   3.108   0.886 -1.4513  0.2580 -1.3352
 2511TIP3    H229093   3.805   2.970   0.940 -1.1636  0.2879 -1.0923
 2512TIP3   OH229094   3.582   4.700   0.691 -0.1964 -0.1626 -0.2255
 2512TIP3    H129095   3.675   4.720   0.698  0.1136 -1.2406 -0.9498
 2512TIP3    H229096   3.575   4.609   0.721 -1.1264  0.1229  0.4693
 2513TIP3   OH229097   5.485   4.241   0.646 -0.0871  0.3039 -0.1636
 2513TIP3    H129098   5.467   4.250   0.552 -0.1335  2.2777 -0.0227
 2513TIP3    H229099   5.413   4.189   0.680  0.8650 -1.9919 -1.4731
 2514TIP3   OH229100   4.183   4.808   8.199  0.0883  0.0525  0.0844
 2514TIP3    H129101   4.231   4.764   8.129 -0.6873  1.9890 -1.7640
 2514TIP3    H229102   4.174   4.898   8.169 -1.6902  0.5845  1.9814
 2515TIP3   OH229103   3.834   3.198   7.518 -0.4562  0.0909 -0.0561
 2515TIP3    H129104   3.849   3.278   7.469  3.0302  0.0049  0.6433
 2515TIP3    H229105   3.806   3.227   7.605  0.5097  0.5570  0.1049
 2516TIP3   OH229106   0.992   0.751   8.271 -0.3893  0.1180 -0.3510
 2516TIP3    H129107   0.997   0.688   8.343 -0.7844  0.3898 -0.0799
 2516TIP3    H229108   0.936   0.821   8.305 -0.2255  0.4524 -0.7693
 2517TIP3   OH229109   2.385   0.142   3.277  0.0016  0.3941  0.2885
 2517TIP3    H129110   2.443   0.081   3.231  0.0706  0.8995 -0.2981
 2517TIP3    H229111   2.300   0.097   3.278  0.5349 -0.6681  1.7756
 2518TIP3   OH229112   4.072   5.482   7.567 -0.4310 -0.2715 -0.0649
 2518TIP3    H129113   4.007   5.524   7.624  0.5771 -0.4874  1.2754
 2518TIP3    H229114   4.146   5.463   7.624  0.5403 -0.6904 -1.4133
 2519TIP3   OH229115   6.544   0.215   1.091  0.6927  0.1597  0.7367
 2519TIP3    H129116   6.614   0.151   1.079 -0.4369 -1.1283  0.7093
 2519TIP3    H229117   6.483   0.173   1.152 -1.0196  0.3670 -0.7379
 2520TIP3   OH229118   0.028   3.693   0.260 -0.3477 -0.1243  0.4601
 2520TIP3    H129119   0.117   3.726   0.275  0.3258 -2.0404  0.9639
 2520TIP3    H229120  -0.027   3.749   0.315  0.9776 -0.9316  2.7547
 2521TIP3   OH229121   1.083   6.603   7.634  0.4726 -0.2193 -0.2817
 2521TIP3    H129122   1.007   6.546   7.634  1.2871 -1.3462 -0.4825
 2521TIP3    H229123   1.095   6.628   7.543 -0.7386  1.4977 -0.0103
 2522TIP3   OH229124   4.719   0.647   2.566  0.0478 -0.3654 -0.5020
 2522TIP3    H129125   4.769   0.723   2.595 -2.1581  0.9708  0.0816
 2522TIP3    H229126   4.744   0.635   2.474 -0.9820  2.3856 -1.2291
 2523TIP3   OH229127   5.354   0.550   8.902  0.3433  0.1172 -0.0758
 2523TIP3    H129128   5.391   0.628   8.942  2.6593 -0.8248 -0.1641
 2523TIP3    H229129   5.301   0.510   8.971  0.5587  0.8608  0.5370
 2524TIP3   OH229130   0.053   2.426   8.399  0.3443  0.2783  0.2524
 2524TIP3    H129131  -0.042   2.414   8.396  0.6336 -2.4829 -0.1046
 2524TIP3    H229132   0.081   2.380   8.478  1.3054  2.2541  1.1329
 2525TIP3   OH229133   5.306   4.563   1.839 -0.2456  0.5031 -0.0579
 2525TIP3    H129134   5.346   4.562   1.926  2.7738  4.3478 -1.0789
 2525TIP3    H229135   5.346   4.488   1.794  0.1444 -0.0139  1.0994
 2526TIP3   OH229136   1.664   0.251   1.800 -0.2479 -0.1809 -0.3512
 2526TIP3    H129137   1.704   0.218   1.719  2.6296  2.6335 -0.2568
 2526TIP3    H229138   1.727   0.230   1.868 -0.8188  0.8264  0.5180
 2527TIP3   OH229139   3.911   6.511   7.609 -0.1191 -0.3013 -0.1703
 2527TIP3    H129140   3.995   6.555   7.595 -0.4674  0.1646 -0.8361
 2527TIP3    H229141   3.851   6.582   7.632 -0.6853 -0.4133 -1.2492
 2528TIP3   OH229142   5.483   1.638   1.809 -0.3273 -0.2375  0.5691
 2528TIP3    H129143   5.548   1.571   1.832 -1.1692 -1.2083  0.2251
 2528TIP3    H229144   5.457   1.676   1.893 -0.0552 -0.5584  0.8001
 2529TIP3   OH229145   0.864   6.542   0.448  0.3004  0.5412  0.2853
 2529TIP3    H129146   0.836   6.452   0.432 -0.1458  0.9337 -1.2892
 2529TIP3    H229147   0.918   6.564   0.372  0.2277  1.6854  0.5495
 2530TIP3   OH229148   0.794   5.107   3.375  0.1875  0.1070  0.0606
 2530TIP3    H129149   0.793   5.110   3.471 -0.1859 -0.8244  0.0935
 2530TIP3    H229150   0.706   5.081   3.350  0.2239  0.5355 -0.5573
 2531TIP3   OH229151   5.393   0.063   2.220  0.3745 -0.4335  0.6670
 2531TIP3    H129152   5.393   0.054   2.125 -0.1792  0.3792  0.5779
 2531TIP3    H229153   5.480   0.097   2.241  1.3385 -2.7191  0.7058
 2532TIP3   OH229154   4.027   4.305   0.395  0.1479 -0.0681  0.4498
 2532TIP3    H129155   3.945   4.257   0.409  0.6201 -0.8764  0.4668
 2532TIP3    H229156   4.004   4.373   0.331 -0.4458 -0.5346  0.1595
 2533TIP3   OH229157   3.917   3.034   1.884  0.2967  0.5340 -0.0019
 2533TIP3    H129158   3.947   2.955   1.838  1.9146  0.6863  0.7402
 2533TIP3    H229159   3.909   3.007   1.975 -0.5837  0.8578  0.0259
 2534TIP3   OH229160   5.774   4.515   8.406  0.3187 -0.0988 -0.0787
 2534TIP3    H129161   5.711   4.480   8.343 -0.0724 -0.7138  0.6353
 2534TIP3    H229162   5.725   4.581   8.455  1.1149  1.6755 -1.5649
 2535TIP3   OH229163   6.730   5.409   8.103 -0.2253  0.8078 -0.3788
 2535TIP3    H129164   6.715   5.314   8.100 -0.4793  0.8649 -1.2683
 2535TIP3    H229165   6.653   5.447   8.061 -0.2518  1.4305  0.2152
 2536TIP3   OH229166   2.363   1.642   1.700  0.3907  0.1738 -0.5166
 2536TIP3    H129167   2.409   1.725   1.693 -0.0249  0.3624 -1.1635
 2536TIP3    H229168   2.270   1.666   1.701  0.1805 -0.3261 -2.4351
 2537TIP3   OH229169   6.305   2.238   8.587  0.0452 -0.7882 -1.0300
 2537TIP3    H129170   6.228   2.235   8.644  0.1258  2.2772 -0.5944
 2537TIP3    H229171   6.273   2.272   8.504  0.7164 -0.6466 -1.2422
 2538TIP3   OH229172   0.969   0.406   0.922  0.5247  0.7563 -0.0726
 2538TIP3    H129173   0.940   0.496   0.902  2.0842  1.1905 -0.5370
 2538TIP3    H229174   1.008   0.375   0.840  1.3119  0.2051  0.4990
 2539TIP3   OH229175   5.853   2.686   8.524  0.3595 -0.3012 -0.1618
 2539TIP3    H129176   5.806   2.668   8.605  0.2557 -0.6436 -0.2986
 2539TIP3    H229177   5.787   2.679   8.456  0.4788 -0.1599 -0.2942
 2540TIP3   OH229178   2.899   6.514   1.131 -0.3689  0.1142  0.3721
 2540TIP3    H129179   2.843   6.451   1.085 -0.7249 -1.1042  2.3660
 2540TIP3    H229180   2.838   6.579   1.167 -0.2300  0.2530  0.3598
 2541TIP3   OH229181   2.020   3.255   0.401 -0.1316  0.3821 -0.3110
 2541TIP3    H129182   1.980   3.177   0.440  1.8494 -0.0371  0.9947
 2541TIP3    H229183   1.974   3.266   0.318 -1.4092 -1.3465  0.1098
 2542TIP3   OH229184   5.267   0.395   0.543 -0.5282 -0.4873 -0.4925
 2542TIP3    H129185   5.345   0.372   0.494 -1.6534 -3.9811 -0.8698
 2542TIP3    H229186   5.297   0.402   0.634  0.2967 -1.4578 -0.6727
 2543TIP3   OH229187   2.884   0.778   8.818 -0.1858 -0.5048  0.4469
 2543TIP3    H129188   2.817   0.750   8.756 -0.7694 -0.2978  0.9767
 2543TIP3    H229189   2.909   0.698   8.865 -0.7179 -0.4248  0.8725
 2544TIP3   OH229190   4.594   1.809   1.981 -0.0404  0.5523 -0.3155
 2544TIP3    H129191   4.509   1.767   1.988 -0.5596  1.3916 -1.4246
 2544TIP3    H229192   4.600   1.865   2.059 -0.0402 -0.2953  0.3052
 2545TIP3   OH229193   2.455   5.314   0.848 -0.5424 -0.0712 -0.1654
 2545TIP3    H129194   2.404   5.253   0.795 -0.9468  0.2646 -0.1705
 2545TIP3    H229195   2.393   5.384   0.870 -0.3904 -0.2220  0.7766
 2546TIP3   OH229196   3.667   1.135   0.612 -0.5988 -0.3413  0.4093
 2546TIP3    H129197   3.670   1.231   0.616 -0.4027 -0.3688  1.2115
 2546TIP3    H229198   3.747   1.106   0.656 -0.5945 -0.8756  0.0628
 2547TIP3   OH229199   0.070   4.778   8.052  0.1941  0.0152 -0.1228
 2547TIP3    H129200   0.116   4.698   8.076 -1.6184 -0.8955  0.5268
 2547TIP3    H229201  -0.019   4.749   8.032 -1.1533  2.1062  2.3249
 2548TIP3   OH229202   4.293   3.358   8.318  0.3265 -0.5966  0.2612
 2548TIP3    H129203   4.278   3.384   8.409 -0.3214 -3.0070  0.9131
 2548TIP3    H229204   4.385   3.332   8.316  0.1540 -1.2338  0.4286
 2549TIP3   OH229205   0.692   5.512   7.300  0.4520 -0.1977  0.5738
 2549TIP3    H129206   0.597   5.510   7.294  0.4987 -0.1411 -0.2311
 2549TIP3    H229207   0.718   5.593   7.255  0.9710 -0.9838 -0.5920
 2550TIP3   OH229208   1.587   5.435   1.938 -0.2257 -0.2571 -0.1526
 2550TIP3    H129209   1.657   5.458   1.877 -0.4386 -0.7036 -0.5614
 2550TIP3    H229210   1.566   5.518   1.982  0.1282  0.0026 -0.4684
 2551TIP3   OH229211   2.350   0.054   1.232 -0.8574 -0.5083 -0.0572
 2551TIP3    H129212   2.393   0.106   1.164 -2.4568 -0.8791 -1.4062
 2551TIP3    H229213   2.388  -0.033   1.222  0.2360 -0.1590  0.7772
 2552TIP3   OH229214   6.235   3.785   2.259 -0.2923  0.1869  0.1958
 2552TIP3    H129215   6.150   3.783   2.216  0.1920  3.5588 -1.2388
 2552TIP3    H229216   6.297   3.807   2.189  1.5493 -0.5927  1.4994
 2553TIP3   OH229217   5.547   5.338   7.603 -0.3597  0.4567  0.3743
 2553TIP3    H129218   5.573   5.342   7.511 -1.5704 -0.6728 -0.0598
 2553TIP3    H229219   5.627   5.318   7.651 -0.0960 -1.2504 -0.7042
 2554TIP3   OH229220   6.521   4.074   0.950  0.0793  0.2928  0.1631
 2554TIP3    H129221   6.585   4.119   1.005  0.9246 -0.7499  0.0687
 2554TIP3    H229222   6.561   3.989   0.930 -1.5824 -0.6618  0.6075
 2555TIP3   OH229223   0.986   6.631   1.960 -0.5960 -0.4100 -0.5227
 2555TIP3    H129224   1.026   6.592   1.883 -1.6054  1.0080 -1.8461
 2555TIP3    H229225   0.921   6.566   1.989  0.2650 -1.2457 -0.4186
 2556TIP3   OH229226   0.025   0.999   0.703 -0.4233  0.2892 -0.3838
 2556TIP3    H129227  -0.030   1.046   0.765 -3.8466 -1.2032 -2.0133
 2556TIP3    H229228   0.035   1.059   0.629  0.7848  0.8125  0.1863
 2557TIP3   OH229229   3.798   2.325   1.997  0.5094  0.1234 -0.1213
 2557TIP3    H129230   3.761   2.328   2.085 -2.3941  0.3542 -1.2588
 2557TIP3    H229231   3.855   2.247   1.998  1.7934  0.9706  2.3194
 2558TIP3   OH229232   2.591   1.826   8.940 -0.7719 -0.0363  0.3040
 2558TIP3    H129233   2.551   1.857   8.859 -0.5434 -0.1045  0.1634
 2558TIP3    H229234   2.523   1.836   9.006 -0.3021  2.0072  0.5440
 2559TIP3   OH229235   1.041   4.865   8.235  0.7140  0.3318 -0.0448
 2559TIP3    H129236   1.083   4.789   8.276  0.3770  0.3757  0.3869
 2559TIP3    H229237   0.967   4.828   8.187  0.7260  0.3531 -0.0794
 2560TIP3   OH229238   4.522   1.577   0.429 -0.8247 -0.3919  0.3596
 2560TIP3    H129239   4.471   1.639   0.480 -0.2312  0.4202 -0.0238
 2560TIP3    H229240   4.499   1.596   0.338  1.0450  0.8237  0.0916
 2561TIP3   OH229241   0.731   1.607   1.567  0.3526 -0.3220 -0.1050
 2561TIP3    H129242   0.757   1.518   1.544  0.7462  0.0977 -1.4241
 2561TIP3    H229243   0.663   1.629   1.502  0.7759  0.5787 -0.2606
 2562TIP3   OH229244   5.876   6.463   7.503 -0.5663 -0.5651  0.0726
 2562TIP3    H129245   5.849   6.371   7.500  2.1711 -1.4556  0.3599
 2562TIP3    H229246   5.949   6.469   7.442  0.1691  1.1256  1.0506
 2563TIP3   OH229247   0.923   2.089   7.001  0.4438 -0.4694  0.8375
 2563TIP3    H129248   0.899   2.037   7.078 -0.8869 -1.6959 -0.3559
 2563TIP3    H229249   0.982   2.032   6.951  0.7211  0.0311  0.5851
 2564TIP3   OH229250   4.148   4.556   8.794  0.0992 -0.0048  0.7058
 2564TIP3    H129251   4.180   4.638   8.831  1.7207 -0.5526  0.5944
 2564TIP3    H229252   4.105   4.582   8.712 -0.7305  0.8654  1.3829
 2565TIP3   OH229253   4.609   0.695   0.043  0.5176  0.5328  1.0881
 2565TIP3    H129254   4.583   0.609   0.076 -0.3467  0.9415  1.4901
 2565TIP3    H229255   4.663   0.731   0.114  1.5312  0.0241  0.5993
 2566TIP3   OH229256   0.263   2.666   7.599 -0.5142 -0.0597 -0.4293
 2566TIP3    H129257   0.256   2.578   7.635 -2.0917 -0.0316 -0.5762
 2566TIP3    H229258   0.282   2.653   7.506 -0.1091 -0.2263 -0.3228
 2567TIP3   OH229259   1.789   3.880   7.900  0.2532 -0.6399  0.0640
 2567TIP3    H129260   1.827   3.932   7.829  0.5365 -0.5171  0.3013
 2567TIP3    H229261   1.695   3.883   7.884  0.1900  0.6756  0.5537
 2568TIP3   OH229262   2.046   1.680   1.076 -0.5250 -0.3898  0.9976
 2568TIP3    H129263   2.033   1.626   0.998 -0.7505 -0.4069  1.0452
 2568TIP3    H229264   2.113   1.744   1.051 -2.0766  0.9610  0.0985
 2569TIP3   OH229265   1.224   6.215   0.494  0.4085 -0.2178  0.4913
 2569TIP3    H129266   1.144   6.261   0.518 -0.4108 -1.0401 -0.5930
 2569TIP3    H229267   1.272   6.208   0.577 -1.4256 -1.2332  1.5454
 2570TIP3   OH229268   3.891   5.524   2.013  0.6994  0.3416  0.2659
 2570TIP3    H129269   3.861   5.497   1.926  0.1761 -0.4140  0.6606
 2570TIP3    H229270   3.951   5.455   2.040  0.1011  0.0465  0.8918
 2571TIP3   OH229271   3.187   0.730   2.783 -0.2437 -0.1559 -0.1739
 2571TIP3    H129272   3.241   0.652   2.794  0.5808  0.3339 -0.5639
 2571TIP3    H229273   3.100   0.705   2.813  0.2173 -0.9560  0.5121
 2572TIP3   OH229274   0.880   5.532   1.912 -0.4679 -0.1292  0.2158
 2572TIP3    H129275   0.881   5.466   1.843  0.5870  0.8432 -0.7492
 2572TIP3    H229276   0.964   5.521   1.957 -0.4838  0.2514  0.3408
 2573TIP3   OH229277   0.548   4.053   8.541 -0.6664 -0.0420 -0.3293
 2573TIP3    H129278   0.537   4.105   8.620 -2.1105  1.1359 -1.2544
 2573TIP3    H229279   0.624   4.090   8.497  0.0230 -0.5777  0.3799
 2574TIP3   OH229280   2.445   4.197   1.938  0.2455 -0.1409 -0.0964
 2574TIP3    H129281   2.494   4.203   2.020  0.3441 -1.7998  0.0059
 2574TIP3    H229282   2.430   4.288   1.912  2.3212  0.4207  0.4892
 2575TIP3   OH229283   3.847   4.148   1.204  0.2373 -0.1286  0.1072
 2575TIP3    H129284   3.774   4.194   1.245  2.2836  1.6616  2.0273
 2575TIP3    H229285   3.861   4.071   1.259  1.5884  1.1166  1.6225
 2576TIP3   OH229286   1.877   0.890   8.760 -0.1794 -0.0260  0.2061
 2576TIP3    H129287   1.879   0.858   8.851 -0.9269 -2.5735 -0.5935
 2576TIP3    H229288   1.786   0.918   8.747 -0.4741 -1.1158 -0.1792
 2577TIP3   OH229289   3.292   6.558   0.044  0.4692 -0.2750  0.3246
 2577TIP3    H129290   3.202   6.587   0.060  0.1865 -0.8433 -0.2151
 2577TIP3    H229291   3.340   6.640   0.029 -0.0174  0.0175  0.3032
 2578TIP3   OH229292   2.785   3.824   1.990  0.7723  0.1217  0.2740
 2578TIP3    H129293   2.721   3.801   1.923 -0.2074 -0.1195  1.2684
 2578TIP3    H229294   2.844   3.886   1.946 -0.4111  0.7151 -0.5368
 2579TIP3   OH229295   2.315   4.474   2.008  0.1389 -0.2553 -0.0729
 2579TIP3    H129296   2.357   4.439   2.087  0.5717 -0.0395 -0.2057
 2579TIP3    H229297   2.360   4.556   1.991 -0.7602  0.2903  0.1381
 2580TIP3   OH229298   2.513   6.646   0.687  0.1260  0.7315 -0.0695
 2580TIP3    H129299   2.584   6.708   0.701 -0.1371  0.7202  1.4927
 2580TIP3    H229300   2.557   6.561   0.680  0.2370  0.4037  3.0773
 2581TIP3   OH229301   6.146   6.083   0.281  0.0717  0.1314  0.7547
 2581TIP3    H129302   6.166   6.145   0.211  0.8261 -0.6024  0.2981
 2581TIP3    H229303   6.054   6.097   0.301 -0.1997  0.2104 -0.5237
 2582TIP3   OH229304   3.111   3.212   0.649 -0.1684  0.0987 -0.1457
 2582TIP3    H129305   3.179   3.173   0.705 -0.9126  2.1778  2.3706
 2582TIP3    H229306   3.035   3.154   0.660  0.2520 -0.5411 -0.5351
 2583TIP3   OH229307   6.520   4.962   7.218 -0.4504  0.0889  0.3448
 2583TIP3    H129308   6.571   4.924   7.289 -2.5439 -0.6653  1.5535
 2583TIP3    H229309   6.466   4.890   7.186  0.6912  0.3175 -2.3263
 2584TIP3   OH229310   1.896   2.850   6.985  0.1094  0.3516  0.2993
 2584TIP3    H129311   1.984   2.887   6.984 -0.0805  0.8276 -1.6953
 2584TIP3    H229312   1.842   2.915   6.940 -0.6741 -1.2705 -1.2061
 2585TIP3   OH229313   4.384   0.950   8.354 -0.7239  0.2157  0.2755
 2585TIP3    H129314   4.393   1.006   8.431 -0.9712  1.4094 -0.5268
 2585TIP3    H229315   4.474   0.937   8.324 -0.6204 -0.3223  0.7989
 2586TIP3   OH229316   0.294   6.662   0.658  0.2027 -1.1181 -0.1105
 2586TIP3    H129317   0.273   6.607   0.583  1.0457 -0.3406 -0.9382
 2586TIP3    H229318   0.351   6.730   0.623 -0.9122  0.3730  0.8564
 2587TIP3   OH229319   3.556   0.753   8.395  0.2656  0.3513 -0.3325
 2587TIP3    H129320   3.636   0.704   8.378 -0.3278 -0.3929 -1.1046
 2587TIP3    H229321   3.507   0.748   8.313 -0.3655  1.1809 -0.0170
 2588TIP3   OH229322   2.481   2.905   0.568  0.5033  0.1175 -0.4500
 2588TIP3    H129323   2.526   2.858   0.638 -1.3086  0.5218  1.0861
 2588TIP3    H229324   2.532   2.985   0.556  0.6809  0.1906  0.6604
 2589TIP3   OH229325   2.828   3.007   7.882 -0.0917  0.5449 -0.3964
 2589TIP3    H129326   2.817   2.933   7.941  0.0699  0.1406 -0.8698
 2589TIP3    H229327   2.922   3.026   7.884 -0.0678  0.4505 -0.6205
 2590TIP3   OH229328   2.422   2.339   8.008  0.4508  0.0455  0.3961
 2590TIP3    H129329   2.393   2.289   8.084  0.7360 -1.1910 -0.2850
 2590TIP3    H229330   2.466   2.416   8.046  0.4342 -0.4583  1.4726
 2591TIP3   OH229331   3.315   0.844   0.595 -0.3477  0.1386  0.3296
 2591TIP3    H129332   3.224   0.846   0.564 -0.9684 -0.7381  1.9637
 2591TIP3    H229333   3.310   0.878   0.685  1.0185  0.5069  0.2804
 2592TIP3   OH229334   6.133   6.103   2.347 -0.3262  0.3458 -0.0444
 2592TIP3    H129335   6.122   6.020   2.394  2.3771 -1.0425 -1.5900
 2592TIP3    H229336   6.048   6.119   2.306 -0.9326 -1.6453  0.3465
 2593TIP3   OH229337   5.476   5.454   8.203 -0.3209  0.3186 -0.0826
 2593TIP3    H129338   5.445   5.413   8.123 -1.0190  1.9793 -0.7049
 2593TIP3    H229339   5.527   5.529   8.174  0.0721  0.5034  1.0275
 2594TIP3   OH229340   2.288   4.962   2.409 -0.5039  0.4979 -0.7839
 2594TIP3    H129341   2.349   4.951   2.337  0.9593 -0.0457  0.4905
 2594TIP3    H229342   2.202   4.967   2.367  0.1139 -1.5683 -2.4316
 2595TIP3   OH229343   1.148   5.330   0.501 -0.0446 -0.1912  0.0013
 2595TIP3    H129344   1.183   5.260   0.446 -0.8223 -0.8097  0.2713
 2595TIP3    H229345   1.098   5.385   0.441 -2.0962 -1.6655  0.2808
 2596TIP3   OH229346   4.988   6.718   8.104 -0.3873  0.8846 -0.3810
 2596TIP3    H129347   4.965   6.654   8.171 -1.2312  1.7187  0.1603
 2596TIP3    H229348   5.053   6.674   8.049 -1.2146 -0.5600 -0.2538
 2597TIP3   OH229349   3.883   0.889   1.113 -0.1164  0.8018  0.2916
 2597TIP3    H129350   3.897   0.896   1.208  1.1229  0.3372  0.1531
 2597TIP3    H229351   3.798   0.932   1.099 -1.4986 -1.1426  1.9314
 2598TIP3   OH229352   2.655   3.374   7.406  0.4350  0.1143 -0.5274
 2598TIP3    H129353   2.589   3.319   7.365  0.8358 -1.2922  0.6258
 2598TIP3    H229354   2.732   3.366   7.350  0.4203 -0.3376 -0.4851
 2599TIP3   OH229355   2.497   3.084   6.828 -0.2817  0.3760  0.3029
 2599TIP3    H129356   2.550   3.135   6.766 -0.5970  0.9976  0.5363
 2599TIP3    H229357   2.486   3.142   6.903  1.4536 -0.9450  1.6565
 2600TIP3   OH229358   5.579   5.394   1.228 -0.4267 -0.0724 -0.5332
 2600TIP3    H129359   5.561   5.325   1.292 -2.4599 -0.3313 -1.3141
 2600TIP3    H229360   5.610   5.347   1.151 -0.9394 -0.0522 -0.7569
 2601TIP3   OH229361   6.678   3.521   8.069  0.2045  0.0579 -0.2800
 2601TIP3    H129362   6.741   3.593   8.080 -1.3137  1.3962 -0.0324
 2601TIP3    H229363   6.690   3.492   7.979  2.3339 -0.8799  0.2469
 2602TIP3   OH229364   5.743   4.336   0.263  0.0636 -0.5918 -0.2598
 2602TIP3    H129365   5.833   4.340   0.295 -0.2425 -0.7306  0.6768
 2602TIP3    H229366   5.740   4.396   0.189  0.8854 -0.4627 -0.1949
 2603TIP3   OH229367   1.510   3.085   7.807  0.4424  0.4101  0.2421
 2603TIP3    H129368   1.418   3.066   7.825 -0.3858  1.1283 -2.6445
 2603TIP3    H229369   1.552   2.999   7.803 -0.0857  0.0752  1.5673
 2604TIP3   OH229370   2.222   0.886   8.195  0.0500 -0.2660  0.3852
 2604TIP3    H129371   2.272   0.964   8.171 -0.5001 -0.5528 -1.9224
 2604TIP3    H229372   2.144   0.920   8.238 -0.5287  0.5558 -1.2296
 2605TIP3   OH229373   4.879   3.856   8.781 -0.6571 -0.2757  0.0118
 2605TIP3    H129374   4.810   3.875   8.717 -0.7775  1.9956  0.7173
 2605TIP3    H229375   4.961   3.869   8.733 -0.7474  1.0421  0.1839
 2606TIP3   OH229376   5.402   2.028   2.662 -0.4077  0.1928  0.1193
 2606TIP3    H129377   5.308   2.013   2.652 -0.3112 -1.1051  0.9036
 2606TIP3    H229378   5.410   2.078   2.743 -0.3942 -0.0729  0.2819
 2607TIP3   OH229379   2.860   5.224   2.533 -0.2291  0.1014  0.4454
 2607TIP3    H129380   2.913   5.174   2.470 -0.4766  0.1143  0.2214
 2607TIP3    H229381   2.844   5.163   2.605  0.4177  0.2236  0.6992
 2608TIP3   OH229382   3.089   3.004   8.693 -0.2162 -0.9629  0.1996
 2608TIP3    H129383   3.025   2.933   8.699  0.2943 -1.4519 -0.0654
 2608TIP3    H229384   3.149   2.989   8.765 -0.5911 -0.2979  0.6621
 2609TIP3   OH229385   1.019   6.050   8.870 -0.5725 -0.3108  0.3911
 2609TIP3    H129386   1.038   6.114   8.939 -1.7297  0.2458  0.2076
 2609TIP3    H229387   1.099   6.049   8.817 -0.4068  0.7377  0.5883
 2610TIP3   OH229388   5.128   1.943   2.597  0.5087 -0.3224 -0.1127
 2610TIP3    H129389   5.130   1.955   2.502  0.3300 -0.2256 -0.1042
 2610TIP3    H229390   5.043   1.977   2.624 -0.2036 -1.9606 -0.1400
 2611TIP3   OH229391   4.142   5.585   8.888 -0.1160 -0.1908  0.1024
 2611TIP3    H129392   4.118   5.508   8.836  3.2090 -0.7191 -0.9184
 2611TIP3    H229393   4.140   5.658   8.825 -0.3828 -0.0070  0.3254
 2612TIP3   OH229394   5.299   4.434   8.206  0.0060 -0.5354 -0.1074
 2612TIP3    H129395   5.212   4.396   8.195 -0.7434  0.9586  0.4294
 2612TIP3    H229396   5.297   4.516   8.157  1.0206 -0.3362  0.1430
 2613TIP3   OH229397   5.024   5.626   2.409 -0.3076 -0.3269  0.3008
 2613TIP3    H129398   5.103   5.640   2.461 -0.6839 -1.5246  1.2328
 2613TIP3    H229399   5.055   5.585   2.328 -0.0295 -1.3696  0.9291
 2614TIP3   OH229400   5.767   2.959   8.391  0.0936  0.5049  0.4645
 2614TIP3    H129401   5.842   2.900   8.382 -0.3950  0.0004 -0.3599
 2614TIP3    H229402   5.723   2.929   8.471 -1.3374 -1.6578 -1.0295
 2615TIP3   OH229403   0.022   6.362   3.222 -0.1756  0.2289  0.4315
 2615TIP3    H129404   0.059   6.442   3.184 -0.1854 -0.8586 -2.0856
 2615TIP3    H229405  -0.069   6.361   3.191  0.2933 -1.5466 -1.0304
 2616TIP3   OH229406   6.564   6.309   1.120 -0.0969  0.0251  0.7116
 2616TIP3    H129407   6.474   6.309   1.153 -0.3957  0.7512 -0.0715
 2616TIP3    H229408   6.555   6.317   1.025  0.7135 -2.5855  0.3319
 2617TIP3   OH229409   0.225   2.950   0.706  0.1667  0.1009  0.1880
 2617TIP3    H129410   0.267   3.022   0.659 -0.8435 -0.1135 -1.1023
 2617TIP3    H229411   0.160   2.992   0.762 -1.1583  0.1993 -1.3353
 2618TIP3   OH229412   0.313   0.594   0.359  0.7267 -0.1791 -0.5286
 2618TIP3    H129413   0.294   0.505   0.332  1.6751 -0.2822 -0.9127
 2618TIP3    H229414   0.233   0.643   0.341 -0.1518 -1.1356  0.6320
 2619TIP3   OH229415   6.368   0.795   1.164  0.2013 -0.0838 -0.1651
 2619TIP3    H129416   6.353   0.888   1.180  0.7990  0.2214 -1.2531
 2619TIP3    H229417   6.359   0.786   1.069 -1.9233 -1.5320  0.1090
 2620TIP3   OH229418   2.085   4.760   8.700  0.8036 -0.0416 -0.1413
 2620TIP3    H129419   2.092   4.754   8.605  0.1640  0.9872 -0.2679
 2620TIP3    H229420   1.996   4.730   8.720  0.7138  0.3559  0.0663
 2621TIP3   OH229421   5.834   0.726   2.438  0.2905  0.1569 -0.5679
 2621TIP3    H129422   5.790   0.776   2.507  1.5894  0.8454 -0.2050
 2621TIP3    H229423   5.871   0.650   2.484 -0.8270 -0.6385 -0.9424
 2622TIP3   OH229424   3.263   2.358   1.889  0.3519 -0.3578  0.0394
 2622TIP3    H129425   3.348   2.402   1.890  0.9954 -1.4953  2.5195
 2622TIP3    H229426   3.203   2.421   1.849  1.9677  1.2479  0.0597
 2623TIP3   OH229427   6.085   3.336   8.137 -0.1430 -0.5718 -0.5956
 2623TIP3    H129428   6.020   3.268   8.153 -0.0657 -0.5793 -0.3081
 2623TIP3    H229429   6.066   3.404   8.202  2.1205 -1.9776  1.7485
 2624TIP3   OH229430   1.118   2.730   1.619 -0.1575  0.6319 -0.0516
 2624TIP3    H129431   1.088   2.725   1.710 -0.3534  0.5276 -0.1221
 2624TIP3    H229432   1.082   2.811   1.586 -0.0464  0.6939 -0.0239
 2625TIP3   OH229433   0.743   5.855   3.432 -0.3256  0.2988  0.0704
 2625TIP3    H129434   0.794   5.899   3.365 -0.5339  2.1312  1.0493
 2625TIP3    H229435   0.742   5.763   3.405  2.0217  0.4752 -0.8724
 2626TIP3   OH229436   2.325   4.026   8.632 -0.0443 -0.2250  0.5568
 2626TIP3    H129437   2.298   3.961   8.696  2.2991 -0.9786  0.8914
 2626TIP3    H229438   2.354   3.975   8.556 -0.5267  0.5454 -0.1628
 2627TIP3   OH229439   2.951   4.271   8.874 -0.1447  0.2092  0.3633
 2627TIP3    H129440   2.906   4.272   8.959  0.1643 -0.9367  0.5634
 2627TIP3    H229441   2.894   4.217   8.818  1.1537 -1.6695  0.7591
 2628TIP3   OH229442   6.362   2.449   0.856 -0.6429 -0.4184 -0.0052
 2628TIP3    H129443   6.358   2.522   0.795 -0.9179 -1.4271 -1.2383
 2628TIP3    H229444   6.446   2.407   0.837 -0.1152  0.0333  1.2548
 2629TIP3   OH229445   0.503   5.376   2.688 -0.7938 -0.2696  0.1315
 2629TIP3    H129446   0.435   5.414   2.744  0.3759  1.1782  0.6435
 2629TIP3    H229447   0.538   5.303   2.739 -0.2460  0.5732  0.9997
 2630TIP3   OH229448   4.273   5.064   0.559  0.2678  0.2097 -0.0289
 2630TIP3    H129449   4.297   5.128   0.492 -1.2220  0.1233 -0.7116
 2630TIP3    H229450   4.230   4.994   0.509  1.6352 -1.2102  0.7213
 2631TIP3   OH229451   6.356   4.110   1.211  0.2511  0.1798 -0.6158
 2631TIP3    H129452   6.412   4.035   1.190 -1.0308 -1.3492  1.1229
 2631TIP3    H229453   6.310   4.129   1.129 -0.4594 -1.9034 -0.7625
 2632TIP3   OH229454   4.967   4.967   1.251 -1.3052 -0.6576 -0.3216
 2632TIP3    H129455   4.912   4.916   1.191  0.4357 -1.3657 -1.3999
 2632TIP3    H229456   5.051   4.921   1.251  0.1834  1.8708 -0.8958
 2633TIP3   OH229457   2.675   3.865   8.247 -0.0157 -0.6875 -0.2055
 2633TIP3    H129458   2.737   3.842   8.178  0.5865  0.2424  0.0192
 2633TIP3    H229459   2.707   3.817   8.324 -0.5013 -1.4642 -0.4680
 2634TIP3   OH229460   4.795   5.183   2.183 -0.1255  0.0050 -0.0178
 2634TIP3    H129461   4.756   5.205   2.267 -1.0522  2.0079 -0.9001
 2634TIP3    H229462   4.722   5.158   2.127  0.1283  1.1761 -0.9237
 2635TIP3   OH229463   5.366   1.908   1.529 -0.1685 -0.2533 -0.1262
 2635TIP3    H129464   5.284   1.904   1.579 -0.2128 -2.8674 -0.2990
 2635TIP3    H229465   5.350   1.853   1.452  1.9877 -1.4371  0.2103
 2636TIP3   OH229466   0.433   1.237   1.052  0.5274  0.1547  0.1922
 2636TIP3    H129467   0.452   1.315   1.000  0.1556 -0.1459 -0.3978
 2636TIP3    H229468   0.505   1.177   1.033 -0.7491 -0.8460 -1.7702
 2637TIP3   OH229469   0.665   6.399   2.639  0.3321 -0.2374 -0.0099
 2637TIP3    H129470   0.672   6.489   2.669 -0.6033  0.3529 -1.4597
 2637TIP3    H229471   0.753   6.363   2.650  0.2507  0.1258  2.6421
 2638TIP3   OH229472   6.060   5.332   2.461  0.0431 -0.0167 -1.0449
 2638TIP3    H129473   6.100   5.276   2.394 -1.1258 -1.1232 -0.8566
 2638TIP3    H229474   6.067   5.282   2.542 -0.5822  0.3247 -0.7743
 2639TIP3   OH229475   0.303   5.002   2.243 -0.4749 -0.0219 -0.1274
 2639TIP3    H129476   0.385   4.982   2.197 -1.4481 -1.0530 -1.4723
 2639TIP3    H229477   0.307   4.947   2.322 -0.2925 -0.8022 -0.6686
 2640TIP3   OH229478   0.959   3.698   2.215  0.5679 -0.0766 -0.3906
 2640TIP3    H129479   0.988   3.749   2.140 -2.6813  2.7303  0.0193
 2640TIP3    H229480   0.965   3.759   2.289 -2.3529 -0.5442  0.3541
 2641TIP3   OH229481   1.755   1.898   0.164 -0.2627 -0.2660 -0.1316
 2641TIP3    H129482   1.723   1.819   0.207 -2.4785  0.3830 -0.4485
 2641TIP3    H229483   1.753   1.877   0.071  0.3956 -0.2452 -0.1564
 2642TIP3   OH229484   1.109   3.873   8.822 -0.6860  0.4034 -0.4666
 2642TIP3    H129485   1.136   3.902   8.909 -0.2418 -0.5633 -0.2715
 2642TIP3    H229486   1.112   3.953   8.769 -0.5313  0.9206  0.2966
 2643TIP3   OH229487   1.112   4.261   0.157  0.8692  0.4955 -0.3662
 2643TIP3    H129488   1.128   4.355   0.152  1.7947  0.3484 -0.1994
 2643TIP3    H229489   1.189   4.225   0.201 -0.1978 -0.1484  1.0631
 2644TIP3   OH229490   5.875   1.818   0.256 -0.0499 -0.8212 -0.3445
 2644TIP3    H129491   5.789   1.822   0.299  0.1511  0.4677 -0.0401
 2644TIP3    H229492   5.922   1.749   0.302 -0.1169  0.0110  1.0164
 2645TIP3   OH229493   0.377   3.214   8.788 -0.0927 -0.0433 -0.1069
 2645TIP3    H129494   0.454   3.172   8.750 -1.2025 -2.3662  0.0189
 2645TIP3    H229495   0.319   3.230   8.713  1.1383  3.4127 -0.4788
 2646TIP3   OH229496   5.807   4.067   0.184 -0.0532  0.1857  0.5796
 2646TIP3    H129497   5.738   4.001   0.182  1.6131 -1.7052  1.9150
 2646TIP3    H229498   5.769   4.141   0.232 -0.4532 -1.6981  3.3307
 2647TIP3   OH229499   3.657   6.135   0.893  0.2366  0.0630 -0.4209
 2647TIP3    H129500   3.682   6.047   0.921  1.9511  0.7151  0.2174
 2647TIP3    H229501   3.676   6.191   0.968  1.0680  1.2596 -1.4748
 2648TIP3   OH229502   0.247   6.442   1.600 -1.1376  0.4929  0.8951
 2648TIP3    H129503   0.267   6.399   1.683  2.3184  2.1074  1.0765
 2648TIP3    H229504   0.261   6.536   1.617 -2.6643  1.1150 -0.9271
 2649TIP3   OH229505   4.309   4.235   8.301  0.5682  0.4445  0.1434
 2649TIP3    H129506   4.381   4.173   8.294  0.2202  0.1205 -0.7115
 2649TIP3    H229507   4.331   4.305   8.240  0.4790  0.6732  0.3721
 2650TIP3   OH229508   3.692   6.384   8.786 -0.0967  0.5831 -0.3486
 2650TIP3    H129509   3.781   6.418   8.788 -0.9594  3.1323  2.2809
 2650TIP3    H229510   3.690   6.318   8.856 -0.5450  1.4321  0.4534
 2651TIP3   OH229511   2.033   3.300   1.606 -0.0962  0.4777 -0.3250
 2651TIP3    H129512   2.092   3.286   1.681 -0.9279 -1.6679 -0.0225
 2651TIP3    H229513   1.970   3.364   1.638  1.1005  1.6008 -0.1146
 2652TIP3   OH229514   5.858   0.198   6.571 -0.0655 -0.6412 -0.4271
 2652TIP3    H129515   5.910   0.147   6.634  1.1588  0.5457 -0.4159
 2652TIP3    H229516   5.770   0.199   6.608  1.0775  2.1568  2.7974
 2653TIP3   OH229517   1.553   4.989   1.274 -0.1913  0.3232  0.1985
 2653TIP3    H129518   1.535   4.929   1.201  2.4162  0.7453 -0.8924
 2653TIP3    H229519   1.628   5.041   1.245 -0.6827  2.3128  2.1884
 2654TIP3   OH229520   3.810   2.267   1.244 -0.4562  0.1247 -0.5654
 2654TIP3    H129521   3.902   2.257   1.217 -0.9261 -1.8204 -1.5994
 2654TIP3    H229522   3.761   2.267   1.162 -1.4589  0.0440  0.0250
 2655TIP3   OH229523   3.879   2.536   1.158 -0.4142  0.0119  0.4890
 2655TIP3    H129524   3.862   2.509   1.248 -0.6580  1.1922  0.8015
 2655TIP3    H229525   3.799   2.511   1.110  0.6787 -2.9817  0.0139
 2656TIP3   OH229526   0.657   1.020   1.937 -1.2638 -0.3335  0.3652
 2656TIP3    H129527   0.617   1.069   2.009 -2.3682  1.2483 -1.2375
 2656TIP3    H229528   0.620   0.932   1.944 -2.8766  0.3345  0.6196
 2657TIP3   OH229529   0.259   2.393   7.712  0.1730 -0.0295  0.1295
 2657TIP3    H129530   0.252   2.445   7.792  0.2828  1.0438 -0.5393
 2657TIP3    H229531   0.172   2.355   7.700 -0.7077  2.1119 -0.7422
 2658TIP3   OH229532   2.419   1.885   1.515  0.0044 -0.1204 -0.0389
 2658TIP3    H129533   2.473   1.921   1.445 -0.0882  0.5520  0.2270
 2658TIP3    H229534   2.331   1.882   1.478 -0.0314  0.1604  0.0275
 2659TIP3   OH229535   4.283   1.761   0.026  0.2653 -0.1944 -0.1681
 2659TIP3    H129536   4.237   1.837  -0.008  1.6654  0.3654 -0.9104
 2659TIP3    H229537   4.267   1.763   0.120  0.7300  1.3553 -0.0971
 2660TIP3   OH229538   1.523   2.829   1.316 -0.0562  0.0357 -0.5661
 2660TIP3    H129539   1.541   2.745   1.273 -0.2595 -0.2088 -0.1809
 2660TIP3    H229540   1.484   2.805   1.400 -1.4588  0.5141 -1.0433
 2661TIP3   OH229541   6.211   4.331   7.690  0.5635 -0.2152  0.4561
 2661TIP3    H129542   6.186   4.248   7.731 -0.8542 -0.6364 -1.1893
 2661TIP3    H229543   6.130   4.382   7.685  0.7013 -0.1154 -1.6290
 2662TIP3   OH229544   0.854   2.842   8.529 -0.4431  0.1946 -0.2871
 2662TIP3    H129545   0.927   2.804   8.578 -0.4683  1.3678  0.7090
 2662TIP3    H229546   0.781   2.782   8.543 -0.3901  0.4001  0.9569
 2663TIP3   OH229547   5.855   0.594   0.029 -0.7895  0.1540 -0.4921
 2663TIP3    H129548   5.846   0.499   0.023 -0.3539 -0.0184  1.0501
 2663TIP3    H229549   5.914   0.618  -0.042  1.4370 -1.1393  0.8225
 2664TIP3   OH229550   4.290   0.548   7.815  0.1939 -0.2213 -0.2609
 2664TIP3    H129551   4.319   0.619   7.874  0.9493 -0.8677  0.1598
 2664TIP3    H229552   4.259   0.594   7.737 -2.5716  0.8228  1.2629
 2665TIP3   OH229553   5.146   3.387   1.500  0.1468  0.1696  0.0853
 2665TIP3    H129554   5.241   3.387   1.511  0.1199 -0.1064  0.3318
 2665TIP3    H229555   5.122   3.480   1.495  0.3141  0.2765  1.0642
 2666TIP3   OH229556   5.337   2.650   0.071  0.3311  0.1072  0.2629
 2666TIP3    H129557   5.419   2.699   0.073  0.1956  0.3688 -0.3780
 2666TIP3    H229558   5.306   2.658  -0.019  0.8632 -2.0821 -0.1609
 2667TIP3   OH229559   1.311   5.470   1.562 -0.1758  0.1832 -0.2956
 2667TIP3    H129560   1.325   5.472   1.656 -0.7393 -0.2535 -0.1989
 2667TIP3    H229561   1.399   5.460   1.525  0.1306  1.1592  0.1448
 2668TIP3   OH229562   5.715   1.357   1.095 -1.0718 -0.0666  0.3199
 2668TIP3    H129563   5.803   1.390   1.075 -1.6635 -0.3715 -3.4308
 2668TIP3    H229564   5.725   1.261   1.092 -1.3745 -0.1095  0.7232
 2669TIP3   OH229565   2.510   0.749   8.829  0.7718  0.4455 -0.5034
 2669TIP3    H129566   2.516   0.817   8.896 -0.3242  2.8657 -2.6913
 2669TIP3    H229567   2.595   0.751   8.785  1.1094 -0.3911  0.0805
 2670TIP3   OH229568   3.792   2.090   1.589 -0.4157 -0.1076  0.3992
 2670TIP3    H129569   3.885   2.073   1.580 -0.5736  0.2109 -4.0403
 2670TIP3    H229570   3.787   2.175   1.633  1.2102 -1.0154  2.4902
 2671TIP3   OH229571   6.375   1.821   2.442 -0.0615  0.3151  0.1310
 2671TIP3    H129572   6.335   1.861   2.365 -1.3237 -1.2896 -0.1088
 2671TIP3    H229573   6.462   1.861   2.448  0.3035  0.0997 -2.4664
 2672TIP3   OH229574   4.754   4.894   8.709  0.5791  0.1531 -0.0292
 2672TIP3    H129575   4.829   4.952   8.701  0.0816  0.8458  0.2334
 2672TIP3    H229576   4.725   4.880   8.618  0.6149  0.4297 -0.0837
 2673TIP3   OH229577   3.784   5.644   2.238 -0.2508 -0.2612 -0.1947
 2673TIP3    H129578   3.720   5.575   2.222 -0.2515 -0.3570  0.2202
 2673TIP3    H229579   3.840   5.644   2.160 -0.8397 -0.0811 -0.6262
 2674TIP3   OH229580   0.174   5.340   2.622 -0.2715  0.1967 -0.6982
 2674TIP3    H129581   0.121   5.284   2.678  0.1140 -0.0665 -0.5967
 2674TIP3    H229582   0.225   5.279   2.568  1.1759  0.4232  0.3674
 2675TIP3   OH229583   3.521   1.825   1.416 -0.3609 -0.0331 -0.0087
 2675TIP3    H129584   3.445   1.779   1.381 -0.6122 -0.0688  0.5891
 2675TIP3    H229585   3.556   1.874   1.341  0.3043 -1.7036 -0.8467
 2676TIP3   OH229586   0.753   6.153   8.685  0.5114  0.1487 -0.1492
 2676TIP3    H129587   0.691   6.213   8.727  1.0828  0.6463  0.0072
 2676TIP3    H229588   0.733   6.068   8.723 -0.7885  0.1049 -0.9066
 2677TIP3   OH229589   3.615   2.306   1.754  0.3574 -0.2021 -0.3397
 2677TIP3    H129590   3.679   2.337   1.818  0.7992 -0.9833 -0.3928
 2677TIP3    H229591   3.576   2.229   1.795  0.0709 -0.2386 -0.6759
 2678TIP3   OH229592   3.098   2.772   8.377  0.2304  0.5224  0.4528
 2678TIP3    H129593   3.162   2.728   8.432  1.7518  1.6219 -0.3687
 2678TIP3    H229594   3.036   2.811   8.439  1.7400  1.5019  1.4064
 2679TIP3   OH229595   4.006   1.245   2.079 -0.1033 -0.5339 -0.6134
 2679TIP3    H129596   3.984   1.222   2.169  0.3789 -3.1326 -1.0823
 2679TIP3    H229597   3.959   1.181   2.025  1.7335 -0.7767 -2.0354
 2680TIP3   OH229598   1.160   2.524   1.421  0.5675 -0.1204  0.1294
 2680TIP3    H129599   1.151   2.603   1.474 -2.2718  0.5569 -1.1522
 2680TIP3    H229600   1.188   2.556   1.335  1.5439 -0.7936  0.1816
 2681TIP3   OH229601   4.361   4.223   7.138  0.1237  0.1670  0.3555
 2681TIP3    H129602   4.391   4.231   7.048 -0.9918  0.5378  0.0026
 2681TIP3    H229603   4.421   4.160   7.178 -0.2565 -1.1569 -1.0544
 2682TIP3   OH229604   4.049   0.278   0.110 -0.0232  0.2796  0.1084
 2682TIP3    H129605   4.035   0.347   0.046 -0.3197 -0.0488 -0.1834
 2682TIP3    H229606   4.141   0.287   0.135 -0.1066  0.8959  0.2149
 2683TIP3   OH229607   3.666   2.551   8.781 -0.1653 -0.0991 -0.0922
 2683TIP3    H129608   3.590   2.511   8.824  0.3683 -0.6283  0.3757
 2683TIP3    H229609   3.705   2.607   8.849 -0.2923  0.3842 -0.4152
 2684TIP3   OH229610   2.639   5.493   0.673 -0.4083 -0.0302 -0.0722
 2684TIP3    H129611   2.612   5.538   0.753  0.3110 -0.9415  0.7188
 2684TIP3    H229612   2.560   5.448   0.643 -1.0463  1.4460 -0.6881
 2685TIP3   OH229613   4.969   4.393   7.194  0.1901 -0.6858 -0.3555
 2685TIP3    H129614   5.058   4.359   7.181  0.6036 -0.5956  1.9280
 2685TIP3    H229615   4.912   4.317   7.181  0.8308 -1.4213  0.9385
 2686TIP3   OH229616   6.353   2.048   0.962  0.0114 -0.1304 -0.1854
 2686TIP3    H129617   6.431   2.021   0.913  0.3232  0.8342 -0.2321
 2686TIP3    H229618   6.384   2.115   1.022 -0.9191  0.8298 -0.7450
 2687TIP3   OH229619   3.849   2.455   0.492  0.6663  0.4642  0.1471
 2687TIP3    H129620   3.840   2.465   0.586  0.5904 -1.8311  0.4351
 2687TIP3    H229621   3.880   2.540   0.462 -0.3812  1.5888  2.0701
 2688TIP3   OH229622   2.083   1.431   2.725 -0.0319  0.5915 -0.6776
 2688TIP3    H129623   2.005   1.454   2.676 -0.6490 -0.6802 -0.3388
 2688TIP3    H229624   2.099   1.506   2.782 -0.6427  1.1183 -1.1879
 2689TIP3   OH229625   5.272   4.112   8.039  0.0383 -1.0157  0.3703
 2689TIP3    H129626   5.266   4.193   7.988  0.0804 -0.4689  1.2058
 2689TIP3    H229627   5.181   4.087   8.054 -0.0682  0.3740  2.3837
 2690TIP3   OH229628   0.040   2.783   9.054 -0.2244  0.2854  0.2576
 2690TIP3    H129629  -0.009   2.720   9.001 -1.3516 -0.8570  2.5230
 2690TIP3    H229630   0.114   2.808   8.999 -0.3403 -2.1847 -1.1577
 2691TIP3   OH229631   5.229   3.749   8.244 -0.9553  0.1163 -0.4272
 2691TIP3    H129632   5.288   3.801   8.190 -1.0501  1.8797  1.0772
 2691TIP3    H229633   5.286   3.689   8.292 -0.2988  1.7850  0.9913
 2692TIP3   OH229634   1.593   1.681   7.506  0.4942 -0.1656 -0.0022
 2692TIP3    H129635   1.565   1.760   7.459  0.7178  0.7829  1.4103
 2692TIP3    H229636   1.573   1.610   7.445 -0.3749  0.8999 -1.0348
 2693TIP3   OH229637   3.615   6.661   8.510  0.2435 -0.6651  0.6312
 2693TIP3    H129638   3.593   6.741   8.557  0.2360  0.1983 -0.7713
 2693TIP3    H229639   3.566   6.592   8.555  0.9054 -0.0521  2.3862
 2694TIP3   OH229640   3.811   5.666   8.112  0.3253 -0.4088 -0.5725
 2694TIP3    H129641   3.862   5.678   8.032  0.2958 -0.3832 -0.5877
 2694TIP3    H229642   3.734   5.722   8.099  0.0704 -0.7971 -0.7439
 2695TIP3   OH229643   1.644   0.147   0.883 -0.6952 -0.5292 -0.2468
 2695TIP3    H129644   1.612   0.237   0.888 -0.6822 -0.5288 -0.1637
 2695TIP3    H229645   1.629   0.120   0.792  0.4446 -0.0181 -0.6003
 2696TIP3   OH229646   3.863   5.420   3.052 -0.1216  0.4358  0.2503
 2696TIP3    H129647   3.875   5.422   3.147 -1.3006 -1.5680  0.4827
 2696TIP3    H229648   3.840   5.330   3.032  1.4935  0.4504 -2.1586
 2697TIP3   OH229649   2.227   2.343   0.740 -0.4608 -0.3256  0.7297
 2697TIP3    H129650   2.190   2.284   0.675  1.8763 -0.0544 -0.9770
 2697TIP3    H229651   2.317   2.312   0.752  0.7406  2.5692  0.0545
 2698TIP3   OH229652   2.504   2.243   1.000 -0.3129 -0.4690 -0.1914
 2698TIP3    H129653   2.586   2.237   1.050 -0.2775  1.8128  0.0998
 2698TIP3    H229654   2.532   2.246   0.909  0.1827  2.7014 -0.0256
 2699TIP3   OH229655   0.109   5.050   8.187 -0.3393  0.1019  0.7061
 2699TIP3    H129656   0.038   5.047   8.122  0.7807  0.1998 -0.5857
 2699TIP3    H229657   0.082   4.990   8.256 -2.6873  1.7782  1.3613
 2700TIP3   OH229658   5.378   1.783   7.983 -0.4105 -0.0837  0.0944
 2700TIP3    H129659   5.360   1.689   7.982 -0.2875 -0.1070  0.0449
 2700TIP3    H229660   5.451   1.794   7.922 -1.7093  0.3112 -1.4708
 2701TIP3   OH229661   5.828   6.504   0.682 -0.5123  0.3006  0.0326
 2701TIP3    H129662   5.902   6.521   0.740  0.8608 -2.4022 -0.7356
 2701TIP3    H229663   5.762   6.464   0.738  0.0138 -0.4402  0.1461
 2702TIP3   OH229664   5.668   2.008   8.578 -0.1387  0.4709  0.5070
 2702TIP3    H129665   5.710   2.034   8.496 -0.8093  1.5978  0.5037
 2702TIP3    H229666   5.698   1.918   8.593 -0.5285 -0.0009 -1.3127
 2703TIP3   OH229667   3.696   0.728   1.459 -0.1864 -0.1723  0.4150
 2703TIP3    H129668   3.666   0.681   1.537 -0.3105 -1.3625 -0.3205
 2703TIP3    H229669   3.789   0.740   1.473 -0.2957  0.0777  0.9686
 2704TIP3   OH229670   3.441   5.534   1.948 -0.4353 -0.0018 -0.5110
 2704TIP3    H129671   3.454   5.497   2.035 -0.8873  2.7265  0.8516
 2704TIP3    H229672   3.513   5.499   1.895  1.2724  0.0982  1.6308
 2705TIP3   OH229673   4.505   1.187   2.065 -0.3841 -0.1361 -0.3373
 2705TIP3    H129674   4.553   1.182   1.982 -0.4469 -2.7761 -0.2913
 2705TIP3    H229675   4.548   1.258   2.113  0.5070  0.5726 -2.0953
 2706TIP3   OH229676   5.942   0.807   1.098  0.4161 -0.1628  0.1160
 2706TIP3    H129677   5.959   0.787   1.006 -0.1528  0.8868 -0.2276
 2706TIP3    H229678   5.850   0.832   1.101 -0.1810 -2.2721  1.3507
 2707TIP3   OH229679   2.014   1.349   1.679  0.0658 -0.1902  0.5405
 2707TIP3    H129680   1.972   1.318   1.760 -0.4058  2.0406  1.2135
 2707TIP3    H229681   1.941   1.372   1.622  0.4056 -1.3215 -0.3762
 2708TIP3   OH229682   3.532   0.722   7.399  0.4828 -0.6022  0.6335
 2708TIP3    H129683   3.439   0.701   7.412  0.2100 -0.6435 -1.0684
 2708TIP3    H229684   3.541   0.812   7.429 -0.3366 -0.2938  0.0030
 2709TIP3   OH229685   5.535   3.385   8.696  0.5133 -0.0887 -0.2053
 2709TIP3    H129686   5.503   3.475   8.695 -1.7269 -0.7916  0.3240
 2709TIP3    H229687   5.525   3.358   8.788  1.9357 -0.6296 -0.1976
 2710TIP3   OH229688   0.259   1.555   2.177  0.1310 -0.3420 -0.1268
 2710TIP3    H129689   0.234   1.465   2.154 -0.9487 -0.3194  0.8559
 2710TIP3    H229690   0.176   1.598   2.197  0.6746  0.7690 -0.1981
 2711TIP3   OH229691   1.050   5.291   1.049  0.0636  0.2261  0.6102
 2711TIP3    H129692   1.141   5.321   1.056 -0.4365  1.8440  0.6966
 2711TIP3    H229693   1.039   5.230   1.121  1.3392 -0.7477  0.0177
 2712TIP3   OH229694   3.802   0.648   1.015  0.4079  1.0659 -0.5592
 2712TIP3    H129695   3.815   0.732   1.060  1.2295  0.8853 -0.4506
 2712TIP3    H229696   3.849   0.659   0.932  3.2690 -0.3797  0.7569
 2713TIP3   OH229697   0.268   6.011   8.059  0.0727  0.7124  0.8087
 2713TIP3    H129698   0.283   6.036   7.968 -2.3937  1.5968  0.5694
 2713TIP3    H229699   0.311   6.080   8.110  3.1863 -0.8032  0.4804
 2714TIP3   OH229700   4.644   4.600   2.541 -0.1352 -0.5245 -0.7894
 2714TIP3    H129701   4.627   4.506   2.527 -0.2137 -0.5818 -0.3345
 2714TIP3    H229702   4.677   4.631   2.457 -0.7986 -0.8030 -1.1661
 2715TIP3   OH229703   6.637   4.619   0.520 -0.1115  0.0150  0.1774
 2715TIP3    H129704   6.551   4.591   0.552 -0.0319  1.3629  1.7205
 2715TIP3    H229705   6.699   4.573   0.576  0.2990 -2.0147 -1.8001
 2716TIP3   OH229706   0.982   2.960   0.684  0.2628  0.2566 -0.2800
 2716TIP3    H129707   0.902   2.917   0.653  0.3662  0.4015 -0.7594
 2716TIP3    H229708   0.951   3.037   0.732 -0.2028 -2.5282  4.4924
 2717TIP3   OH229709   4.006   0.215   8.099 -0.2628 -0.7382  0.1744
 2717TIP3    H129710   3.927   0.210   8.044  1.0251 -2.3652 -1.6589
 2717TIP3    H229711   4.078   0.208   8.037  1.4083  1.3076  1.7291
 2718TIP3   OH229712   1.742   1.478   0.914  0.2987  0.3466  0.5681
 2718TIP3    H129713   1.760   1.494   1.007  3.3954  2.3262 -0.2254
 2718TIP3    H229714   1.801   1.406   0.891 -2.9020 -2.5738  0.7451
 2719TIP3   OH229715   2.811   6.196   1.340 -0.2061 -0.6537 -0.6467
 2719TIP3    H129716   2.883   6.166   1.284  0.4078  0.4326 -0.4743
 2719TIP3    H229717   2.833   6.163   1.427  1.8226  2.2682  0.0901
 2720TIP3   OH229718   4.013   6.730   7.840  0.3405  0.0767  0.3100
 2720TIP3    H129719   3.922   6.741   7.811 -0.1120  0.4183  1.7717
 2720TIP3    H229720   4.062   6.718   7.759 -1.1415 -1.1679 -0.4660
 2721TIP3   OH229721   2.010   5.808   2.036 -0.2553 -0.1566 -0.4930
 2721TIP3    H129722   2.056   5.809   2.120 -0.1699  1.8824 -0.5022
 2721TIP3    H229723   2.079   5.806   1.970 -0.3171 -3.5160 -0.6369
 2722TIP3   OH229724   2.947   6.303   1.842 -0.6440  0.4828  0.0823
 2722TIP3    H129725   2.859   6.267   1.853  0.2776 -1.4768  1.5177
 2722TIP3    H229726   2.972   6.333   1.929  1.2341 -1.8602  0.4566
 2723TIP3   OH229727   1.732   5.289   3.090  0.0160  0.3876  0.1731
 2723TIP3    H129728   1.804   5.351   3.095  0.0157  0.6129 -1.7820
 2723TIP3    H229729   1.695   5.302   3.002 -1.5720 -0.6314  0.6476
 2724TIP3   OH229730   2.890   2.455   8.536  0.4596 -0.0227  0.2475
 2724TIP3    H129731   2.879   2.518   8.465  2.4042  1.5582  1.2585
 2724TIP3    H229732   2.923   2.376   8.493  0.7216  0.6053 -0.7396
 2725TIP3   OH229733   2.671   3.311   1.103  0.4892 -0.4027 -0.7033
 2725TIP3    H129734   2.704   3.240   1.048  0.8688 -1.0022  0.2679
 2725TIP3    H229735   2.636   3.267   1.181 -0.3077  0.4013 -0.5835
 2726TIP3   OH229736   5.236   5.714   8.693 -0.0916 -0.0272  0.1213
 2726TIP3    H129737   5.178   5.638   8.703 -0.9500  0.7393  1.2922
 2726TIP3    H229738   5.225   5.763   8.775  1.2237  0.8262 -0.1897
 2727TIP3   OH229739   3.647   2.535   7.157  0.3214 -0.6777 -0.0374
 2727TIP3    H129740   3.606   2.616   7.189 -0.3081 -0.9662 -0.1011
 2727TIP3    H229741   3.575   2.485   7.119  0.9881 -0.4109 -1.7847
 2728TIP3   OH229742   3.045   1.801   8.328  0.2065  0.3424 -0.4875
 2728TIP3    H129743   3.122   1.769   8.281  1.1085  2.5060 -0.6274
 2728TIP3    H229744   3.081   1.845   8.405 -1.0454 -0.2729  0.4711
 2729TIP3   OH229745   5.262   2.868   7.954  0.6987  0.4015 -0.0649
 2729TIP3    H129746   5.322   2.817   7.899  1.1619  0.3785  0.4482
 2729TIP3    H229747   5.317   2.898   8.026 -0.3502 -1.3071  1.5046
 2730TIP3   OH229748   6.568   0.963   8.959  0.1110  0.4501  0.7168
 2730TIP3    H129749   6.534   0.941   9.045  0.8059  0.4821  1.0034
 2730TIP3    H229750   6.618   1.044   8.973  0.0357  0.5843  0.2385
 2731TIP3   OH229751   0.110   3.564   1.132  0.7984 -0.0230 -0.0033
 2731TIP3    H129752   0.115   3.562   1.228  0.7480  1.2308  0.0447
 2731TIP3    H229753   0.183   3.621   1.106 -0.7477  1.8569 -0.5233
 2732TIP3   OH229754   0.459   0.394   0.044 -0.2062 -0.1973  0.5738
 2732TIP3    H129755   0.402   0.426  -0.026  0.1672 -0.7341  0.0119
 2732TIP3    H229756   0.401   0.385   0.119 -0.4751  1.0305  0.5306
 2733TIP3   OH229757   3.474   2.698   0.723 -0.1068 -0.3936  0.0475
 2733TIP3    H129758   3.405   2.749   0.680  0.2543  0.5567  0.5878
 2733TIP3    H229759   3.441   2.683   0.812 -0.1089 -0.9202 -0.0363
 2734TIP3   OH229760   2.087   5.052   2.729 -0.0528  0.6882  0.7240
 2734TIP3    H129761   2.045   5.120   2.781 -1.6102  0.3520 -0.0416
 2734TIP3    H229762   2.020   5.025   2.666  1.5239  0.5820 -0.9870
 2735TIP3   OH229763   5.632   2.682   0.318 -0.0345  0.4711 -0.1873
 2735TIP3    H129764   5.630   2.588   0.299  2.4518  0.3935 -0.3847
 2735TIP3    H229765   5.673   2.689   0.403  0.8707  1.4185 -0.6799
 2736TIP3   OH229766   5.526   1.665   8.261  0.0225 -0.4639  0.1509
 2736TIP3    H129767   5.460   1.709   8.315  0.1223 -2.8281  2.4352
 2736TIP3    H229768   5.479   1.633   8.184 -0.1816  2.7976 -1.2098
 2737TIP3   OH229769   3.917   5.339   7.398  0.1894  0.5273  0.3558
 2737TIP3    H129770   3.852   5.406   7.379 -0.7573  0.0433  1.7330
 2737TIP3    H229771   3.985   5.385   7.447 -0.3011  0.5459  1.0198
 2738TIP3   OH229772   3.113   5.616   1.022  0.0416  0.3253 -0.0048
 2738TIP3    H129773   3.151   5.655   0.944 -1.5876  1.1980 -0.4062
 2738TIP3    H229774   3.019   5.634   1.015 -0.1660  0.3369  2.0885
 2739TIP3   OH229775   0.491   1.445   9.073  0.6470  0.1111 -0.1889
 2739TIP3    H129776   0.472   1.482   8.987  0.1834  0.8286  0.2073
 2739TIP3    H229777   0.497   1.521   9.131  1.4049 -0.3311  0.3355
 2740TIP3   OH229778   0.746   5.282   7.447 -0.0828 -0.5099  0.0131
 2740TIP3    H129779   0.736   5.366   7.403  0.4533  0.6417  1.9562
 2740TIP3    H229780   0.657   5.249   7.455 -0.4952  0.6884  0.6824
 2741TIP3   OH229781   2.888   2.278   1.861 -0.6776  0.0098 -0.4307
 2741TIP3    H129782   2.947   2.348   1.834  0.2616  0.1357  1.7354
 2741TIP3    H229783   2.929   2.198   1.829 -0.2040  0.2285 -0.3830
 2742TIP3   OH229784   1.139   5.665   8.350  0.1278 -0.9494  0.3257
 2742TIP3    H129785   1.156   5.699   8.263  0.9120 -3.1280 -0.4330
 2742TIP3    H229786   1.185   5.581   8.353  1.1986 -0.4052  3.2689
 2743TIP3   OH229787   4.846   0.140   7.907  0.7046 -0.1399  0.3144
 2743TIP3    H129788   4.874   0.061   7.954 -0.5804 -0.2007  0.9972
 2743TIP3    H229789   4.893   0.134   7.823  0.7447 -1.5556  0.4032
 2744TIP3   OH229790   5.625   4.907   8.284 -0.5628 -0.3231 -0.3222
 2744TIP3    H129791   5.579   4.847   8.225 -1.5897 -0.4761  0.6081
 2744TIP3    H229792   5.670   4.968   8.226  0.2283 -1.7758 -1.2895
 2745TIP3   OH229793   0.353   5.202   0.425  0.4251 -0.1001 -0.1912
 2745TIP3    H129794   0.270   5.246   0.408 -0.5373  0.1568  3.9759
 2745TIP3    H229795   0.350   5.122   0.373 -2.4688 -0.0670 -0.2098
 2746TIP3   OH229796   3.949   0.791   0.026 -0.4949  0.0402 -0.8663
 2746TIP3    H129797   3.879   0.836   0.072 -0.0212 -0.7957  0.7649
 2746TIP3    H229798   4.022   0.853   0.027  0.0543 -0.5512  1.0902
 2747TIP3   OH229799   2.038   5.958   1.455 -0.0091 -0.5385 -0.4806
 2747TIP3    H129800   1.998   5.904   1.523  0.4885  0.3155  0.5087
 2747TIP3    H229801   2.009   6.047   1.476 -0.8169 -0.3817 -2.0801
 2748TIP3   OH229802   4.552   4.095   8.258  0.3401 -0.1875 -0.1664
 2748TIP3    H129803   4.603   4.160   8.210 -1.0560  1.1723  0.0703
 2748TIP3    H229804   4.601   4.081   8.339  0.9647  0.1250 -0.4822
 2749TIP3   OH229805   4.497   1.619   7.948  0.3850 -0.0319  0.4379
 2749TIP3    H129806   4.475   1.538   7.903 -1.3749 -1.2003  3.1080
 2749TIP3    H229807   4.592   1.617   7.958  0.7672 -0.0182 -2.4577
 2750TIP3   OH229808   1.501   1.502   3.026  0.4388 -0.4928  0.3217
 2750TIP3    H129809   1.472   1.466   2.942 -0.4204  0.4738  0.1893
 2750TIP3    H229810   1.493   1.597   3.016  2.5384 -0.2142  0.6989
 2751TIP3   OH229811   4.526   2.986   6.968 -0.2521 -0.3003  0.6284
 2751TIP3    H129812   4.558   2.897   6.954 -0.7342 -0.3140 -0.4846
 2751TIP3    H229813   4.509   2.991   7.062  0.8746 -1.0029  0.8897
 2752TIP3   OH229814   6.264   5.013   0.014 -0.1918  0.3495  0.5162
 2752TIP3    H129815   6.195   5.074  -0.013  0.5105  1.0662  0.2666
 2752TIP3    H229816   6.345   5.054  -0.018  0.5747  0.5959  2.5933
 2753TIP3   OH229817   3.728   6.415   2.049  0.2103 -0.3294 -0.0024
 2753TIP3    H129818   3.748   6.352   2.119  1.2190 -0.4947 -0.4129
 2753TIP3    H229819   3.712   6.360   1.972  0.1715 -0.1141 -0.1485
 2754TIP3   OH229820   1.299   4.970   2.281 -0.1169  0.3032 -0.4412
 2754TIP3    H129821   1.353   4.957   2.359 -0.8032  1.0146  0.1700
 2754TIP3    H229822   1.258   5.055   2.294 -0.4542  0.3121 -1.4617
 2755TIP3   OH229823   0.201   2.105   0.784 -0.1007 -0.3568 -0.3335
 2755TIP3    H129824   0.190   2.048   0.708 -0.5501 -0.6603 -0.0480
 2755TIP3    H229825   0.115   2.107   0.826  0.0153  0.2166 -0.1175
 2756TIP3   OH229826   2.244   5.002   0.334 -1.1735  0.1356 -0.2982
 2756TIP3    H129827   2.272   5.084   0.294  0.9009 -0.7535 -0.7901
 2756TIP3    H229828   2.307   4.986   0.404 -0.6034 -1.7705 -1.1751
 2757TIP3   OH229829   2.220   0.502   2.013  0.2311 -0.4399 -0.2590
 2757TIP3    H129830   2.168   0.483   1.935  0.3474 -1.0909 -0.1788
 2757TIP3    H229831   2.272   0.579   1.988  1.1826 -1.3747 -1.2673
 2758TIP3   OH229832   4.561   3.431   1.250 -0.0650 -0.5078  0.0045
 2758TIP3    H129833   4.492   3.397   1.306 -0.9043  1.6012  0.3587
 2758TIP3    H229834   4.603   3.354   1.213 -1.6974 -1.8699  0.8777
 2759TIP3   OH229835   4.583   5.561   1.052  0.2139 -0.2813  0.0686
 2759TIP3    H129836   4.536   5.504   0.991  0.0585 -1.6275  1.4101
 2759TIP3    H229837   4.530   5.641   1.055  0.8253  0.2868 -2.3966
 2760TIP3   OH229838   3.313   1.676   7.622  0.1728 -0.0891  0.2875
 2760TIP3    H129839   3.219   1.664   7.607 -0.0479 -1.7804  2.5600
 2760TIP3    H229840   3.355   1.607   7.572  0.3281  1.1701 -1.4003
 2761TIP3   OH229841   2.548   2.229   0.726 -0.3395  1.1388  0.3167
 2761TIP3    H129842   2.551   2.320   0.695 -2.4968  0.6074 -1.7514
 2761TIP3    H229843   2.526   2.178   0.648  1.4697 -1.2968  1.2751
 2762TIP3   OH229844   5.960   5.101   0.661  0.3533  0.1400 -0.0290
 2762TIP3    H129845   5.925   5.138   0.581  1.5193  2.3303  0.4077
 2762TIP3    H229846   5.993   5.014   0.635  1.4520  1.1195 -2.1225
 2763TIP3   OH229847   1.876   5.160   8.664  0.0731 -0.2886 -0.2257
 2763TIP3    H129848   1.855   5.113   8.744  0.4058 -0.8559 -0.4648
 2763TIP3    H229849   1.867   5.253   8.687 -1.9637 -0.4767 -0.1311
 2764TIP3   OH229850   6.641   4.110   2.048  0.3295 -0.1341  0.3921
 2764TIP3    H129851   6.723   4.159   2.058  0.1229 -0.1611  2.5592
 2764TIP3    H229852   6.668   4.018   2.043  0.4142 -0.2252  2.0798
 2765TIP3   OH229853   2.635   3.385   1.821 -0.0718  0.4670  0.3653
 2765TIP3    H129854   2.643   3.319   1.752  2.2081 -0.2735  1.2359
 2765TIP3    H229855   2.541   3.388   1.841 -0.4432 -1.2650 -0.8917
 2766TIP3   OH229856   1.362   1.153   1.373 -0.3255  0.3612 -0.2458
 2766TIP3    H129857   1.362   1.059   1.388 -0.4255  0.3805 -0.1171
 2766TIP3    H229858   1.394   1.190   1.455 -1.8634  0.5232  0.3169
 2767TIP3   OH229859   0.713   3.326   7.847 -0.1085 -0.1328  0.1864
 2767TIP3    H129860   0.804   3.308   7.822 -0.2084 -0.2432 -0.0938
 2767TIP3    H229861   0.721   3.393   7.915  0.1460  0.5378 -0.4796
 2768TIP3   OH229862   2.137   6.501   1.062  0.2814 -0.4892 -0.2244
 2768TIP3    H129863   2.136   6.522   1.155 -0.2679 -0.3168 -0.2636
 2768TIP3    H229864   2.190   6.569   1.022  2.3622 -1.7485  0.2168
 2769TIP3   OH229865   3.952   5.790   0.269  0.5150  0.2371 -0.3639
 2769TIP3    H129866   3.884   5.738   0.226  0.8859 -1.1711  0.6846
 2769TIP3    H229867   3.987   5.847   0.200 -0.0907 -0.7036 -1.4741
 2770TIP3   OH229868   3.264   2.040   0.956  0.4939 -0.7987 -0.6626
 2770TIP3    H129869   3.304   2.015   1.039 -0.5322 -0.1755  0.0301
 2770TIP3    H229870   3.221   2.123   0.973 -1.0463 -1.4011 -1.3859
 2771TIP3   OH229871   4.492   0.729   7.426  0.0019 -0.0667 -0.0678
 2771TIP3    H129872   4.490   0.805   7.368  0.1242  0.3257  0.4380
 2771TIP3    H229873   4.584   0.719   7.450 -0.0868 -0.0501  0.2873
 2772TIP3   OH229874   0.502   2.467   8.047 -0.6195 -0.3010  0.4896
 2772TIP3    H129875   0.454   2.527   8.103 -0.1356  1.4579 -0.9170
 2772TIP3    H229876   0.497   2.505   7.960  0.2094 -2.0051 -0.3516
 2773TIP3   OH229877   3.766   0.942   8.449  0.1186  0.1500 -0.1142
 2773TIP3    H129878   3.765   0.910   8.539 -1.9203 -1.2850 -0.5794
 2773TIP3    H229879   3.700   0.889   8.404  1.5518  0.3331 -2.6358
 2774TIP3   OH229880   0.135   0.853   0.354  0.0935  0.3743  0.1531
 2774TIP3    H129881   0.155   0.935   0.309 -1.6862  1.4947  1.2508
 2774TIP3    H229882   0.171   0.864   0.442 -0.3654  0.1107  0.3821
 2775TIP3   OH229883   4.395   1.083   0.147  0.0009  0.5432  0.7581
 2775TIP3    H129884   4.475   1.118   0.109 -0.2070  1.2693  0.9759
 2775TIP3    H229885   4.402   1.103   0.240  0.1468 -0.5275  0.9857
 2776TIP3   OH229886   3.447   3.471   8.121  0.5373  0.7549 -0.6598
 2776TIP3    H129887   3.521   3.528   8.099  0.6811  0.5593 -0.6772
 2776TIP3    H229888   3.445   3.471   8.217  0.4591  0.8917 -0.6615
 2777TIP3   OH229889   0.737   0.042   1.514 -0.3634  0.1494 -0.1350
 2777TIP3    H129890   0.826   0.028   1.481  0.4132  1.1945  1.3823
 2777TIP3    H229891   0.737   0.132   1.545 -2.2173  0.4258 -0.7947
 2778TIP3   OH229892   1.563   2.307   9.067  0.6655 -0.9338 -0.2188
 2778TIP3    H129893   1.584   2.299   8.974 -0.3636  1.3733 -0.7195
 2778TIP3    H229894   1.468   2.312   9.070  0.7235 -0.2405  0.8903
 2779TIP3   OH229895   6.154   3.681   8.215  0.0578  0.5214 -0.2750
 2779TIP3    H129896   6.150   3.710   8.306 -0.9938 -0.9352  0.1775
 2779TIP3    H229897   6.247   3.671   8.197  0.2406 -1.2796  1.3817
 2780TIP3   OH229898   6.492   1.731   8.636 -0.1258  0.0519  0.3099
 2780TIP3    H129899   6.584   1.740   8.614 -0.2481  0.9309  0.0976
 2780TIP3    H229900   6.456   1.820   8.625 -0.6879  0.0338  1.7661
 2781TIP3   OH229901   6.227   2.241   1.414  0.0570  0.4046 -0.2221
 2781TIP3    H129902   6.197   2.308   1.475  0.2443  0.2865  0.0033
 2781TIP3    H229903   6.281   2.287   1.351  1.3515  0.2686  0.7410
 2782TIP3   OH229904   3.998   1.768   0.071  0.4120 -0.7036  0.0895
 2782TIP3    H129905   4.069   1.731   0.019 -0.6734 -0.1079 -1.9191
 2782TIP3    H229906   3.919   1.720   0.043 -0.8488  2.1874 -1.7899
 2783TIP3   OH229907   4.159   0.029   0.990  0.3711 -0.0176 -0.1306
 2783TIP3    H129908   4.087   0.026   0.927  0.8437 -0.5399 -0.6622
 2783TIP3    H229909   4.125  -0.015   1.068  0.6884 -1.9359 -1.0089
 2784TIP3   OH229910   0.498   5.012   1.223 -0.3495 -0.6066  0.8638
 2784TIP3    H129911   0.414   5.057   1.227  0.3390  0.6767  1.4260
 2784TIP3    H229912   0.563   5.082   1.214  0.7315 -1.5065  1.3750
 2785TIP3   OH229913   6.356   1.178   1.242 -0.3782 -0.3894 -0.6911
 2785TIP3    H129914   6.283   1.213   1.190  0.3652  0.7997 -0.9886
 2785TIP3    H229915   6.337   1.207   1.331  0.5095  1.3617 -1.0189
 2786TIP3   OH229916   2.366   2.326   7.070  0.2309 -0.3727 -0.4538
 2786TIP3    H129917   2.284   2.357   7.031  0.5531 -1.3796 -2.0368
 2786TIP3    H229918   2.431   2.390   7.041  0.0885  0.2169  0.4890
 2787TIP3   OH229919   1.168   0.061   1.822 -0.8363  0.5604 -0.4738
 2787TIP3    H129920   1.159   0.156   1.814 -0.6007  0.7815  1.2995
 2787TIP3    H229921   1.095   0.035   1.878 -0.4345 -0.1685 -0.2767
 2788TIP3   OH229922   5.362   0.762   7.847 -0.2950 -0.1338 -0.0822
 2788TIP3    H129923   5.318   0.678   7.858 -0.3814  0.1176  1.7466
 2788TIP3    H229924   5.455   0.740   7.838 -0.6546 -0.7036 -4.4460
 2789TIP3   OH229925   2.382   2.770   1.415  0.0554 -0.2106  0.1987
 2789TIP3    H129926   2.353   2.730   1.497 -0.8610  0.0849  0.0308
 2789TIP3    H229927   2.309   2.827   1.389  0.8505  0.6653 -0.1720
 2790TIP3   OH229928   4.578   2.540   8.005  0.9494 -0.0886 -0.2268
 2790TIP3    H129929   4.564   2.548   7.911 -1.3772  1.1191  0.1638
 2790TIP3    H229930   4.532   2.460   8.030 -0.1140  0.6231  0.1488
 2791TIP3   OH229931   3.556   6.576   0.495  0.5347  0.1609  0.0393
 2791TIP3    H129932   3.554   6.670   0.479 -1.0962  0.0317 -0.7306
 2791TIP3    H229933   3.493   6.562   0.566  3.1918 -0.0161  2.5808
 2792TIP3   OH229934   2.055   5.161   0.592 -0.3968 -0.0880  0.5077
 2792TIP3    H129935   2.005   5.242   0.589 -0.8885 -0.4123 -2.0392
 2792TIP3    H229936   1.990   5.091   0.582  0.2620 -0.6815  0.2453
 2793TIP3   OH229937   6.472   5.900   7.367  0.5649 -0.2133  0.3968
 2793TIP3    H129938   6.477   5.811   7.399  0.2066 -1.1353 -1.8841
 2793TIP3    H229939   6.408   5.896   7.295  1.2830  1.6424 -0.4160
 2794TIP3   OH229940   2.489   4.778   1.347  0.6159  0.4079  0.1319
 2794TIP3    H129941   2.490   4.829   1.265  0.5029 -0.8278 -0.6655
 2794TIP3    H229942   2.400   4.745   1.353  1.0323 -0.8034 -0.0922
 2795TIP3   OH229943   6.517   5.277   2.548 -0.2130  0.1471  0.2342
 2795TIP3    H129944   6.542   5.280   2.455 -1.0970 -0.5580 -0.0416
 2795TIP3    H229945   6.581   5.219   2.588  0.7467  1.1886  0.2747
 2796TIP3   OH229946   5.324   5.555   0.594 -0.0055 -0.0851  0.0950
 2796TIP3    H129947   5.408   5.528   0.631  1.4948  0.1872 -2.8351
 2796TIP3    H229948   5.266   5.479   0.606  0.1531  0.1494  3.2511
 2797TIP3   OH229949   5.425   2.461   1.573  0.1340 -0.1292 -0.0473
 2797TIP3    H129950   5.342   2.507   1.586  1.0687  1.6490 -0.1106
 2797TIP3    H229951   5.399   2.374   1.542 -1.6964  0.3145  0.1094
 2798TIP3   OH229952   3.593   3.180   1.416  0.4189 -0.1454  0.2542
 2798TIP3    H129953   3.534   3.232   1.471  0.6105  0.4243 -0.0691
 2798TIP3    H229954   3.649   3.245   1.373  1.8021 -0.7198  1.1419
 2799TIP3   OH229955   0.086   0.152   2.560 -0.3851 -0.7428  0.6460
 2799TIP3    H129956   0.000   0.116   2.539 -0.7078  0.6271 -0.4674
 2799TIP3    H229957   0.069   0.220   2.625 -0.0031 -1.1608  1.2005
 2800TIP3   OH229958   1.855   2.374   8.996 -0.0335  0.3496 -0.5501
 2800TIP3    H129959   1.944   2.410   8.988 -0.5120  1.4441 -1.1443
 2800TIP3    H229960   1.798   2.450   8.986 -1.0376 -0.0514  1.5707
 2801TIP3   OH229961   2.329   1.594   0.024  0.0913  0.1874  0.1881
 2801TIP3    H129962   2.303   1.585  -0.068  0.2198 -1.5114  0.2866
 2801TIP3    H229963   2.365   1.682   0.030 -0.4979  0.5565 -1.2422
 2802TIP3   OH229964   3.843   6.068   2.491  0.0019  0.1866 -0.6229
 2802TIP3    H129965   3.885   6.050   2.574  0.1128 -0.3568 -0.7921
 2802TIP3    H229966   3.786   5.993   2.476  2.0087 -1.1151 -2.3440
 2803TIP3   OH229967   3.305   3.478   8.894 -0.2805  0.0767  0.0879
 2803TIP3    H129968   3.221   3.486   8.941 -0.0923  0.1114  0.4217
 2803TIP3    H229969   3.288   3.413   8.826 -0.5198 -0.0777  0.2905
 2804TIP3   OH229970   1.409   6.714   2.225  0.0620 -0.0002 -0.4582
 2804TIP3    H129971   1.369   6.750   2.146 -0.2406  0.8415  0.0577
 2804TIP3    H229972   1.395   6.619   2.219  0.2455  0.0320 -1.5105
 2805TIP3   OH229973   1.075   4.083   8.359  0.5283  0.4173 -0.0294
 2805TIP3    H129974   1.005   4.092   8.294  0.4245  1.2204  0.1802
 2805TIP3    H229975   1.131   4.159   8.344  0.7535  0.3609  0.5107
 2806TIP3   OH229976   5.146   4.282   8.557  0.2690 -0.5076  0.1024
 2806TIP3    H129977   5.175   4.373   8.563 -0.0879 -0.4051  0.2977
 2806TIP3    H229978   5.056   4.283   8.587  0.0471 -0.8195 -0.5289
 2807TIP3   OH229979   4.089   3.142   7.810  0.0780  0.1191 -0.4532
 2807TIP3    H129980   4.108   3.182   7.725 -0.3904  0.0471 -0.5952
 2807TIP3    H229981   4.035   3.207   7.855 -0.4855 -0.2399 -0.5926
 2808TIP3   OH229982   5.224   0.233   7.916 -0.2792  0.0055 -0.5568
 2808TIP3    H129983   5.185   0.257   8.000  0.1932  1.5854 -0.7507
 2808TIP3    H229984   5.215   0.138   7.911 -0.1973 -0.1334  1.3337
 2809TIP3   OH229985   4.530   2.056   0.298 -0.0751 -0.1232 -0.2328
 2809TIP3    H129986   4.470   2.040   0.371  0.8338  0.0887  0.5862
 2809TIP3    H229987   4.594   1.985   0.304 -0.5138 -0.6421 -1.4079
 2810TIP3   OH229988   2.619   3.265   2.683  0.0083 -0.0165  0.1416
 2810TIP3    H129989   2.709   3.299   2.688 -0.2657  0.6128  1.0708
 2810TIP3    H229990   2.565   3.337   2.715 -0.6804 -1.0082  1.2466
 2811TIP3   OH229991   5.281   4.432   3.307 -0.0392 -0.6478  0.0019
 2811TIP3    H129992   5.230   4.411   3.229 -0.8447  1.0306  0.0268
 2811TIP3    H229993   5.285   4.350   3.357 -1.1445 -1.2633 -0.8854
 2812TIP3   OH229994   3.166   5.355   8.839  0.0865 -0.6515 -0.2829
 2812TIP3    H129995   3.199   5.443   8.855 -1.6539 -0.2300  1.3873
 2812TIP3    H229996   3.160   5.315   8.926 -1.4768 -1.5131 -0.7476
 2813TIP3   OH229997   3.387   4.893   1.660 -0.4179  0.2678 -0.1998
 2813TIP3    H129998   3.348   4.963   1.607  0.5050  1.2217  0.3527
 2813TIP3    H229999   3.366   4.918   1.751 -1.1722 -0.8561 -0.0423
 2814TIP3   OH230000   3.149   3.875   1.110 -0.4558 -0.0278  0.1067
 2814TIP3    H130001   3.149   3.779   1.118  1.6061 -0.1118 -0.1771
 2814TIP3    H230002   3.242   3.899   1.114 -1.0042  2.1090  1.5459
 2815TIP3   OH230003   5.087   1.714   7.949 -0.3297  0.6804  0.6058
 2815TIP3    H130004   5.060   1.639   8.002 -1.0634  0.6777  0.2382
 2815TIP3    H230005   5.141   1.676   7.880  1.4565  0.7851  1.8660
 2816TIP3   OH230006   4.874   5.915   3.359 -0.8076  0.6904  0.0771
 2816TIP3    H130007   4.932   5.984   3.390  1.0820 -0.6678 -0.2713
 2816TIP3    H230008   4.854   5.939   3.268 -1.0950  1.3357  0.3041
 2817TIP3   OH230009   1.323   3.912   0.749  0.0175  0.2056  0.6885
 2817TIP3    H130010   1.297   3.978   0.813 -0.5582 -1.2469  2.0134
 2817TIP3    H230011   1.410   3.884   0.777 -0.4741 -0.8506  1.2230
 2818TIP3   OH230012   3.477   0.935   0.132  0.0727  0.3825 -0.2473
 2818TIP3    H130013   3.459   0.845   0.162  0.0199  1.1248  2.1543
 2818TIP3    H230014   3.401   0.985   0.162  1.6243  1.8190  1.5244
 2819TIP3   OH230015   0.597   4.034   0.817  0.1255 -0.0144  0.1104
 2819TIP3    H130016   0.648   3.960   0.782  0.3066 -0.3241  1.0147
 2819TIP3    H230017   0.559   4.001   0.898 -1.4630  0.2416 -0.4782
 2820TIP3   OH230018   1.559   6.210   2.633 -0.1235 -0.1358  0.0035
 2820TIP3    H130019   1.556   6.148   2.561  0.9368 -2.8425  2.1300
 2820TIP3    H230020   1.643   6.254   2.622  0.6740 -1.5318  0.3137
 2821TIP3   OH230021   5.135   0.702   1.327 -0.4266  0.0979 -0.4334
 2821TIP3    H130022   5.143   0.625   1.382 -1.9305 -0.2151 -0.6100
 2821TIP3    H230023   5.203   0.762   1.359 -2.2348  0.6110  2.9335
 2822TIP3   OH230024   5.884   1.601   0.515  0.0588  0.2896 -0.4147
 2822TIP3    H130025   5.915   1.686   0.545  0.0153  0.3220 -0.4630
 2822TIP3    H230026   5.800   1.589   0.559  1.5466 -1.2031  2.3005
 2823TIP3   OH230027   6.119   5.128   0.337 -0.1724 -0.3935  0.1888
 2823TIP3    H130028   6.050   5.081   0.290  0.7673 -0.3273 -1.3060
 2823TIP3    H230029   6.195   5.070   0.333  0.2281  0.0817  0.7189
 2824TIP3   OH230030   1.968   3.378   8.349 -0.3241  0.4446 -0.3823
 2824TIP3    H130031   1.934   3.423   8.271  3.0210  0.8343 -1.7530
 2824TIP3    H230032   1.932   3.289   8.342 -0.0239  0.4418 -2.4526
 2825TIP3   OH230033   2.638   0.488   0.808  0.0218  0.0111 -0.5240
 2825TIP3    H130034   2.629   0.393   0.802  0.5962 -0.1874  1.1569
 2825TIP3    H230035   2.569   0.515   0.869  2.1009  0.1291  1.9829
 2826TIP3   OH230036   2.612   1.157   2.572 -0.4687 -0.0631  0.2012
 2826TIP3    H130037   2.697   1.200   2.578  0.5305 -2.1337  2.1490
 2826TIP3    H230038   2.616   1.085   2.634 -2.8978 -1.5596 -1.1858
 2827TIP3   OH230039   5.275   5.011   0.415 -0.0662 -0.4208 -0.0478
 2827TIP3    H130040   5.297   4.934   0.468 -1.6121  0.1873  1.6201
 2827TIP3    H230041   5.180   5.020   0.425 -0.4291 -0.1696 -2.8976
 2828TIP3   OH230042   6.318   6.236   1.797  0.0154  0.4195 -0.2847
 2828TIP3    H130043   6.319   6.143   1.820 -0.2379  0.2760 -0.8360
 2828TIP3    H230044   6.241   6.246   1.741 -2.0060  1.6270  2.4267
 2829TIP3   OH230045   4.147   5.160   8.333  0.5931 -0.5531  0.4201
 2829TIP3    H130046   4.099   5.232   8.293 -1.5375 -0.9533  2.0747
 2829TIP3    H230047   4.132   5.086   8.275  2.4052  0.1311 -1.0360
 2830TIP3   OH230048   1.990   5.158   2.112  0.4137  0.3791  0.6163
 2830TIP3    H130049   1.957   5.215   2.042 -0.4573  1.7010  2.0324
 2830TIP3    H230050   2.076   5.195   2.135  1.1409 -0.6478 -0.3889
 2831TIP3   OH230051   6.239   0.459   8.882 -0.9985 -0.2696  0.0271
 2831TIP3    H130052   6.236   0.377   8.832 -1.9208  0.2371 -0.7828
 2831TIP3    H230053   6.215   0.434   8.971 -2.6033 -0.6932 -0.4944
 2832TIP3   OH230054   6.459   5.110   2.181  0.0924  0.2082 -0.5058
 2832TIP3    H130055   6.500   5.095   2.096  0.2778  2.4736 -0.8880
 2832TIP3    H230056   6.521   5.074   2.244  1.9123  1.9636 -1.1796
 2833TIP3   OH230057   1.372   4.406   2.388  0.2209 -0.2229  0.2439
 2833TIP3    H130058   1.316   4.331   2.367 -0.0880 -0.1219  0.6911
 2833TIP3    H230059   1.369   4.411   2.484  1.5137 -0.6201  0.3260
 2834TIP3   OH230060   6.031   3.535   1.035  0.8201 -0.5902 -0.5969
 2834TIP3    H130061   5.958   3.496   0.986 -0.0525 -1.4593  1.3195
 2834TIP3    H230062   6.110   3.500   0.992  0.1579  0.0115 -2.4160
 2835TIP3   OH230063   0.642   1.961   8.533 -0.1074  0.5389  0.2289
 2835TIP3    H130064   0.580   2.029   8.556  0.3949  0.7878  0.8591
 2835TIP3    H230065   0.688   1.995   8.456 -1.5375 -0.1427 -0.9773
 2836TIP3   OH230066   4.784   3.238   1.643 -0.3634  0.7420 -0.1539
 2836TIP3    H130067   4.733   3.319   1.651 -1.1889  0.0514  2.5356
 2836TIP3    H230068   4.751   3.198   1.562  0.0072  2.9728 -1.5179
 2837TIP3   OH230069   1.632   3.606   7.847  0.0827 -0.0161  0.4070
 2837TIP3    H130070   1.706   3.612   7.787  0.0416  1.4407  0.4645
 2837TIP3    H230071   1.667   3.563   7.925  1.0380  1.1864  0.6641
 2838TIP3   OH230072   0.943   3.136   0.394 -0.0853  0.0386 -0.4159
 2838TIP3    H130073   0.971   3.103   0.309  0.0855  1.2825 -0.8536
 2838TIP3    H230074   0.955   3.062   0.453  1.7188 -0.2331 -1.0675
 2839TIP3   OH230075   3.319   4.241   0.334 -0.1487  0.4513 -0.7114
 2839TIP3    H130076   3.344   4.277   0.419  0.2822  0.6117 -0.9069
 2839TIP3    H230077   3.378   4.282   0.271  0.4215 -0.6564 -0.9292
 2840TIP3   OH230078   5.027   6.084   0.238  0.3991 -0.2489 -0.1226
 2840TIP3    H130079   4.984   6.015   0.289 -1.5696  0.2388 -1.0373
 2840TIP3    H230080   5.006   6.165   0.284  0.8446 -0.0405 -0.2752
 2841TIP3   OH230081   0.414   5.766   0.185 -0.3435  0.1183  0.0672
 2841TIP3    H130082   0.480   5.827   0.152 -2.5861  1.2452 -2.7650
 2841TIP3    H230083   0.446   5.679   0.158  0.1874  0.5838 -0.8333
 2842TIP3   OH230084   0.512   3.573   2.585 -0.5854  0.3747  0.4476
 2842TIP3    H130085   0.500   3.483   2.553 -2.4952  0.7115  0.0384
 2842TIP3    H230086   0.599   3.598   2.555  0.6522 -1.8338  1.8982
 2843TIP3   OH230087   4.604   3.155   7.433 -0.4941  0.5143  0.3291
 2843TIP3    H130088   4.529   3.154   7.492  0.4666  2.0689  1.6465
 2843TIP3    H230089   4.677   3.124   7.487 -0.1597 -1.1110 -0.9660
 2844TIP3   OH230090   0.487   0.658   1.903 -0.0477  0.0477 -0.3276
 2844TIP3    H130091   0.551   0.703   1.848 -1.0133  0.1828 -1.3628
 2844TIP3    H230092   0.451   0.726   1.959  0.0090  0.1582 -0.4257
 2845TIP3   OH230093   1.234   5.369   1.308  0.1001  0.2049 -0.1574
 2845TIP3    H130094   1.318   5.349   1.266 -0.6112 -1.5292 -0.8855
 2845TIP3    H230095   1.257   5.398   1.396  1.4347 -1.7857  0.2122
 2846TIP3   OH230096   2.154   5.885   0.690 -0.6283  0.9581  0.2249
 2846TIP3    H130097   2.201   5.907   0.610 -2.2190 -0.5405 -1.2073
 2846TIP3    H230098   2.068   5.926   0.680 -1.0391  0.2971  0.9018
 2847TIP3   OH230099   6.307   1.814   7.810  0.1563 -0.2123 -0.9050
 2847TIP3    H130100   6.220   1.797   7.848  0.4267  0.0083 -0.1795
 2847TIP3    H230101   6.330   1.901   7.842  0.6620 -0.2853 -1.0724
 2848TIP3   OH230102   1.475   6.272   2.331  0.0848 -0.3046 -0.2486
 2848TIP3    H130103   1.498   6.183   2.354 -1.9830 -0.5395  1.1385
 2848TIP3    H230104   1.476   6.273   2.235  0.3594 -1.7320 -0.2761
 2849TIP3   OH230105   4.690   3.709   7.876 -0.3064  0.4944 -0.1863
 2849TIP3    H130106   4.684   3.795   7.835  1.0055  0.0191 -1.5079
 2849TIP3    H230107   4.658   3.721   7.965 -1.7942  1.9480 -0.8701
 2850TIP3   OH230108   3.088   6.630   8.025  0.4007 -0.4268 -0.2420
 2850TIP3    H130109   3.030   6.683   7.970  0.2112 -0.5034 -0.1175
 2850TIP3    H230110   3.036   6.554   8.048  0.4736 -0.3892  0.0562
 2851TIP3   OH230111   4.583   0.927   8.123 -0.1281  0.0788 -0.2920
 2851TIP3    H130112   4.668   0.900   8.088 -0.4448 -0.4097 -0.6980
 2851TIP3    H230113   4.602   1.006   8.174  0.8915 -1.1073  1.2445
 2852TIP3   OH230114   1.564   4.569   1.224 -0.2625  0.6981 -0.0883
 2852TIP3    H130115   1.557   4.477   1.199 -1.2680  0.0220  2.3881
 2852TIP3    H230116   1.626   4.569   1.298 -0.3682  1.9996  0.0202
 2853TIP3   OH230117   3.206   4.296   8.934  0.3188  0.5882  0.0174
 2853TIP3    H130118   3.119   4.280   8.899 -0.0749 -0.1220  1.2590
 2853TIP3    H230119   3.206   4.389   8.958 -0.2816  0.4711  0.4944
 2854TIP3   OH230120   2.941   6.594   7.774  0.2538  0.1878  0.6169
 2854TIP3    H130121   2.981   6.680   7.766  0.0097  0.2662  0.1937
 2854TIP3    H230122   2.867   6.596   7.713  0.6786 -0.5718  0.0630
 2855TIP3   OH230123   0.778   5.598   1.415 -0.3633 -0.4871  0.6561
 2855TIP3    H130124   0.828   5.625   1.493  0.0072  0.6957  0.0267
 2855TIP3    H230125   0.701   5.654   1.416 -0.8904 -1.2063  0.7392
 2856TIP3   OH230126   1.411   4.734   1.375  0.0161 -0.1198  0.3022
 2856TIP3    H130127   1.456   4.805   1.422  3.4090 -1.5831 -0.4130
 2856TIP3    H230128   1.473   4.708   1.306 -3.7331  0.3841 -3.6884
 2857TIP3   OH230129   0.396   3.842   1.985  0.2099 -0.3745 -0.1361
 2857TIP3    H130130   0.478   3.804   1.953  0.1801 -0.2425 -0.3709
 2857TIP3    H230131   0.355   3.771   2.035  0.0401 -0.7375 -0.7746
 2858TIP3   OH230132   0.744   6.478   1.480 -0.0019  0.4998  0.4601
 2858TIP3    H130133   0.689   6.436   1.546 -0.9832  0.3601 -0.4077
 2858TIP3    H230134   0.775   6.558   1.522 -0.0791  0.0983  1.3070
 2859TIP3   OH230135   1.359   1.243   1.110 -0.0726  0.3275 -0.4363
 2859TIP3    H130136   1.372   1.218   1.202 -0.2666 -0.2058 -0.5466
 2859TIP3    H230137   1.284   1.191   1.082  1.0043 -0.7865 -1.3753
 2860TIP3   OH230138   1.230   4.658   0.911  0.0550 -0.2143  0.1271
 2860TIP3    H130139   1.261   4.568   0.910 -1.8108 -0.9292  1.1676
 2860TIP3    H230140   1.304   4.709   0.878  2.2585 -1.7612  2.2792
 2861TIP3   OH230141   0.344   2.693   0.621 -0.7232  0.1320 -0.1472
 2861TIP3    H130142   0.301   2.778   0.630  2.3067  1.6836  1.1326
 2861TIP3    H230143   0.302   2.652   0.546 -2.2409  2.8082 -0.8663
 2862TIP3   OH230144   0.027   6.046   2.487  0.0351  0.0611 -0.3629
 2862TIP3    H130145   0.062   5.958   2.477 -0.7040 -0.1966 -0.7766
 2862TIP3    H230146   0.023   6.061   2.581  1.0521  0.0241 -0.3063
 2863TIP3   OH230147   1.239   3.007   1.030  0.2465  0.7333  0.4930
 2863TIP3    H130148   1.212   3.063   1.103 -0.6609  0.9863 -0.0191
 2863TIP3    H230149   1.176   2.936   1.030 -2.3600  2.7690 -2.4373
 2864TIP3   OH230150   3.755   0.495   1.237  0.0658  0.3647  0.1515
 2864TIP3    H130151   3.773   0.492   1.143  0.8866  0.3945  0.2992
 2864TIP3    H230152   3.821   0.556   1.271  0.0132  0.0633  0.7975
 2865TIP3   OH230153   6.234   5.204   6.931 -0.0856 -0.5261 -0.4137
 2865TIP3    H130154   6.175   5.169   6.998 -0.9050  1.4050 -0.0568
 2865TIP3    H230155   6.322   5.179   6.961 -0.5543 -1.3985  0.2983
 2866TIP3   OH230156   2.486   4.759   1.615  0.5893 -0.1612  0.2293
 2866TIP3    H130157   2.480   4.794   1.526 -0.9233 -1.8574 -0.3909
 2866TIP3    H230158   2.481   4.664   1.604  0.4136 -0.4066  2.1195
 2867TIP3   OH230159   3.323   6.114   0.511 -0.0128 -0.4027 -0.3962
 2867TIP3    H130160   3.283   6.180   0.455 -0.2175  0.3548  0.6205
 2867TIP3    H230161   3.401   6.157   0.546 -1.2654  0.1165  1.9618
 2868TIP3   OH230162   0.076   0.757   8.454  0.3558 -0.2985  0.9161
 2868TIP3    H130163   0.038   0.828   8.403  1.4339  0.5544  1.2512
 2868TIP3    H230164   0.022   0.752   8.533 -0.2608 -0.4537  0.4867
 2869TIP3   OH230165   0.056   4.345   0.085  0.2334  0.5742  0.0817
 2869TIP3    H130166  -0.020   4.291   0.066  0.7039  0.2098 -0.8326
 2869TIP3    H230167   0.053   4.357   0.180  0.2392 -1.2754  0.3652
 2870TIP3   OH230168   1.179   2.335   0.987 -0.1481 -0.7495  0.5280
 2870TIP3    H130169   1.257   2.360   1.036 -0.5983  1.7901  0.0713
 2870TIP3    H230170   1.179   2.393   0.912 -2.1943 -1.0872  0.2314
 2871TIP3   OH230171   3.477   6.726   1.453 -0.1662  0.4031  0.6388
 2871TIP3    H130172   3.393   6.753   1.418 -0.4965 -0.6264  0.5921
 2871TIP3    H230173   3.541   6.783   1.410 -0.8477  1.2875  0.7899
 2872TIP3   OH230174   1.899   0.610   2.444 -0.1022 -0.4900 -0.0365
 2872TIP3    H130175   1.986   0.650   2.439  0.3415 -1.4160  0.1359
 2872TIP3    H230176   1.916   0.518   2.464 -1.1335 -0.6407  0.1787
 2873TIP3   OH230177   6.622   3.771   0.509  0.4808 -0.0828 -0.4049
 2873TIP3    H130178   6.555   3.786   0.443 -1.8747  1.7745  2.1819
 2873TIP3    H230179   6.585   3.701   0.564  0.0969  1.5927  1.5908
 2874TIP3   OH230180   4.211   5.652   2.046 -0.3787 -0.1126  0.2153
 2874TIP3    H130181   4.288   5.661   1.989 -1.1995  2.5201 -0.6501
 2874TIP3    H230182   4.188   5.742   2.067 -0.5780 -0.9348  4.2037
 2875TIP3   OH230183   3.283   2.865   8.202  0.5491 -0.1238 -0.5231
 2875TIP3    H130184   3.330   2.786   8.176  2.3420  0.7707 -0.1940
 2875TIP3    H230185   3.229   2.838   8.276  2.5953 -0.6959  0.8609
 2876TIP3   OH230186   4.717   0.832   1.561 -0.1593 -0.0365 -0.5169
 2876TIP3    H130187   4.797   0.836   1.510  0.4490 -0.5647  0.3786
 2876TIP3    H230188   4.740   0.868   1.647 -0.3361 -1.9632  0.4044
 2877TIP3   OH230189   4.538   2.994   1.073 -0.0138 -0.4722 -0.1314
 2877TIP3    H130190   4.626   2.964   1.049  0.1726 -1.5388  1.7139
 2877TIP3    H230191   4.481   2.922   1.048 -0.0945 -0.6424  0.5265
 2878TIP3   OH230192   3.352   3.278   8.433 -0.3136  0.2052  0.2718
 2878TIP3    H130193   3.386   3.363   8.405 -0.4824 -0.1499 -1.0317
 2878TIP3    H230194   3.290   3.252   8.365 -0.8096 -0.6449  1.0137
 2879TIP3   OH230195   2.952   6.111   1.630 -0.3001 -0.2125 -0.1077
 2879TIP3    H130196   2.897   6.048   1.676  2.2044 -2.0589  0.6110
 2879TIP3    H230197   2.938   6.194   1.676 -1.0528 -1.0543  1.2292
 2880TIP3   OH230198   0.989   1.526   1.462  0.3513 -0.2576 -0.2564
 2880TIP3    H130199   0.948   1.612   1.452  0.3749 -0.3688 -1.4465
 2880TIP3    H230200   1.041   1.514   1.383  2.3274 -0.3411  0.9824
 2881TIP3   OH230201   0.930   5.909   7.659 -0.1665  0.1913  0.0946
 2881TIP3    H130202   0.996   5.854   7.702 -0.6067 -0.1661  0.3308
 2881TIP3    H230203   0.849   5.858   7.666 -1.0891  1.7660  2.2830
 2882TIP3   OH230204   6.489   6.023   0.834 -0.2028  0.0969  0.5281
 2882TIP3    H130205   6.547   5.947   0.840 -1.3568 -0.7612  1.1109
 2882TIP3    H230206   6.465   6.028   0.742  0.3670  0.1313  0.3789
 2883TIP3   OH230207   0.901   5.687   1.148  0.4523 -0.0114  0.2902
 2883TIP3    H130208   0.879   5.604   1.107  1.0587  0.1009 -0.2715
 2883TIP3    H230209   0.868   5.679   1.238  0.3578 -0.7826  0.1909
 2884TIP3   OH230210   2.530   6.352   8.861 -0.0348  0.0355 -0.1686
 2884TIP3    H130211   2.475   6.417   8.816  0.8252  1.4475  0.7421
 2884TIP3    H230212   2.620   6.385   8.850  0.2044  0.7153  2.8904
 2885TIP3   OH230213   4.908   0.289   8.552 -0.3198  0.7063  0.0783
 2885TIP3    H130214   4.943   0.370   8.590  0.2037  0.9589 -0.9038
 2885TIP3    H230215   4.815   0.290   8.575 -0.0887  0.9991  1.0725
 2886TIP3   OH230216   4.610   6.261   1.912 -0.1434 -0.5996  0.0239
 2886TIP3    H130217   4.641   6.332   1.855 -0.6855 -1.0647 -0.8702
 2886TIP3    H230218   4.556   6.206   1.855 -0.8528 -0.9817  1.0382
 2887TIP3   OH230219   2.925   1.154   7.947  0.4002 -0.2520  0.0087
 2887TIP3    H130220   2.920   1.141   7.852  3.2951  1.4653 -0.5201
 2887TIP3    H230221   2.839   1.188   7.971 -0.8115 -1.8409 -1.7450
 2888TIP3   OH230222   5.234   2.644   1.634 -0.2587 -0.4690 -0.2528
 2888TIP3    H130223   5.246   2.716   1.572  0.0393 -0.9231 -0.7356
 2888TIP3    H230224   5.150   2.662   1.676 -0.5068 -0.1910 -0.8474
 2889TIP3   OH230225   4.782   1.021   8.931  0.6080 -0.3616 -0.0270
 2889TIP3    H130226   4.777   1.001   8.838  0.5346 -0.2139 -0.0555
 2889TIP3    H230227   4.860   0.975   8.962  0.2914 -0.9127 -0.0358
 2890TIP3   OH230228   0.950   5.894   8.363  0.5441 -0.3565  0.1043
 2890TIP3    H130229   0.981   5.817   8.411  0.5212 -0.1136  0.5115
 2890TIP3    H230230   0.869   5.919   8.408  1.4164  0.9066  1.0363
 2891TIP3   OH230231   2.299   4.494   2.814  0.3741 -0.4129 -0.7132
 2891TIP3    H130232   2.346   4.473   2.894 -0.6866 -0.3639 -0.0587
 2891TIP3    H230233   2.293   4.589   2.814  1.2924 -0.3414 -1.4056
 2892TIP3   OH230234   2.910   5.253   1.939 -0.2768  0.0134 -0.0991
 2892TIP3    H130235   2.988   5.199   1.928 -1.7519 -2.4724  0.7193
 2892TIP3    H230236   2.837   5.191   1.935 -2.0128  1.6071  2.9584
 2893TIP3   OH230237   5.526   3.849   2.147  0.1742  0.2137  0.4298
 2893TIP3    H130238   5.508   3.903   2.224 -0.9896  1.4965 -0.6709
 2893TIP3    H230239   5.572   3.773   2.181 -0.0328  0.8825  2.3433
 2894TIP3   OH230240   5.570   0.389   8.667  0.4375 -0.2276  0.1506
 2894TIP3    H130241   5.625   0.374   8.744 -0.5861  1.9487  1.4082
 2894TIP3    H230242   5.632   0.402   8.595  1.5311  0.3892  1.1677
 2895TIP3   OH230243   2.553   1.780   1.168  0.2629  0.2999 -0.5902
 2895TIP3    H130244   2.628   1.795   1.110  0.2824  0.0790 -0.6256
 2895TIP3    H230245   2.551   1.855   1.226  0.6009  0.2348 -0.4934
 2896TIP3   OH230246   3.051   3.577   0.209  0.4238 -0.2372  0.1327
 2896TIP3    H130247   3.058   3.512   0.279 -0.6146  0.5462  1.0001
 2896TIP3    H230248   3.140   3.612   0.200  0.6084 -0.4763  0.9248
 2897TIP3   OH230249   3.746   5.564   8.681 -0.4150  0.5244 -0.0333
 2897TIP3    H130250   3.818   5.522   8.729 -0.5173  1.0565  0.6072
 2897TIP3    H230251   3.670   5.508   8.698 -0.3312  0.4106 -0.0280
 2898TIP3   OH230252   3.964   5.438   2.713 -0.3041  0.8724 -0.3462
 2898TIP3    H130253   3.949   5.389   2.632 -0.4459 -0.5032  0.4991
 2898TIP3    H230254   4.039   5.395   2.754 -0.5163  1.2708  0.4814
 2899TIP3   OH230255   5.784   5.606   1.732 -0.7747 -0.4637  0.2891
 2899TIP3    H130256   5.738   5.631   1.811 -0.2696 -1.1967  0.8256
 2899TIP3    H230257   5.874   5.590   1.760 -0.4735 -0.2367 -0.5213
 2900TIP3   OH230258   2.992   2.022   1.784 -1.0502 -0.5953  0.1358
 2900TIP3    H130259   2.950   1.941   1.814  1.1706 -1.3496  1.4265
 2900TIP3    H230260   3.076   2.023   1.828 -0.9215  2.3744  0.0232
 2901TIP3   OH230261   1.855   1.263   9.013 -0.6293  0.2451  0.6547
 2901TIP3    H130262   1.931   1.284   9.067  0.0973  0.2223 -0.3261
 2901TIP3    H230263   1.873   1.306   8.929 -2.0633  0.8796  0.6394
 2902TIP3   OH230264   1.306   4.546   8.558 -0.1014  0.0526 -0.3079
 2902TIP3    H130265   1.291   4.630   8.601  0.0554 -0.2864  0.4349
 2902TIP3    H230266   1.222   4.500   8.563  0.1891 -0.4040  0.5962
 2903TIP3   OH230267   2.278   0.052   1.579 -0.2946 -0.0833  0.1598
 2903TIP3    H130268   2.204   0.107   1.553 -1.1211 -1.6903 -1.1640
 2903TIP3    H230269   2.240  -0.036   1.588  1.7272 -1.3932 -2.6083
 2904TIP3   OH230270   6.388   2.097   1.622  0.6900  0.8253 -0.7367
 2904TIP3    H130271   6.470   2.049   1.616  0.8776  1.1081 -0.4422
 2904TIP3    H230272   6.362   2.113   1.531  0.8012  0.4675 -0.8303
 2905TIP3   OH230273   0.850   4.262   2.102  0.1483  0.5576  0.1040
 2905TIP3    H130274   0.772   4.229   2.057  0.5183 -0.3240  0.0953
 2905TIP3    H230275   0.882   4.333   2.047 -0.8963  1.2327  0.3354
 2906TIP3   OH230276   6.127   1.507   0.775  0.5548 -0.1564 -0.3048
 2906TIP3    H130277   6.061   1.549   0.830 -0.0093 -0.8980 -0.4063
 2906TIP3    H230278   6.208   1.555   0.795  0.1313  0.3262  0.3167
 2907TIP3   OH230279   0.803   3.659   1.021 -0.2612 -0.6988 -0.1275
 2907TIP3    H130280   0.715   3.631   0.995 -1.0483 -2.0227  3.3880
 2907TIP3    H230281   0.847   3.579   1.048  0.5876  0.3453  1.8481
 2908TIP3   OH230282   5.534   1.273   6.868 -0.1030  0.0456 -0.5115
 2908TIP3    H130283   5.563   1.190   6.904 -1.3816 -0.0858  0.2760
 2908TIP3    H230284   5.596   1.292   6.797  2.0752 -0.0539  1.2399
 2909TIP3   OH230285   0.841   2.617   0.517 -0.0881 -0.0450 -0.3115
 2909TIP3    H130286   0.915   2.563   0.489  0.6041  0.9084 -0.3908
 2909TIP3    H230287   0.849   2.622   0.612 -1.8662 -2.4676  0.0467
 2910TIP3   OH230288   2.624   1.244   0.393  0.0725 -0.0323 -0.0154
 2910TIP3    H130289   2.674   1.305   0.446 -1.6132  1.5552 -0.1389
 2910TIP3    H230290   2.675   1.163   0.393  1.8541  1.0473  1.0322
 2911TIP3   OH230291   0.261   5.428   0.544  0.2200 -0.7860 -0.4836
 2911TIP3    H130292   0.250   5.413   0.450 -0.9242  4.2988 -1.4446
 2911TIP3    H230293   0.175   5.458   0.573  1.0507 -0.4846  1.8209
 2912TIP3   OH230294   3.290   2.696   1.536  0.4320 -0.2470  0.6364
 2912TIP3    H130295   3.305   2.729   1.624 -1.1768  0.3805  0.7073
 2912TIP3    H230296   3.376   2.667   1.506  1.1289  0.1950  2.1314
 2913TIP3   OH230297   2.151   3.876   1.711  0.1184  0.1001  0.1275
 2913TIP3    H130298   2.095   3.926   1.772 -2.0998 -2.1240  0.0892
 2913TIP3    H230299   2.095   3.862   1.635 -0.0869 -3.7743  0.8059
 2914TIP3   OH230300   1.354   2.031   2.894  0.3316  0.1311  0.7625
 2914TIP3    H130301   1.259   2.043   2.899  0.3373  0.5168  0.0439
 2914TIP3    H230302   1.383   2.097   2.831  1.0810  0.0373  1.0022
 2915TIP3   OH230303   1.386   2.723   1.541  0.1870  0.0922  0.0159
 2915TIP3    H130304   1.299   2.720   1.579  0.6565  1.2140  1.2327
 2915TIP3    H230305   1.420   2.634   1.552 -1.3699 -0.8374 -1.9903
 2916TIP3   OH230306   2.510   3.723   0.960 -0.0064  0.9328 -0.3125
 2916TIP3    H130307   2.579   3.754   0.902  0.9262  1.3197  0.9764
 2916TIP3    H230308   2.555   3.676   1.029 -1.1518 -0.0724 -0.2127
 2917TIP3   OH230309   0.853   0.555   2.083 -0.3366 -0.0791  0.2780
 2917TIP3    H130310   0.824   0.643   2.108  2.5487  0.7351  1.1364
 2917TIP3    H230311   0.871   0.562   1.989 -2.0462 -0.3805 -0.0974
 2918TIP3   OH230312   4.092   1.883   0.735 -0.2415  0.1773  0.3602
 2918TIP3    H130313   4.029   1.911   0.668  1.4525  0.6244 -1.1025
 2918TIP3    H230314   4.100   1.788   0.722  1.1995  0.4709 -1.1193
 2919TIP3   OH230315   4.071   1.618   0.701 -0.5058 -0.1643  0.4883
 2919TIP3    H130316   4.036   1.577   0.780 -1.9209  0.2454  0.1054
 2919TIP3    H230317   4.148   1.566   0.679  0.4681  0.2780  2.6495
 2920TIP3   OH230318   4.393   2.902   0.053  0.3567 -0.0275 -0.3864
 2920TIP3    H130319   4.361   2.870  -0.032  2.3634 -0.9117 -0.8906
 2920TIP3    H230320   4.470   2.847   0.071 -0.3332 -0.2298  2.2976
 2921TIP3   OH230321   1.636   4.819   7.901 -0.0609  0.6063  0.1695
 2921TIP3    H130322   1.671   4.869   7.827  1.4469 -2.3042 -1.2634
 2921TIP3    H230323   1.592   4.744   7.860 -1.2181  0.1007  2.2174
 2922TIP3   OH230324   1.085   1.624   8.201  0.6863  0.2911 -0.5587
 2922TIP3    H130325   1.080   1.530   8.185  1.0828  0.1892 -0.1070
 2922TIP3    H230326   0.994   1.652   8.205  0.5290 -0.3273  0.6848
 2923TIP3   OH230327   1.119   5.422   2.023  0.0518 -0.4002 -0.1837
 2923TIP3    H130328   1.089   5.333   2.043  0.7289 -0.7445 -0.6626
 2923TIP3    H230329   1.210   5.411   1.996  0.6433  0.6059  1.2366
 2924TIP3   OH230330   3.983   4.596   1.070 -0.1592 -0.1076  0.1332
 2924TIP3    H130331   4.002   4.591   1.164 -1.0189 -0.2167  0.3078
 2924TIP3    H230332   3.889   4.614   1.066 -0.2825 -0.9045 -0.7174
 2925TIP3   OH230333   5.423   5.244   0.483  0.1546 -0.0473  0.1828
 2925TIP3    H130334   5.497   5.234   0.543 -1.0185 -2.1337  1.4038
 2925TIP3    H230335   5.370   5.166   0.496 -1.6696  0.7925 -1.5279
 2926TIP3   OH230336   3.127   6.283   8.794 -0.1093 -0.2624 -0.0501
 2926TIP3    H130337   3.186   6.241   8.733 -0.5686 -0.2074 -0.5383
 2926TIP3    H230338   3.055   6.221   8.806 -1.0994  0.6108 -1.2533
 2927TIP3   OH230339   3.356   2.603   8.159  0.1586 -0.2857  0.0408
 2927TIP3    H130340   3.301   2.534   8.123  0.1103 -0.9101  1.2527
 2927TIP3    H230341   3.445   2.570   8.152  0.3548  0.4864 -1.4020
 2928TIP3   OH230342   0.474   4.048   0.551  0.2961  0.4820  0.1533
 2928TIP3    H130343   0.522   4.067   0.632  0.3710 -1.6467  0.6754
 2928TIP3    H230344   0.440   3.959   0.564 -0.0457  0.2508 -1.9807
 2929TIP3   OH230345   0.678   2.841   7.997 -0.1763 -0.2005 -0.0812
 2929TIP3    H130346   0.648   2.929   8.020  1.0439  0.2291 -0.0697
 2929TIP3    H230347   0.597   2.791   7.985 -0.8864  0.4551  1.6605
 2930TIP3   OH230348   6.693   3.995   1.320 -0.2966  0.0223 -0.5954
 2930TIP3    H130349   6.682   3.932   1.249  1.3993  1.6013 -2.3923
 2930TIP3    H230350   6.786   4.018   1.317 -1.0546  3.7099 -1.1004
 2931TIP3   OH230351   1.400   0.645   7.107 -0.6750  0.2379 -0.5232
 2931TIP3    H130352   1.425   0.645   7.199  0.8671  0.4276 -0.9170
 2931TIP3    H230353   1.424   0.732   7.075 -0.2786 -0.1548 -1.3247
 2932TIP3   OH230354   2.938   2.093   1.541  0.0586  0.0828  0.1216
 2932TIP3    H130355   2.976   2.048   1.616 -0.0178 -1.3475 -0.6642
 2932TIP3    H230356   2.860   2.135   1.575 -0.0910 -0.7254  0.8128
 2933TIP3   OH230357   3.723   3.540   2.765  0.0051  0.3488  0.1469
 2933TIP3    H130358   3.765   3.624   2.783  0.6106 -0.2354  1.6473
 2933TIP3    H230359   3.639   3.545   2.811 -0.0572  0.2229  0.0471
 2934TIP3   OH230360   2.559   5.946   2.720  0.4340 -0.2151 -0.3852
 2934TIP3    H130361   2.524   6.017   2.773  0.3245 -0.7092  0.2100
 2934TIP3    H230362   2.654   5.951   2.731  0.3467 -2.3419  2.5998
 2935TIP3   OH230363   2.877   4.681   2.033  0.1812  0.1082 -0.6509
 2935TIP3    H130364   2.798   4.672   2.086 -0.7113  0.6543 -1.8406
 2935TIP3    H230365   2.845   4.705   1.946  1.5835 -0.8125 -1.4721
 2936TIP3   OH230366   6.198   0.029   8.966 -0.0813 -0.3979  0.8134
 2936TIP3    H130367   6.130   0.083   8.926  0.2610 -0.4193  0.1751
 2936TIP3    H230368   6.219   0.072   9.048  0.6390  0.8131  0.0236
 2937TIP3   OH230369   4.299   1.070   2.237 -0.2920  0.3484  0.1656
 2937TIP3    H130370   4.251   1.136   2.286 -2.8874  0.0193 -1.7282
 2937TIP3    H230371   4.365   1.119   2.187  0.0887  1.0585  1.3448
 2938TIP3   OH230372   4.426   3.041   2.565  0.2520  0.0042  0.4168
 2938TIP3    H130373   4.382   3.071   2.485  0.5170  1.0261  0.6498
 2938TIP3    H230374   4.502   3.098   2.574 -0.3849  0.6597  2.0001
 2939TIP3   OH230375   2.483   4.533   7.213  0.2213 -0.2638 -0.1746
 2939TIP3    H130376   2.450   4.623   7.211 -0.0360 -0.3463 -2.4393
 2939TIP3    H230377   2.571   4.539   7.176  1.5031 -0.5501  2.6347
 2940TIP3   OH230378   0.552   2.549   0.981 -0.1399 -0.1329  0.3094
 2940TIP3    H130379   0.563   2.474   0.922 -0.4526  0.6491 -0.7702
 2940TIP3    H230380   0.622   2.539   1.046  1.0167 -0.3453 -0.9226
 2941TIP3   OH230381   4.177   0.811   1.705  0.1121  0.4953 -0.3588
 2941TIP3    H130382   4.083   0.810   1.683 -0.0513 -0.7370  0.3155
 2941TIP3    H230383   4.179   0.821   1.800  0.7051  1.3999 -0.4545
 2942TIP3   OH230384   4.891   5.738   1.546  0.0130 -0.2048 -0.0754
 2942TIP3    H130385   4.822   5.707   1.488 -1.9298  1.5629  1.1313
 2942TIP3    H230386   4.844   5.783   1.616  2.3905  4.0301 -0.8626
 2943TIP3   OH230387   1.135   5.731   2.661 -0.1186  0.3422 -0.2715
 2943TIP3    H130388   1.058   5.720   2.606 -0.4525 -0.1785  0.2876
 2943TIP3    H230389   1.123   5.669   2.733  0.6228  0.5431  0.0437
 2944TIP3   OH230390   1.204   2.763   8.662 -0.2434  0.2219 -0.5911
 2944TIP3    H130391   1.138   2.774   8.731  1.4060 -1.1379  1.3356
 2944TIP3    H230392   1.227   2.853   8.637 -1.3792  0.7421  0.1599
 2945TIP3   OH230393   4.646   1.146   7.910  0.5169 -0.7231 -0.3885
 2945TIP3    H130394   4.563   1.117   7.948  0.3921 -0.5676 -0.5382
 2945TIP3    H230395   4.630   1.148   7.816  0.4794 -0.0335 -0.3699
 2946TIP3   OH230396   6.589   6.005   1.983  0.2383  0.3910  0.2564
 2946TIP3    H130397   6.601   5.914   2.011 -0.9212  0.3639  0.7147
 2946TIP3    H230398   6.667   6.050   2.015  0.7016 -0.3875  0.2570
 2947TIP3   OH230399   2.945   2.517   0.627 -0.4827  0.3323  0.0061
 2947TIP3    H130400   2.909   2.455   0.689 -0.1174  0.7865  0.6875
 2947TIP3    H230401   2.996   2.463   0.566  1.2545  0.0783  1.5815
 2948TIP3   OH230402   6.443   0.360   2.410  0.6540  0.3349  0.2705
 2948TIP3    H130403   6.363   0.356   2.357  0.7510  0.4348  0.1166
 2948TIP3    H230404   6.506   0.307   2.362  0.8465  0.7127  0.1073
 2949TIP3   OH230405   0.284   4.387   6.945 -0.0221  0.0014  0.2567
 2949TIP3    H130406   0.267   4.308   6.997  2.8915  0.8037  2.6941
 2949TIP3    H230407   0.321   4.355   6.863 -0.8476 -1.1703  0.3143
 2950TIP3   OH230408   1.399   6.209   0.702  0.4948  0.4151 -0.0498
 2950TIP3    H130409   1.415   6.258   0.782  2.4926 -2.5886  1.5893
 2950TIP3    H230410   1.485   6.200   0.661 -0.2698  0.6464 -1.7846
 2951TIP3   OH230411   2.172   1.804   0.830  0.2101 -0.5524 -0.0200
 2951TIP3    H130412   2.114   1.836   0.762 -1.3341 -1.3011  0.8846
 2951TIP3    H230413   2.219   1.882   0.861 -2.0774  0.5673  0.8569
 2952TIP3   OH230414   1.834   2.876   8.146 -0.4541  0.3525 -0.2317
 2952TIP3    H130415   1.840   2.828   8.063 -0.6891  0.4254 -0.2927
 2952TIP3    H230416   1.740   2.883   8.162 -0.4318  1.1175 -0.4109
 2953TIP3   OH230417   4.133   4.682   2.371 -0.2452 -0.0936  0.0858
 2953TIP3    H130418   4.147   4.588   2.355  2.6222  0.4899 -1.7091
 2953TIP3    H230419   4.079   4.711   2.298  0.3679 -0.0723 -0.3713
 2954TIP3   OH230420   5.238   1.465   8.411  0.2808 -0.1614 -0.6672
 2954TIP3    H130421   5.142   1.467   8.409  0.1495  2.2120  1.9016
 2954TIP3    H230422   5.261   1.379   8.376 -2.7859 -1.0679 -0.7550
 2955TIP3   OH230423   5.418   5.644   2.205 -0.4461  0.4885  0.3561
 2955TIP3    H130424   5.329   5.633   2.239 -0.0710  0.5720  1.3982
 2955TIP3    H230425   5.437   5.736   2.219 -0.4738  0.6421 -0.5841
 2956TIP3   OH230426   0.412   5.981   2.547  0.5771 -0.3657 -0.3934
 2956TIP3    H130427   0.459   6.064   2.540 -0.6782  0.4377  0.4656
 2956TIP3    H230428   0.367   5.984   2.631 -0.7487 -1.2419 -1.0169
 2957TIP3   OH230429   0.826   6.610   0.712 -0.3149 -0.2565  0.0207
 2957TIP3    H130430   0.880   6.545   0.756 -0.0507 -0.0193  0.0518
 2957TIP3    H230431   0.830   6.586   0.619 -1.8593 -1.4821  0.2301
 2958TIP3   OH230432   4.403   5.708   2.273  0.2570 -0.1042  0.0724
 2958TIP3    H130433   4.311   5.735   2.280  0.2202  0.4785 -2.1469
 2958TIP3    H230434   4.452   5.789   2.284  0.5246 -0.3892  1.0782
 2959TIP3   OH230435   3.055   1.515   8.627 -0.3040 -0.1521  0.4745
 2959TIP3    H130436   3.081   1.601   8.593  2.5415 -0.4682  1.5436
 2959TIP3    H230437   3.015   1.535   8.712  0.4153  0.1646  0.7552
 2960TIP3   OH230438   6.612   5.849   7.810 -0.1213 -0.0958  0.2916
 2960TIP3    H130439   6.616   5.922   7.872  0.2804  0.3592 -0.2616
 2960TIP3    H230440   6.521   5.848   7.782  0.2563  1.4556 -1.1626
 2961TIP3   OH230441   5.561   0.054   7.218 -0.1723  0.8852 -0.1370
 2961TIP3    H130442   5.522  -0.015   7.164 -0.1865 -0.0506  1.0241
 2961TIP3    H230443   5.487   0.090   7.267  0.0277  0.8179  0.2200
 2962TIP3   OH230444   4.791   0.310   0.484  0.1422  0.1372 -0.7240
 2962TIP3    H130445   4.737   0.361   0.544  0.6916 -1.1688  0.9636
 2962TIP3    H230446   4.811   0.371   0.413 -0.5432  1.7581  0.3966
 2963TIP3   OH230447   2.039   4.413   8.502  0.5642  0.3829  0.2585
 2963TIP3    H130448   2.075   4.350   8.564 -0.7916  0.4691  1.1762
 2963TIP3    H230449   2.028   4.363   8.421  0.2433 -0.3590  0.7457
 2964TIP3   OH230450   4.246   2.992   2.022  0.2591  0.3125 -0.0319
 2964TIP3    H130451   4.246   2.900   2.048 -0.5815  0.1889 -0.4389
 2964TIP3    H230452   4.194   3.036   2.089  0.5261  0.4655  0.0746
 2965TIP3   OH230453   0.673   2.878   0.247  0.1110 -0.1315  0.1854
 2965TIP3    H130454   0.743   2.848   0.188 -1.3343 -0.7408 -1.3029
 2965TIP3    H230455   0.636   2.798   0.283 -1.7502 -0.0685 -1.4148
 2966TIP3   OH230456   4.237   3.470   1.979  0.2592  0.7511 -0.1807
 2966TIP3    H130457   4.188   3.552   1.987 -0.8131  0.6031 -3.4364
 2966TIP3    H230458   4.171   3.402   1.992  1.1779  0.2947  2.6893
 2967TIP3   OH230459   2.232   2.490   0.173  0.1115 -0.0900 -0.3446
 2967TIP3    H130460   2.158   2.501   0.233 -0.4278 -1.2293 -0.7598
 2967TIP3    H230461   2.259   2.579   0.151 -1.5615  0.3768 -0.6948
 2968TIP3   OH230462   1.218   6.442   2.386  0.2435  0.1608  0.2485
 2968TIP3    H130463   1.203   6.493   2.306 -0.5051  1.3286  1.1080
 2968TIP3    H230464   1.300   6.395   2.370  0.7924  1.4126 -0.6879
 2969TIP3   OH230465   1.960   3.423   1.909 -0.3000  0.6407  0.6821
 2969TIP3    H130466   1.994   3.512   1.907 -0.6353  0.7995  1.4584
 2969TIP3    H230467   1.882   3.428   1.965 -1.6521  0.3004 -1.0963
 2970TIP3   OH230468   1.965   2.708   0.683 -0.6824  0.8124  0.0577
 2970TIP3    H130469   2.026   2.661   0.740 -1.8797 -1.0150 -0.1035
 2970TIP3    H230470   1.909   2.757   0.743 -0.5521  0.6269  0.3333
 2971TIP3   OH230471   1.816   6.175   0.900 -0.4078  0.4326 -0.0855
 2971TIP3    H130472   1.771   6.190   0.983  1.3185  2.6499  0.5621
 2971TIP3    H230473   1.843   6.083   0.904 -0.2923  0.4963  1.8819
 2972TIP3   OH230474   1.835   2.428   2.794 -0.0297  0.1631  0.1161
 2972TIP3    H130475   1.842   2.443   2.889  0.9083  1.6467 -0.1527
 2972TIP3    H230476   1.908   2.478   2.757  0.9706 -2.1268 -1.2421
 2973TIP3   OH230477   0.418   2.101   1.810  0.5729 -0.0469  0.3032
 2973TIP3    H130478   0.369   2.109   1.892 -0.8752  0.4771 -0.5833
 2973TIP3    H230479   0.370   2.035   1.760  2.7875 -2.1296  0.7749
 2974TIP3   OH230480   0.569   4.915   3.002 -0.4675  0.3881  0.5403
 2974TIP3    H130481   0.568   5.006   2.972  1.8267  0.2104 -0.3033
 2974TIP3    H230482   0.658   4.884   2.983 -0.9500 -1.8176  1.4840
 2975TIP3   OH230483   2.720   1.234   0.131  0.0100 -0.6063  0.4861
 2975TIP3    H130484   2.802   1.191   0.154 -0.4243 -1.1655  1.0315
 2975TIP3    H230485   2.675   1.246   0.215 -1.1182 -1.6686  0.0644
 2976TIP3   OH230486   3.861   5.238   1.045 -0.0308 -0.2373 -0.9237
 2976TIP3    H130487   3.775   5.275   1.068  1.4376  2.6925  0.3899
 2976TIP3    H230488   3.889   5.289   0.969  1.9119  1.3629  0.7361
 2977TIP3   OH230489   4.772   5.410   0.875 -0.0513 -0.3508  0.7871
 2977TIP3    H130490   4.704   5.477   0.873 -0.8248 -1.1379 -0.0556
 2977TIP3    H230491   4.770   5.372   0.787  1.5726 -0.3105  0.7020
 2978TIP3   OH230492   0.710   3.772   0.678 -0.1408 -0.6035 -0.0985
 2978TIP3    H130493   0.713   3.821   0.595 -0.4447 -1.9475 -0.9321
 2978TIP3    H230494   0.794   3.725   0.681 -0.4213 -1.1054  0.0006
 2979TIP3   OH230495   3.245   5.712   2.370 -0.6064 -0.0472 -0.6630
 2979TIP3    H130496   3.255   5.782   2.436 -0.8948 -0.0495 -0.6187
 2979TIP3    H230497   3.158   5.677   2.385 -0.2012 -0.8936 -0.2233
 2980TIP3   OH230498   0.264   0.452   1.505 -0.0248  0.5622  0.4113
 2980TIP3    H130499   0.222   0.412   1.429  0.1200  0.5843  0.3192
 2980TIP3    H230500   0.242   0.394   1.578 -0.6512  0.8532  0.4583
 2981TIP3   OH230501   2.103   5.431   7.596 -0.2033  0.3362  0.1105
 2981TIP3    H130502   2.081   5.522   7.573 -1.5408  0.6189  2.2262
 2981TIP3    H230503   2.197   5.425   7.582 -0.1604  1.9089 -0.4976
 2982TIP3   OH230504   3.590   5.485   0.137 -0.2843 -0.6084 -0.1805
 2982TIP3    H130505   3.644   5.418   0.178  1.6733  2.0348  1.9617
 2982TIP3    H230506   3.538   5.521   0.209  0.4632  1.6497 -0.6848
 2983TIP3   OH230507   2.097   1.625   8.514 -0.2352 -0.6664  0.1583
 2983TIP3    H130508   2.174   1.682   8.518 -0.2890 -0.2301 -2.7679
 2983TIP3    H230509   2.127   1.541   8.548  0.8216  0.1402  1.3161
 2984TIP3   OH230510   3.977   5.849   1.427  0.7551  0.2188 -0.1525
 2984TIP3    H130511   3.996   5.924   1.483 -2.0312  1.2477 -0.4385
 2984TIP3    H230512   3.882   5.853   1.413  0.6387 -2.8604 -0.9150
 2985TIP3   OH230513   4.163   1.714   2.187  0.8363 -0.0323 -0.8424
 2985TIP3    H130514   4.245   1.700   2.235 -0.5645 -1.8837  1.1610
 2985TIP3    H230515   4.153   1.810   2.185  2.6894  0.2143 -0.5715
 2986TIP3   OH230516   4.928   5.205   8.114 -0.0253 -0.3985  0.6053
 2986TIP3    H130517   4.874   5.128   8.100 -1.7218  0.7811  0.3685
 2986TIP3    H230518   4.877   5.260   8.173  0.2608  1.3708 -0.7071
 2987TIP3   OH230519   6.434   5.687   8.788 -0.1338  0.3620 -0.1172
 2987TIP3    H130520   6.529   5.692   8.788 -0.0485 -0.3541 -2.0439
 2987TIP3    H230521   6.406   5.758   8.730 -0.7391  0.2381  0.0101
 2988TIP3   OH230522   5.205   6.632   7.906 -0.5021  0.1527  0.1773
 2988TIP3    H130523   5.201   6.663   7.815  0.0814 -2.0746 -0.6705
 2988TIP3    H230524   5.297   6.608   7.919 -0.9884 -1.6634  0.5640
 2989TIP3   OH230525   5.211   2.175   8.657  0.9290  0.0188 -0.0892
 2989TIP3    H130526   5.160   2.181   8.738  1.7139 -1.0141  0.5099
 2989TIP3    H230527   5.280   2.112   8.677  1.9051  0.7126 -1.1670
 2990TIP3   OH230528   3.183   4.563   9.020  0.3227  0.7808  0.3887
 2990TIP3    H130529   3.239   4.625   9.067  1.8824 -0.1549 -0.1379
 2990TIP3    H230530   3.117   4.617   8.978  1.0357  1.9847  0.7693
 2991TIP3   OH230531   4.048   0.953   0.902 -0.4105  0.7814  0.0128
 2991TIP3    H130532   4.099   0.887   0.856 -0.8656  1.9921 -2.3880
 2991TIP3    H230533   4.006   0.905   0.973  0.5732 -1.1427 -0.6348
 2992TIP3   OH230534   0.123   2.519   1.135 -0.1959  0.5039 -0.3705
 2992TIP3    H130535   0.132   2.545   1.043  0.0704 -1.2450 -0.8840
 2992TIP3    H230536   0.183   2.577   1.182 -1.2319  2.2367 -1.1072
 2993TIP3   OH230537   2.369   0.884   2.011  0.5634 -0.4501  0.0749
 2993TIP3    H130538   2.379   0.975   1.984  1.2687  0.1021  2.0023
 2993TIP3    H230539   2.445   0.868   2.067 -0.3948 -1.7244  1.0613
 2994TIP3   OH230540   5.662   3.975   1.718 -0.0961  0.1440 -0.0509
 2994TIP3    H130541   5.753   3.997   1.702  0.1069 -1.5541 -1.5590
 2994TIP3    H230542   5.657   3.956   1.811  1.1300  0.0767  0.0078
 2995TIP3   OH230543   2.337   0.207   0.878 -0.3678 -0.3739  0.1938
 2995TIP3    H130544   2.343   0.231   0.786 -3.3260 -0.2287 -0.0560
 2995TIP3    H230545   2.374   0.282   0.925  0.8773 -0.3168 -0.8254
 2996TIP3   OH230546   1.865   3.838   2.251 -0.0573 -0.2146  0.2971
 2996TIP3    H130547   1.844   3.882   2.333  0.1054 -3.1794  2.0878
 2996TIP3    H230548   1.787   3.787   2.230  1.0604 -2.1500  0.5586
 2997TIP3   OH230549   5.007   2.590   1.098  0.3941 -0.4847  0.0934
 2997TIP3    H130550   4.924   2.620   1.136  1.0252  0.7298  0.5532
 2997TIP3    H230551   4.982   2.547   1.016 -0.8131 -1.4181  0.9131
 2998TIP3   OH230552   5.265   0.074   0.677 -0.4478  0.4720  0.9047
 2998TIP3    H130553   5.186   0.086   0.624 -0.6332 -0.8293  0.8560
 2998TIP3    H230554   5.334   0.118   0.628 -0.7323 -0.1796 -0.1113
 2999TIP3   OH230555   0.851   0.798   8.770  0.0024 -0.0608  0.3940
 2999TIP3    H130556   0.883   0.876   8.815  1.7915 -1.9860  2.6970
 2999TIP3    H230557   0.929   0.755   8.737 -0.8510 -1.3991  0.0173
 3000TIP3   OH230558   5.277   5.082   2.075  0.1934  0.3063  0.0685
 3000TIP3    H130559   5.192   5.106   2.038  0.0181 -0.9409 -0.3957
 3000TIP3    H230560   5.341   5.127   2.019 -0.1367  0.4911 -0.1626
 3001TIP3   OH230561   2.704   3.180   8.176  0.0983  0.1067 -0.2154
 3001TIP3    H130562   2.644   3.135   8.118  0.8079 -1.1533 -0.0177
 3001TIP3    H230563   2.665   3.171   8.263 -0.3514  0.9175 -0.3305
 3002TIP3   OH230564   2.308   4.288   2.612 -0.3022  0.5333  0.6158
 3002TIP3    H130565   2.307   4.369   2.664  2.0391  0.8846  0.2209
 3002TIP3    H230566   2.221   4.285   2.571 -0.1179  3.4530 -0.2401
 3003TIP3   OH230567   1.838   0.541   2.973  0.5057 -0.0918  0.0056
 3003TIP3    H130568   1.909   0.580   3.024 -0.0428 -0.5876  1.1780
 3003TIP3    H230569   1.883   0.485   2.909  1.2202  1.0329 -0.5064
 3004TIP3   OH230570   2.609   5.604   1.428 -0.1856  0.1584 -0.4855
 3004TIP3    H130571   2.624   5.654   1.509  2.0950 -1.2115  0.0482
 3004TIP3    H230572   2.679   5.632   1.370 -0.8396 -0.0667 -1.3910
 3005TIP3   OH230573   0.643   6.274   1.880 -0.4250  1.1830  0.1875
 3005TIP3    H130574   0.681   6.189   1.858  1.4601  1.9602  0.2515
 3005TIP3    H230575   0.718   6.328   1.903 -1.5077  3.0735 -0.5364
 3006TIP3   OH230576   2.398   4.216   8.423 -0.1795  0.0232 -0.3105
 3006TIP3    H130577   2.343   4.153   8.470 -1.2548  1.0735 -0.1248
 3006TIP3    H230578   2.479   4.221   8.475  1.3101 -3.4625 -1.9219
 3007TIP3   OH230579   6.608   6.567   0.547 -0.0586 -0.2381  0.4747
 3007TIP3    H130580   6.560   6.512   0.485 -0.3232  0.7119 -0.1752
 3007TIP3    H230581   6.699   6.537   0.541 -0.3943 -1.4697  1.0870
 3008TIP3   OH230582   0.512   4.651   0.942 -0.7218 -0.0425 -0.5936
 3008TIP3    H130583   0.424   4.629   0.973 -1.0884 -0.1203 -1.6261
 3008TIP3    H230584   0.505   4.648   0.846  0.1425  1.0030 -0.7115
 3009TIP3   OH230585   6.345   6.498   2.426  0.2798 -0.4308 -0.2698
 3009TIP3    H130586   6.325   6.591   2.436 -2.4922 -1.0584  1.0115
 3009TIP3    H230587   6.417   6.482   2.487  1.9852  1.1353 -1.7628
 3010TIP3   OH230588   0.426   2.628   1.918  0.2661  0.1935  0.3029
 3010TIP3    H130589   0.464   2.572   1.850 -0.8547  0.0416 -0.2197
 3010TIP3    H230590   0.479   2.609   1.996  0.6182 -0.7579 -0.1484
 3011TIP3   OH230591   0.100   3.957   7.802  0.2399 -0.3436 -0.4000
 3011TIP3    H130592   0.126   3.865   7.807 -2.2101 -1.0704  1.4495
 3011TIP3    H230593   0.032   3.959   7.735  0.2043  0.0993 -0.3545
 3012TIP3   OH230594   2.433   2.294   1.448  0.5111  0.0910 -0.1841
 3012TIP3    H130595   2.375   2.296   1.524  1.7507 -0.6540  0.8185
 3012TIP3    H230596   2.394   2.228   1.390 -1.7851  2.3424 -1.3829
 3013TIP3   OH230597   2.682   3.492   1.495 -0.4955  0.4524 -0.2659
 3013TIP3    H130598   2.759   3.533   1.455 -0.7380  1.4086  0.2188
 3013TIP3    H230599   2.644   3.561   1.550  0.2642 -1.0063  2.2686
 3014TIP3   OH230600   2.435   4.589   3.071  0.1006  0.2378 -0.5325
 3014TIP3    H130601   2.479   4.621   3.150 -1.8813 -0.2593  0.8535
 3014TIP3    H230602   2.442   4.494   3.077 -2.0399  0.0678  0.3575
 3015TIP3   OH230603   5.210   2.397   8.190 -0.2212 -0.4600 -0.1914
 3015TIP3    H130604   5.221   2.404   8.285  0.0176 -1.6678 -0.1118
 3015TIP3    H230605   5.115   2.400   8.177 -0.4721 -3.0445  0.3946
 3016TIP3   OH230606   3.473   3.871   0.913  0.2160  0.6363  0.1933
 3016TIP3    H130607   3.417   3.797   0.889  1.6093 -0.5253  0.4032
 3016TIP3    H230608   3.489   3.916   0.830 -0.6619  0.7303  0.0644
 3017TIP3   OH230609   5.619   0.413   7.802  0.3347  0.2386  0.0505
 3017TIP3    H130610   5.667   0.368   7.872  1.7264 -1.0146 -1.6047
 3017TIP3    H230611   5.545   0.354   7.783  0.1098  0.4454  0.2807
 3018TIP3   OH230612   3.675   6.085   2.800  0.3338 -0.2185 -0.4463
 3018TIP3    H130613   3.697   6.175   2.824  1.7438  0.0245 -2.4341
 3018TIP3    H230614   3.759   6.041   2.789 -0.3221 -1.9708  0.9458
 3019TIP3   OH230615   5.161   3.504   7.880  0.1574  0.8292  0.5347
 3019TIP3    H130616   5.201   3.482   7.964  1.3119 -0.9321 -0.3866
 3019TIP3    H230617   5.067   3.493   7.894  0.3583  0.2414  1.5286
 3020TIP3   OH230618   5.550   2.514   7.612  0.0694 -0.4570 -0.1481
 3020TIP3    H130619   5.635   2.525   7.570 -0.7906 -0.6210 -2.0196
 3020TIP3    H230620   5.492   2.486   7.542 -1.6882  0.2506  0.9547
 3021TIP3   OH230621   5.132   6.114   3.482 -0.0606  0.0517 -0.3866
 3021TIP3    H130622   5.054   6.169   3.491  0.3232  0.4674  0.5416
 3021TIP3    H230623   5.181   6.154   3.410 -0.6060 -0.0993 -0.8481
 3022TIP3   OH230624   0.496   3.593   0.631 -0.4320 -0.1311 -0.1738
 3022TIP3    H130625   0.568   3.657   0.630 -0.5643  0.0709  1.0786
 3022TIP3    H230626   0.534   3.513   0.596 -0.1407  0.5017 -1.3540
 3023TIP3   OH230627   1.988   1.086   0.670 -0.2515 -0.2644  0.6829
 3023TIP3    H130628   2.038   1.006   0.685  1.4051  0.5517 -0.2072
 3023TIP3    H230629   2.051   1.156   0.685 -1.1883  0.8306 -0.3428
 3024TIP3   OH230630   6.217   1.461   9.016  0.2590  0.2060 -0.3123
 3024TIP3    H130631   6.272   1.501   8.948 -1.2625 -0.7959 -2.2559
 3024TIP3    H230632   6.129   1.492   8.997 -0.2669 -0.4301  0.9758
 3025TIP3   OH230633   5.188   3.122   9.057  0.3188 -0.5531 -0.1757
 3025TIP3    H130634   5.103   3.154   9.086  0.0253 -0.7035 -0.8418
 3025TIP3    H230635   5.168   3.043   9.006  0.8479 -0.5640 -0.3785
 3026TIP3   OH230636   4.856   0.756   2.082 -0.0103  0.1603 -0.1778
 3026TIP3    H130637   4.852   0.849   2.104  0.6482  0.5509 -1.6007
 3026TIP3    H230638   4.923   0.750   2.014  0.1589 -1.4040  0.0820
 3027TIP3   OH230639   4.960   1.692   0.709  0.6566  0.1155  0.1260
 3027TIP3    H130640   5.041   1.648   0.733  0.2748 -1.2957 -1.0939
 3027TIP3    H230641   4.970   1.715   0.617 -0.0946  0.4852  0.1238
 3028TIP3   OH230642   0.548   5.900   8.253  0.0221  0.0355 -0.1547
 3028TIP3    H130643   0.503   5.834   8.201 -0.8277  0.5848 -0.1390
 3028TIP3    H230644   0.501   5.982   8.234  1.8686  0.9218 -1.2222
 3029TIP3   OH230645   6.285   6.431   8.732  0.3200 -0.4486  0.1545
 3029TIP3    H130646   6.246   6.517   8.750 -0.2195 -0.7231  0.3423
 3029TIP3    H230647   6.264   6.378   8.809  1.8479 -0.3581  0.6535
 3030TIP3   OH230648   6.298   2.499   0.029  0.2620 -0.1833  0.1223
 3030TIP3    H130649   6.386   2.467   0.009  1.1767  2.8330 -1.2834
 3030TIP3    H230650   6.302   2.522   0.122  0.9755 -0.0650  0.0706
 3031TIP3   OH230651   0.285   4.545   1.068  0.3640 -0.3385 -0.1211
 3031TIP3    H130652   0.192   4.562   1.085 -0.0087 -1.8244 -0.5264
 3031TIP3    H230653   0.326   4.547   1.154 -0.3109 -1.0915  0.2285
 3032TIP3   OH230654   0.540   3.658   7.031  0.4213 -0.3226  0.0985
 3032TIP3    H130655   0.634   3.658   7.048  0.2415  0.7804  1.2777
 3032TIP3    H230656   0.515   3.750   7.038 -0.3011 -0.1771 -3.0833
 3033TIP3   OH230657   3.224   5.924   0.303 -0.3324  0.0979 -0.2813
 3033TIP3    H130658   3.295   5.889   0.250 -0.1792 -2.1391  1.2273
 3033TIP3    H230659   3.267   5.984   0.365 -0.0668  0.3196 -0.6797
 3034TIP3   OH230660   1.126   3.395   0.029 -0.4413  0.1945 -0.3623
 3034TIP3    H130661   1.153   3.434  -0.054  0.1804  0.8470  0.1356
 3034TIP3    H230662   1.134   3.300   0.015 -0.6525  0.2875 -1.1413
 3035TIP3   OH230663   3.049   3.796   0.457 -0.3422 -0.0785 -0.2808
 3035TIP3    H130664   2.984   3.866   0.465 -0.2815 -0.2122  1.8463
 3035TIP3    H230665   3.005   3.718   0.489  0.5316 -0.3842  0.2159
 3036TIP3   OH230666   4.371   0.285   8.955 -0.1568  0.1226  0.5061
 3036TIP3    H130667   4.375   0.191   8.938  1.1954  0.0921  0.9154
 3036TIP3    H230668   4.357   0.324   8.869 -0.1942 -0.4194  0.2625
 3037TIP3   OH230669   5.993   2.818   8.282  0.4530 -0.3487  0.1818
 3037TIP3    H130670   6.021   2.743   8.335 -0.6209 -0.0581  1.1900
 3037TIP3    H230671   5.994   2.784   8.192  2.7556 -0.7068  0.2690
 3038TIP3   OH230672   0.769   5.762   2.246  0.0473 -0.6785  0.2624
 3038TIP3    H130673   0.762   5.822   2.320 -1.9396 -0.4997 -0.0264
 3038TIP3    H230674   0.849   5.713   2.262  0.3399  0.2607  1.8377
 3039TIP3   OH230675   1.371   0.728   1.749  0.1105  0.5593  0.6063
 3039TIP3    H130676   1.290   0.741   1.798 -1.3218  0.5566 -1.6325
 3039TIP3    H230677   1.408   0.816   1.741  1.4637  0.3619  3.2704
 3040TIP3   OH230678   5.044   5.927   1.048 -0.6359  0.7807  0.4284
 3040TIP3    H130679   4.980   5.939   0.978 -0.0197 -0.9272 -0.4729
 3040TIP3    H230680   5.007   5.857   1.102  0.8363 -0.9019 -0.6354
 3041TIP3   OH230681   1.502   3.527   0.313 -0.4883 -0.1034  0.3882
 3041TIP3    H130682   1.433   3.499   0.372 -0.0170  0.3711  1.1732
 3041TIP3    H230683   1.582   3.487   0.348 -0.3199 -0.4911 -0.3977
 3042TIP3   OH230684   2.262   4.512   7.868  0.1226 -0.1385  0.5185
 3042TIP3    H130685   2.187   4.565   7.839 -0.7439 -1.7085 -0.2677
 3042TIP3    H230686   2.335   4.541   7.812 -0.6220 -0.5395 -0.7090
 3043TIP3   OH230687   0.496   6.603   7.640 -0.5841 -0.5584 -0.3379
 3043TIP3    H130688   0.479   6.604   7.734 -2.9635 -0.4906 -0.7040
 3043TIP3    H230689   0.463   6.687   7.608 -2.7031 -1.7958 -1.6128
 3044TIP3   OH230690   4.939   4.520   1.496 -0.1663  0.2089 -0.3434
 3044TIP3    H130691   4.887   4.463   1.440  1.3862 -0.1017 -1.5590
 3044TIP3    H230692   4.916   4.609   1.468  0.0961  0.0674 -1.0506
 3045TIP3   OH230693   3.422   3.955   1.162  0.3854  0.3001 -0.1395
 3045TIP3    H130694   3.462   3.915   1.085  0.6480  2.0390 -0.9657
 3045TIP3    H230695   3.476   3.926   1.235  0.6927 -0.6390 -0.7220
 3046TIP3   OH230696   6.074   4.681   0.360 -0.1213 -0.0781 -0.0225
 3046TIP3    H130697   6.118   4.620   0.300 -0.6493 -1.0400  0.5315
 3046TIP3    H230698   6.136   4.752   0.372  1.9402 -2.0007  1.7513
 3047TIP3   OH230699   2.789   1.795   1.499 -0.6253  0.1164  0.3619
 3047TIP3    H130700   2.881   1.777   1.519 -0.5155 -0.5986 -0.7071
 3047TIP3    H230701   2.753   1.709   1.477 -1.4171  0.4747  0.2488
 3048TIP3   OH230702   1.223   2.374   1.746  0.1278  0.2759  0.4076
 3048TIP3    H130703   1.280   2.325   1.687 -2.2576 -1.9398 -0.1965
 3048TIP3    H230704   1.185   2.443   1.692  0.2926  0.1738  0.1625
 3049TIP3   OH230705   1.953   0.915   1.538 -0.3337  0.0211  0.5470
 3049TIP3    H130706   1.942   0.983   1.472  0.5231 -1.4173 -1.1610
 3049TIP3    H230707   2.046   0.917   1.560  0.0777 -1.6246 -0.7868
 3050TIP3   OH230708   4.201   2.456   1.707 -0.0826  0.1385  0.1001
 3050TIP3    H130709   4.167   2.374   1.743  0.7206 -1.0038 -1.5840
 3050TIP3    H230710   4.267   2.485   1.770 -1.0458  0.0398  1.1917
 3051TIP3   OH230711   5.252   0.665   1.615 -0.2101  0.1394 -0.2653
 3051TIP3    H130712   5.289   0.737   1.565  0.7139 -0.7790 -0.9372
 3051TIP3    H230713   5.250   0.591   1.554 -2.1160 -0.1447  0.1009
 3052TIP3   OH230714   0.399   1.227   7.274 -0.4203  0.4196 -0.5478
 3052TIP3    H130715   0.330   1.168   7.244  0.2126 -0.5458 -0.1501
 3052TIP3    H230716   0.377   1.311   7.236 -1.2332 -0.1217 -1.3038
 3053TIP3   OH230717   4.269   1.294   6.611 -0.0622  0.8740 -0.2892
 3053TIP3    H130718   4.256   1.373   6.664  1.6234  1.1565 -0.2311
 3053TIP3    H230719   4.183   1.277   6.572 -0.4612  2.7986 -0.3791
 3054TIP3   OH230720   0.268   0.415   2.840 -0.2671  0.2056  0.5387
 3054TIP3    H130721   0.219   0.344   2.882  1.8935 -1.3375  0.6791
 3054TIP3    H230722   0.337   0.436   2.903  0.1937  1.1886 -0.2705
 3055TIP3   OH230723   4.158   2.171   1.599 -0.2403  0.3331  0.3732
 3055TIP3    H130724   4.112   2.240   1.552 -1.6028  0.7597  2.2022
 3055TIP3    H230725   4.250   2.193   1.591 -0.4120  0.3766 -2.0145
 3056TIP3   OH230726   2.594   3.183   8.428 -0.3276 -0.4467 -0.6907
 3056TIP3    H130727   2.617   3.258   8.483  0.4287 -0.0814 -1.4796
 3056TIP3    H230728   2.605   3.107   8.484 -0.6527 -0.0080 -0.0149
 3057TIP3   OH230729   1.219   4.605   1.803 -0.2724  0.6239  0.1037
 3057TIP3    H130730   1.187   4.608   1.893 -0.9644  1.2981 -0.1533
 3057TIP3    H230731   1.282   4.678   1.797  0.4501  0.0265  0.2824
 3058TIP3   OH230732   6.300   4.707   9.042  0.1772  0.4707  0.2246
 3058TIP3    H130733   6.364   4.767   9.080 -1.2227  1.0636  1.7809
 3058TIP3    H230734   6.346   4.623   9.035  1.5545  1.2221 -0.1381
 3059TIP3   OH230735   0.866   5.467   0.968  0.7111  0.0725  0.4064
 3059TIP3    H130736   0.797   5.408   0.939 -0.6661  1.6023  0.4036
 3059TIP3    H230737   0.938   5.409   0.995 -0.1866 -1.5360 -0.5088
 3060TIP3   OH230738   2.031   3.501   2.585 -0.1747 -0.7111  0.3725
 3060TIP3    H130739   2.022   3.408   2.602 -1.5900 -0.5649  0.5579
 3060TIP3    H230740   1.954   3.541   2.627 -0.8374  0.2745 -1.6570
 3061TIP3   OH230741   3.119   5.474   7.459 -0.1855 -0.4648 -0.4873
 3061TIP3    H130742   3.163   5.393   7.484 -0.7443 -1.2015 -1.7937
 3061TIP3    H230743   3.184   5.543   7.473  0.1093 -1.0359  1.2153
 3062TIP3   OH230744   0.697   2.566   8.938  0.3056 -0.0577 -0.4315
 3062TIP3    H130745   0.724   2.657   8.934 -0.1128  0.2060  1.5439
 3062TIP3    H230746   0.776   2.516   8.915  0.7313  0.7703 -0.7993
 3063TIP3   OH230747   1.835   4.944   2.175 -0.1763 -0.7076  0.6424
 3063TIP3    H130748   1.877   5.016   2.129  1.2284 -0.8937  1.5887
 3063TIP3    H230749   1.769   4.985   2.231  1.4954  0.0023  2.1598
 3064TIP3   OH230750   1.078   3.731   8.336  0.0004 -0.6315 -0.1606
 3064TIP3    H130751   1.142   3.674   8.379  0.5153 -1.0151 -1.3915
 3064TIP3    H230752   1.129   3.784   8.275 -0.7210 -0.1724 -0.3804
 3065TIP3   OH230753   2.831   5.298   2.188  0.0818  0.4525  0.1342
 3065TIP3    H130754   2.738   5.295   2.166  0.4868  0.2188 -1.7808
 3065TIP3    H230755   2.875   5.279   2.105  1.8525  1.3640  0.8130
 3066TIP3   OH230756   2.744   5.934   8.796  0.2853 -0.3213 -0.4245
 3066TIP3    H130757   2.673   5.877   8.827  0.4938 -0.3278  0.0613
 3066TIP3    H230758   2.762   5.903   8.707 -0.6706  0.0263 -0.7516
 3067TIP3   OH230759   6.347   1.505   8.484  0.6731 -0.1825  0.0606
 3067TIP3    H130760   6.441   1.514   8.471  0.6588  3.4943  1.2878
 3067TIP3    H230761   6.314   1.595   8.484 -2.8231 -1.3036 -0.0055
 3068TIP3   OH230762   1.560   4.958   8.396 -0.0729  0.3330 -0.4921
 3068TIP3    H130763   1.655   4.947   8.401 -0.0387  0.5145 -0.7219
 3068TIP3    H230764   1.529   4.880   8.349  0.0304  0.5821 -0.9766
 3069TIP3   OH230765   0.013   4.522   1.160  0.3822 -0.0540 -0.0441
 3069TIP3    H130766  -0.061   4.574   1.131  0.0297 -0.3069  0.3922
 3069TIP3    H230767  -0.018   4.476   1.238  0.3107 -1.7917 -1.0331
 3070TIP3   OH230768   1.992   0.690   2.152  0.3034  0.2163  0.4085
 3070TIP3    H130769   2.069   0.737   2.184  0.7098  0.2931 -0.6351
 3070TIP3    H230770   1.918   0.741   2.184  0.6844  3.4953 -3.2566
 3071TIP3   OH230771   4.716   1.765   0.813 -0.0061  0.2651  0.2536
 3071TIP3    H130772   4.805   1.737   0.793 -0.3708 -1.3994  0.7948
 3071TIP3    H230773   4.717   1.860   0.798  1.6958  0.2043 -0.2677
 3072TIP3   OH230774   1.087   5.984   2.721  0.2510  0.5389  0.6597
 3072TIP3    H130775   1.021   5.985   2.791  1.0456 -1.1141  1.5132
 3072TIP3    H230776   1.091   5.892   2.694 -0.8590  1.2794 -2.4542
 3073TIP3   OH230777   5.623   2.994   8.168 -0.8495  0.5201 -0.1418
 3073TIP3    H130778   5.655   2.959   8.252 -1.4232  0.9254  0.2561
 3073TIP3    H230779   5.572   3.071   8.192  1.5067  2.5309 -1.0911
 3074TIP3   OH230780   5.915   3.174   7.898  0.3997 -0.4008  0.3373
 3074TIP3    H130781   5.923   3.186   7.992 -0.5203  0.6601  0.3020
 3074TIP3    H230782   5.936   3.259   7.860  0.0181 -0.6030 -0.3559
 3075TIP3   OH230783   0.193   2.492   2.364 -0.3975 -0.1217  0.4204
 3075TIP3    H130784   0.100   2.469   2.361 -0.3543 -0.1554 -1.2445
 3075TIP3    H230785   0.238   2.412   2.336  0.0600  0.3073 -0.0677
 3076TIP3   OH230786   2.658   2.460   0.204  0.3331 -0.8521 -0.4913
 3076TIP3    H130787   2.646   2.554   0.217  0.6871 -0.9106  0.3219
 3076TIP3    H230788   2.588   2.435   0.145  1.4309  0.2860 -2.3996
 3077TIP3   OH230789   2.288   5.842   8.040 -0.1002 -0.1253 -0.7654
 3077TIP3    H130790   2.271   5.903   7.969 -0.1152  1.1630  0.3114
 3077TIP3    H230791   2.201   5.815   8.069 -0.0962 -0.5042 -1.0878
 3078TIP3   OH230792   0.969   6.339   1.311  0.2771 -0.6310 -0.7651
 3078TIP3    H130793   0.908   6.360   1.382  0.6558  0.0831 -0.6387
 3078TIP3    H230794   1.026   6.416   1.305  2.1657 -1.8735  0.1751
 3079TIP3   OH230795   1.944   3.035   1.195 -0.2473 -0.4672 -0.0272
 3079TIP3    H130796   1.989   3.117   1.218 -0.5308 -0.4272  0.4045
 3079TIP3    H230797   1.869   3.032   1.254  0.1046 -1.3491  0.3895
 3080TIP3   OH230798   0.426   3.583   2.137  0.5159 -0.0567  0.0619
 3080TIP3    H130799   0.433   3.489   2.125  0.8678  0.1161 -1.2281
 3080TIP3    H230800   0.419   3.595   2.232  2.5530 -1.2603  0.4207
 3081TIP3   OH230801   6.343   3.243   8.130  0.0721  0.1643  0.6957
 3081TIP3    H130802   6.250   3.259   8.150 -0.2019 -1.0841  0.4989
 3081TIP3    H230803   6.390   3.298   8.192 -0.7962 -0.3753  1.8710
 3082TIP3   OH230804   1.464   0.034   8.814  0.4262  0.1526  0.2074
 3082TIP3    H130805   1.486   0.057   8.724 -1.5184  0.4212 -0.2503
 3082TIP3    H230806   1.464  -0.062   8.814  0.9710  0.1463  0.0897
 3083TIP3   OH230807   3.700   4.622   1.079 -0.1523  0.1776  0.4293
 3083TIP3    H130808   3.694   4.709   1.120 -0.8754  0.2052  0.2751
 3083TIP3    H230809   3.630   4.572   1.121 -0.9272  0.2135 -0.7744
 3084TIP3   OH230810   1.446   3.859   0.367 -0.1485 -0.9853  0.1027
 3084TIP3    H130811   1.493   3.777   0.351 -0.0436 -0.5519 -2.2298
 3084TIP3    H230812   1.506   3.911   0.421  1.5508 -0.9561 -1.7154
 3085TIP3   OH230813   3.853   0.157   8.887  0.5342 -0.3959 -0.1434
 3085TIP3    H130814   3.861   0.143   8.792  0.2933 -1.7248  0.0195
 3085TIP3    H230815   3.870   0.251   8.898  0.6141 -0.2237 -1.4947
 3086TIP3   OH230816   4.389   0.410   7.177  0.4586 -0.3489 -0.0633
 3086TIP3    H130817   4.295   0.392   7.187  0.7371 -2.0324 -0.0966
 3086TIP3    H230818   4.403   0.409   7.083  0.3199  1.1729 -0.1259
 3087TIP3   OH230819   4.189   2.608   7.863  0.0660  0.1787 -0.2284
 3087TIP3    H130820   4.107   2.571   7.896 -0.0454  0.9833  0.4248
 3087TIP3    H230821   4.229   2.649   7.939  0.2195  1.3415 -0.9164
 3088TIP3   OH230822   3.301   4.283   2.348 -0.2457 -0.0577  0.0611
 3088TIP3    H130823   3.211   4.249   2.347 -0.3346  0.0268  1.9779
 3088TIP3    H230824   3.354   4.208   2.376  0.1734  0.1466 -0.1804
 3089TIP3   OH230825   6.215   5.098   8.739 -0.1221  0.0890  0.1240
 3089TIP3    H130826   6.221   5.113   8.644  0.7697 -1.9682 -0.1973
 3089TIP3    H230827   6.275   5.162   8.777  0.1669  0.3790 -0.7879
 3090TIP3   OH230828   2.114   0.050   2.878 -0.2441  0.4638 -0.0833
 3090TIP3    H130829   2.107   0.131   2.929  0.7645  1.6244 -1.6697
 3090TIP3    H230830   2.202   0.017   2.897 -0.1308  0.5212 -0.4811
 3091TIP3   OH230831   3.807   0.869   2.374 -0.4298  0.0081  0.1684
 3091TIP3    H130832   3.837   0.804   2.438  0.7886  1.9532  1.6745
 3091TIP3    H230833   3.871   0.864   2.304 -0.8045 -0.9464 -0.1261
 3092TIP3   OH230834   4.249   4.696   8.420 -0.4378 -0.2346 -0.3977
 3092TIP3    H130835   4.235   4.602   8.405  0.1278 -0.4514  0.3441
 3092TIP3    H230836   4.210   4.739   8.344 -1.0340 -1.0509 -0.5682
 3093TIP3   OH230837   4.406   3.778   1.381 -0.2614  0.3857  0.1805
 3093TIP3    H130838   4.452   3.745   1.457  0.2490 -0.0571 -0.3108
 3093TIP3    H230839   4.378   3.700   1.334 -0.3622  0.6541 -0.2145
 3094TIP3   OH230840   5.421   5.216   1.861  0.1644 -0.2060  0.8720
 3094TIP3    H130841   5.457   5.286   1.807 -2.2897 -0.1412 -0.8701
 3094TIP3    H230842   5.354   5.175   1.805 -0.9606 -1.6084  3.0968
 3095TIP3   OH230843   0.127   1.413   1.722 -0.1165 -0.4577 -0.4957
 3095TIP3    H130844   0.077   1.494   1.725 -1.7448 -1.4342 -0.0665
 3095TIP3    H230845   0.134   1.392   1.629  0.0019 -0.0105 -0.5856
 3096TIP3   OH230846   0.493   3.541   8.534  0.1967 -0.0488  0.3805
 3096TIP3    H130847   0.480   3.617   8.592 -0.7565  0.8833 -0.9905
 3096TIP3    H230848   0.551   3.573   8.465 -1.3962 -0.0573 -1.0333
 3097TIP3   OH230849   5.033   4.822   2.632  0.2158 -0.2271  0.5490
 3097TIP3    H130850   5.041   4.842   2.725  0.4246  1.4273  0.1889
 3097TIP3    H230851   4.941   4.798   2.621 -0.3804  1.8367  0.7834
 3098TIP3   OH230852   5.653   4.680   9.073 -0.5329  0.2038 -0.0259
 3098TIP3    H130853   5.676   4.739   9.002 -1.6564  0.7792  0.0709
 3098TIP3    H230854   5.598   4.613   9.032 -0.2484 -0.1057  0.0923
 3099TIP3   OH230855   1.849   1.443   1.468  0.2387 -0.1028  0.7694
 3099TIP3    H130856   1.779   1.442   1.403  0.3363  0.5713  0.6524
 3099TIP3    H230857   1.895   1.525   1.452  0.5612 -0.1653  1.3789
 3100TIP3   OH230858   5.032   0.528   8.584  0.7019 -0.3029 -0.4036
 3100TIP3    H130859   5.122   0.501   8.602  1.1589  0.8955 -0.7801
 3100TIP3    H230860   5.030   0.547   8.490  0.1883  0.1194 -0.3144
 3101TIP3   OH230861   0.391   5.686   7.489  0.0385 -0.0780  0.2275
 3101TIP3    H130862   0.306   5.724   7.466 -0.3005 -1.2249 -0.4662
 3101TIP3    H230863   0.395   5.604   7.440  0.1580 -1.6724  2.7462
 3102TIP3   OH230864   2.451   4.474   0.060  0.3605  0.2893 -0.6280
 3102TIP3    H130865   2.529   4.513   0.100 -1.4415  2.9832  0.5696
 3102TIP3    H230866   2.423   4.407   0.122 -0.6299  2.2948  1.2365
 3103TIP3   OH230867   0.928   2.724   7.804  0.2340  0.4063 -0.1252
 3103TIP3    H130868   1.019   2.750   7.801 -0.0198  1.5762  1.1196
 3103TIP3    H230869   0.895   2.739   7.716  1.2992 -0.3173 -0.6647
 3104TIP3   OH230870   3.721   6.079   0.109  0.6272 -0.1200 -0.3101
 3104TIP3    H130871   3.756   6.091   0.197 -1.0878  0.2543  0.3770
 3104TIP3    H230872   3.736   6.163   0.065  0.3773  0.1278  0.0660
 3105TIP3   OH230873   0.596   6.610   0.374  0.1447  0.2625  0.2064
 3105TIP3    H130874   0.602   6.684   0.313  2.2695 -0.2535 -0.2793
 3105TIP3    H230875   0.684   6.573   0.376 -0.2338 -0.6656  2.4695
 3106TIP3   OH230876   4.238   3.299   7.077  0.1206 -0.4835  0.3510
 3106TIP3    H130877   4.165   3.345   7.036  0.0716  0.8975  1.8580
 3106TIP3    H230878   4.311   3.311   7.017 -0.3258  0.1467 -0.0770
 3107TIP3   OH230879   0.959   1.807   9.076  0.2315  0.4207  0.6389
 3107TIP3    H130880   1.035   1.842   9.029  0.5371  0.3566  1.0711
 3107TIP3    H230881   0.997   1.745   9.139 -0.1127  0.8844  1.3180
 3108TIP3   OH230882   2.066   5.506   3.332 -0.9498 -0.1296 -0.3158
 3108TIP3    H130883   2.096   5.500   3.423 -0.7509  0.6173 -0.3214
 3108TIP3    H230884   2.018   5.589   3.329 -0.2368  0.2585 -1.0949
 3109TIP3   OH230885   0.846   1.075   7.597 -0.4773  0.6609 -0.3432
 3109TIP3    H130886   0.913   1.061   7.530  0.2787 -0.9002  0.6835
 3109TIP3    H230887   0.796   1.151   7.565  0.5365  0.6487 -2.1026
 3110TIP3   OH230888   3.347   0.587   2.329  0.2784  0.1945 -0.2210
 3110TIP3    H130889   3.440   0.577   2.351  0.4636  0.0436 -1.0289
 3110TIP3    H230890   3.301   0.554   2.406  0.8859  0.7045  0.3823
 3111TIP3   OH230891   4.388   5.240   1.213  0.5687  0.1908 -0.0872
 3111TIP3    H130892   4.317   5.199   1.164  0.9255  0.6585 -1.0265
 3111TIP3    H230893   4.349   5.318   1.253  0.0754 -0.6271  1.0791
 3112TIP3   OH230894   0.421   6.601   2.650  0.5443  0.0427  0.2196
 3112TIP3    H130895   0.472   6.608   2.570  1.2130  0.3206  0.6538
 3112TIP3    H230896   0.455   6.523   2.694  0.5906  0.2196  0.5037
 3113TIP3   OH230897   3.365   2.035   6.987 -0.4533  0.0702 -0.0350
 3113TIP3    H130898   3.348   2.102   6.921  0.3914 -0.6937 -1.0613
 3113TIP3    H230899   3.405   1.963   6.938 -0.1918 -0.6819  1.2482
 3114TIP3   OH230900   3.055   6.589   8.802 -0.6135 -0.7627  0.4623
 3114TIP3    H130901   3.130   6.635   8.763 -0.4639 -0.2897  1.2813
 3114TIP3    H230902   3.069   6.497   8.780 -0.8482 -0.4510 -1.0986
 3115TIP3   OH230903   0.651   0.519   8.673 -0.4820  0.5160  0.0344
 3115TIP3    H130904   0.692   0.561   8.598 -0.7330  1.3567  0.3528
 3115TIP3    H230905   0.596   0.450   8.635  2.7707 -2.1080 -0.2946
 3116TIP3   OH230906   5.632   6.316   7.816  0.0117 -0.4132 -0.1118
 3116TIP3    H130907   5.718   6.274   7.816 -0.1082 -0.6641 -0.3377
 3116TIP3    H230908   5.571   6.244   7.796 -0.1883 -0.1063 -0.6217
 3117TIP3   OH230909   6.060   0.719   1.731 -0.1653  0.3361  0.2839
 3117TIP3    H130910   6.129   0.781   1.707 -0.8828  1.8078  1.8232
 3117TIP3    H230911   6.045   0.735   1.825 -1.3241 -1.2367  0.4074
 3118TIP3   OH230912   0.425   5.625   8.834  0.1945 -0.7307 -0.0677
 3118TIP3    H130913   0.487   5.676   8.781  0.3188  0.8930  1.5374
 3118TIP3    H230914   0.475   5.549   8.863  1.2121  0.1063  0.4697
 3119TIP3   OH230915   0.051   1.542   2.391 -0.5300  0.0308  0.3868
 3119TIP3    H130916   0.085   1.575   2.475 -0.7102 -0.1198  0.5197
 3119TIP3    H230917   0.023   1.452   2.410 -0.9054  0.1157  0.2558
 3120TIP3   OH230918   0.930   3.393   0.499  0.0666  0.0608  0.3505
 3120TIP3    H130919   0.931   3.406   0.404  0.0618 -0.1160  0.3253
 3120TIP3    H230920   0.919   3.298   0.510  1.4681 -0.0978  0.5228
 3121TIP3   OH230921   6.317   0.893   0.908 -0.0117 -0.1902 -0.3161
 3121TIP3    H130922   6.307   0.855   0.820  0.6370  0.7996 -0.8336
 3121TIP3    H230923   6.235   0.939   0.924  0.5562  1.2132 -1.2206
 3122TIP3   OH230924   0.351   3.791   0.552 -0.0794 -0.0914 -0.2051
 3122TIP3    H130925   0.405   3.712   0.561  1.0135  0.5075 -1.1998
 3122TIP3    H230926   0.331   3.795   0.459 -0.1963  0.7538 -0.1484
 3123TIP3   OH230927   4.976   3.784   2.277  0.5539  0.4536  0.2664
 3123TIP3    H130928   4.955   3.876   2.294  0.8928  0.7704 -0.9616
 3123TIP3    H230929   5.054   3.768   2.332  0.3618  0.8269  0.6577
 3124TIP3   OH230930   2.228   0.963   1.492  0.3664  0.9546 -0.1947
 3124TIP3    H130931   2.261   0.933   1.407  0.8601  0.4280  0.1739
 3124TIP3    H230932   2.238   1.058   1.490 -1.5304  1.1896 -1.5223
 3125TIP3   OH230933   4.217   0.332   7.955 -0.0930 -0.1756 -0.8766
 3125TIP3    H130934   4.136   0.377   7.979 -0.5186 -0.6590 -1.4043
 3125TIP3    H230935   4.267   0.397   7.905  0.0596  0.2780 -0.1525
 3126TIP3   OH230936   5.216   2.126   0.105 -0.5810  0.4835  0.2678
 3126TIP3    H130937   5.254   2.196   0.158 -0.9502 -0.0064  1.2063
 3126TIP3    H230938   5.167   2.172   0.037  1.9941  1.1555 -1.2963
 3127TIP3   OH230939   1.090   3.184   1.219 -0.3550 -0.1869  0.1328
 3127TIP3    H130940   1.007   3.144   1.244 -1.2372  0.3341 -1.8143
 3127TIP3    H230941   1.094   3.265   1.271  0.1614 -1.3821  2.0597
 3128TIP3   OH230942   4.632   1.609   1.024  0.3275  0.4117 -0.2571
 3128TIP3    H130943   4.663   1.667   0.955  0.7612 -0.1111 -0.5111
 3128TIP3    H230944   4.666   1.647   1.105  0.0106  0.8990 -0.3448
 3129TIP3   OH230945   3.894   0.368   1.469  0.2595 -0.1354 -0.4201
 3129TIP3    H130946   3.978   0.330   1.442  0.4948  0.6491 -0.8308
 3129TIP3    H230947   3.870   0.425   1.396 -1.3625 -1.4457 -0.9738
 3130TIP3   OH230948   3.736   5.405   8.119 -0.2927 -0.2328 -0.4136
 3130TIP3    H130949   3.812   5.348   8.122  0.3076  0.5563  2.0889
 3130TIP3    H230950   3.772   5.493   8.110 -0.9049  0.1050  0.2811
 3131TIP3   OH230951   5.346   2.494   7.815  0.5959 -0.6778 -0.1721
 3131TIP3    H130952   5.260   2.526   7.786  0.2034 -0.4871  1.1351
 3131TIP3    H230953   5.408   2.538   7.757 -0.2401 -2.5184 -2.6474
 3132TIP3   OH230954   2.170   3.260   1.838  0.2081  0.3251 -0.1163
 3132TIP3    H130955   2.106   3.310   1.889 -0.5018 -0.6873  0.0145
 3132TIP3    H230956   2.235   3.324   1.811 -1.1431  1.4889 -0.7115
 3133TIP3   OH230957   2.986   6.274   2.836 -0.7334  0.4267  0.2704
 3133TIP3    H130958   2.912   6.246   2.891 -0.7536  1.4668  0.7992
 3133TIP3    H230959   3.054   6.300   2.899 -0.1499  0.0826 -0.2121
 3134TIP3   OH230960   0.500   6.049   1.721 -0.0119  0.2757  0.4750
 3134TIP3    H130961   0.415   6.050   1.677 -0.1704 -2.1835  0.5940
 3134TIP3    H230962   0.560   6.088   1.657 -0.8554  0.0547 -0.4891
 3135TIP3   OH230963   5.587   0.226   0.850  0.0054 -0.4079  0.6769
 3135TIP3    H130964   5.560   0.206   0.940 -0.5460 -1.5239  0.2834
 3135TIP3    H230965   5.682   0.235   0.855  0.1191 -1.6833  1.1667
 3136TIP3   OH230966   3.093   5.264   9.066 -0.1843 -0.4484 -0.1652
 3136TIP3    H130967   3.055   5.176   9.057 -0.7180 -0.3613  1.0516
 3136TIP3    H230968   3.049   5.301   9.143 -0.3357  1.0822 -0.9532
 3137TIP3   OH230969   2.031   5.983   0.019 -0.0353  0.0546  0.1430
 3137TIP3    H130970   2.027   6.078   0.005 -0.7281 -0.2321 -1.9123
 3137TIP3    H230971   2.010   5.945  -0.066  0.6044 -1.9662  0.8270
 3138TIP3   OH230972   4.524   2.412   2.671 -0.8573 -1.2730  0.2978
 3138TIP3    H130973   4.522   2.481   2.738  0.9512 -0.0134 -0.8665
 3138TIP3    H230974   4.438   2.418   2.629 -1.0165 -0.2700  0.7280
 3139TIP3   OH230975   6.031   1.722   8.108 -0.1164  0.0491  0.2059
 3139TIP3    H130976   5.955   1.667   8.128  0.7562 -0.8421  1.1440
 3139TIP3    H230977   6.030   1.790   8.175 -0.9208  0.9354 -0.6721
 3140TIP3   OH230978   1.999   3.814   8.104  0.3979 -0.2003 -0.6870
 3140TIP3    H130979   1.925   3.812   8.044 -0.6961  2.1905  0.4003
 3140TIP3    H230980   2.072   3.846   8.051  0.3180 -1.2549 -1.4573
 3141TIP3   OH230981   1.804   4.264   0.249 -0.1475  0.1249 -0.2143
 3141TIP3    H130982   1.734   4.300   0.303 -0.0190  0.7127 -0.4280
 3141TIP3    H230983   1.867   4.336   0.242 -1.0803  0.8067 -2.8199
 3142TIP3   OH230984   2.356   2.710   0.098  0.0606 -0.4916 -0.5636
 3142TIP3    H130985   2.449   2.723   0.077  0.6177  0.2587  1.9328
 3142TIP3    H230986   2.314   2.792   0.072  0.0730 -0.8216 -1.6741
 3143TIP3   OH230987   1.229   2.245   2.726 -0.7159 -0.2659  0.3780
 3143TIP3    H130988   1.157   2.223   2.667 -1.5420  1.1150  0.8216
 3143TIP3    H230989   1.195   2.224   2.814 -1.1318  1.6061  0.7125
 3144TIP3   OH230990   5.128   3.812   0.901 -1.2566 -0.2377  0.1093
 3144TIP3    H130991   5.095   3.901   0.901 -0.4068  0.1324  2.2395
 3144TIP3    H230992   5.062   3.762   0.950 -1.7510 -0.8337 -1.1068
 3145TIP3   OH230993   0.255   1.808   8.718  0.1186 -0.5800 -0.1751
 3145TIP3    H130994   0.200   1.750   8.665 -0.6602  1.7819 -2.1853
 3145TIP3    H230995   0.203   1.825   8.797 -1.1723 -0.0409 -1.0982
 3146TIP3   OH230996   3.010   1.608   1.554  0.3048  0.6203  0.0407
 3146TIP3    H130997   2.972   1.567   1.476 -2.2062  1.7833  0.5513
 3146TIP3    H230998   2.992   1.545   1.624  2.4846 -0.3845 -0.2212
 3147TIP3   OH230999   2.961   2.329   0.186 -0.0827 -0.0688 -0.0654
 3147TIP3    H131000   2.965   2.425   0.192 -1.0693 -0.0077 -0.1338
 3147TIP3    H231001   3.052   2.301   0.178  0.3030  0.7844  1.1478
 3148TIP3   OH231002   1.150   3.573   8.935 -0.4393  0.2082  0.1686
 3148TIP3    H131003   1.161   3.667   8.943  0.1203  0.3107 -1.4530
 3148TIP3    H231004   1.059   3.562   8.905 -0.4824  0.2405  0.2888
 3149TIP3   OH231005   3.367   6.199   8.100 -0.1051 -0.6533  0.2430
 3149TIP3    H131006   3.312   6.235   8.169 -1.1833 -1.0626 -0.3703
 3149TIP3    H231007   3.453   6.238   8.114 -1.0133  1.5919  0.0443
 3150TIP3   OH231008   4.601   0.147   8.544 -0.1335 -0.3382  0.0109
 3150TIP3    H131009   4.508   0.172   8.541 -0.0611 -0.0922 -0.2677
 3150TIP3    H231010   4.636   0.177   8.460  0.1909 -0.4624  0.1019
 3151TIP3   OH231011   3.766   6.475   0.650  0.0330 -0.4818  0.1875
 3151TIP3    H131012   3.784   6.395   0.600  0.7296  0.2446 -0.7736
 3151TIP3    H231013   3.702   6.523   0.597  1.2205  0.5709 -0.3479
 3152TIP3   OH231014   2.943   4.365   0.656 -0.4676 -0.3888 -0.0892
 3152TIP3    H131015   3.017   4.426   0.658 -1.6336  1.0949 -0.1733
 3152TIP3    H231016   2.983   4.279   0.660  1.3029  0.3424 -0.8189
 3153TIP3   OH231017   4.742   5.595   1.265 -0.5303 -0.1776  0.7478
 3153TIP3    H131018   4.722   5.571   1.174 -0.3983  0.6451  0.4853
 3153TIP3    H231019   4.658   5.586   1.310 -0.4515 -1.2439  0.7071
 3154TIP3   OH231020   6.330   4.926   8.413 -0.4875  0.3090 -0.4350
 3154TIP3    H131021   6.386   4.937   8.336  0.0380  0.6446 -0.0061
 3154TIP3    H231022   6.348   5.002   8.467 -1.5316  0.5454 -0.3915
 3155TIP3   OH231023   6.370   3.255   2.918 -0.2145  0.1227 -0.0450
 3155TIP3    H131024   6.282   3.220   2.908  0.4095 -1.9688  1.1350
 3155TIP3    H231025   6.427   3.180   2.903  1.3890  1.4159 -0.7345
 3156TIP3   OH231026   4.635   0.329   0.922 -0.1649 -0.7125  0.4961
 3156TIP3    H131027   4.555   0.281   0.943 -1.6500  1.0287 -0.7882
 3156TIP3    H231028   4.684   0.331   1.005 -1.8407 -1.1593  1.5597
 3157TIP3   OH231029   3.346   3.020   0.398  0.2579  0.0498 -0.1484
 3157TIP3    H131030   3.315   2.969   0.473 -0.2373  1.2044  0.4600
 3157TIP3    H231031   3.378   3.102   0.436  1.0240  0.2145 -1.0982
 3158TIP3   OH231032   1.000   4.605   2.168  0.2281 -0.2210  0.1092
 3158TIP3    H131033   1.041   4.554   2.098  0.4415 -0.5944  0.5088
 3158TIP3    H231034   1.064   4.672   2.190  0.4593 -0.5527  0.4499
 3159TIP3   OH231035   6.517   1.205   0.530  0.7708  0.0265 -0.1397
 3159TIP3    H131036   6.472   1.203   0.614  1.2083  1.6743  0.1747
 3159TIP3    H231037   6.478   1.279   0.483 -0.8241 -1.9981 -2.2330
 3160TIP3   OH231038   4.832   5.172   0.516 -0.0652 -0.1630 -0.5487
 3160TIP3    H131039   4.795   5.158   0.429  0.6771  1.6984 -1.2188
 3160TIP3    H231040   4.764   5.218   0.564  0.2097  0.5084 -0.7854
 3161TIP3   OH231041   3.254   1.709   8.945 -0.0119  0.1818  0.5927
 3161TIP3    H131042   3.348   1.705   8.927  0.0332 -1.1710  1.0341
 3161TIP3    H231043   3.246   1.681   9.036 -0.6116  3.0258  1.5280
 3162TIP3   OH231044   2.307   1.014   2.261  0.4049 -0.1227 -0.4316
 3162TIP3    H131045   2.324   1.006   2.167  2.0111 -1.8573 -0.0510
 3162TIP3    H231046   2.241   1.083   2.268  0.5722  0.3452 -2.7891
 3163TIP3   OH231047   6.637   5.372   2.317 -0.0530  0.7370  0.1727
 3163TIP3    H131048   6.632   5.468   2.319  0.6558  0.8406 -1.5273
 3163TIP3    H231049   6.597   5.348   2.234  0.2571 -0.4187  0.3433
 3164TIP3   OH231050   5.732   3.460   1.084  0.4470  0.2567 -0.4409
 3164TIP3    H131051   5.700   3.406   1.156  3.8210 -2.5653 -0.7645
 3164TIP3    H231052   5.653   3.496   1.044 -1.7358 -0.4701  2.7917
 3165TIP3   OH231053   3.408   4.226   1.210 -0.4670 -0.3757 -0.0582
 3165TIP3    H131054   3.483   4.248   1.266 -0.3893  0.2941 -0.4089
 3165TIP3    H231055   3.407   4.131   1.207 -0.7322 -0.4465  1.4259
 3166TIP3   OH231056   0.538   5.932   7.437  0.3360 -0.5174 -0.3414
 3166TIP3    H131057   0.561   5.957   7.348  2.1430 -0.2462  0.1584
 3166TIP3    H231058   0.475   5.861   7.427 -0.4909  0.3669 -1.8029
 3167TIP3   OH231059   3.012   6.337   0.059  0.2906  0.3886  0.8012
 3167TIP3    H131060   2.930   6.320   0.014 -0.8839 -0.0075  2.9407
 3167TIP3    H231061   3.020   6.432   0.060  0.3964  0.4054 -0.2633
 3168TIP3   OH231062   2.137   3.031   1.568  0.0308 -0.1332 -0.0500
 3168TIP3    H131063   2.148   3.020   1.474  0.9742 -0.5181  0.0956
 3168TIP3    H231064   2.093   3.115   1.577 -1.2011 -0.6619 -0.8822
 3169TIP3   OH231065   3.775   2.870   8.614 -0.0616  0.0755 -0.0309
 3169TIP3    H131066   3.829   2.851   8.691  2.1365 -0.6424 -1.6288
 3169TIP3    H231067   3.757   2.783   8.576  1.5802  0.5088 -1.9782
 3170TIP3   OH231068   3.974   4.605   8.552 -0.4087 -0.1225  0.1437
 3170TIP3    H131069   3.981   4.530   8.492  3.2078 -0.7992  1.1587
 3170TIP3    H231070   4.027   4.673   8.510 -0.8839  0.6903  0.8404
 3171TIP3   OH231071   1.918   1.439   1.091 -0.2456 -0.0463 -0.3355
 3171TIP3    H131072   1.961   1.505   1.146  0.0900 -0.4367 -0.1209
 3171TIP3    H231073   1.988   1.406   1.035 -0.1308 -1.0784  0.3928
 3172TIP3   OH231074   1.406   6.335   8.171  0.1298 -0.3473  0.1267
 3172TIP3    H131075   1.429   6.403   8.108 -0.5711 -0.8233 -0.6630
 3172TIP3    H231076   1.408   6.254   8.120  0.8314 -0.9047  1.0253
 3173TIP3   OH231077   5.128   5.070   7.776 -0.0453 -0.5926  0.5140
 3173TIP3    H131078   5.150   5.140   7.715  0.5223 -0.1225  1.2421
 3173TIP3    H231079   5.033   5.062   7.771 -0.2619  1.0314  1.2649
 3174TIP3   OH231080   4.039   1.333   8.940 -0.2850  0.1731 -0.2978
 3174TIP3    H131081   4.014   1.425   8.928  1.2178  0.7939  0.9286
 3174TIP3    H231082   3.960   1.284   8.918 -0.9474  1.7113 -1.5620
 3175TIP3   OH231083   2.888   0.214   1.194 -0.2772  0.0351 -0.7594
 3175TIP3    H131084   2.868   0.121   1.205 -0.4705  0.1848  0.2137
 3175TIP3    H231085   2.824   0.259   1.248  0.3394  0.7024 -0.5733
 3176TIP3   OH231086   2.935   4.606   1.550 -0.3955  0.3705 -0.4771
 3176TIP3    H131087   2.872   4.656   1.603 -0.1172  0.5838 -0.3397
 3176TIP3    H231088   3.020   4.643   1.575 -0.2928  0.7423 -1.3673
 3177TIP3   OH231089   3.307   3.388   0.056 -0.7455  0.3866  0.0540
 3177TIP3    H131090   3.221   3.350   0.038  0.0111 -1.3933  0.0737
 3177TIP3    H231091   3.369   3.328   0.016  0.4996  1.9679 -0.5061
 3178TIP3   OH231092   4.114   3.070   7.145 -0.7102 -0.0701 -0.4137
 3178TIP3    H131093   4.168   3.144   7.116 -0.6712 -0.8927 -2.6353
 3178TIP3    H231094   4.028   3.086   7.105 -1.2568 -0.2887  0.6384
 3179TIP3   OH231095   1.298   2.335   9.050 -0.3332 -0.4487 -0.1560
 3179TIP3    H131096   1.226   2.273   9.053 -1.3378  0.7092  0.7776
 3179TIP3    H231097   1.268   2.405   8.992 -0.0976  0.1672  0.4426
 3180TIP3   OH231098   2.507   1.868   0.847  0.2851  1.1672 -0.0498
 3180TIP3    H131099   2.541   1.892   0.761  0.9281  0.6669  0.0595
 3180TIP3    H231100   2.563   1.796   0.877  0.9723  2.2249  1.3746
 3181TIP3   OH231101   5.946   2.995   2.021 -0.4998  0.3710  0.3702
 3181TIP3    H131102   5.955   3.090   2.031 -1.4961  0.8228 -2.2406
 3181TIP3    H231103   6.031   2.959   2.047  0.6853  2.2011 -0.7610
 3182TIP3   OH231104   6.279   4.897   0.263 -0.2211  0.3362  0.2334
 3182TIP3    H131105   6.360   4.845   0.261 -0.4223 -0.0038  0.6939
 3182TIP3    H231106   6.257   4.911   0.171  0.8194  1.1561  0.0965
 3183TIP3   OH231107   5.025   0.589   8.313  0.4853  0.1089 -0.1894
 3183TIP3    H131108   5.107   0.565   8.270  0.1366 -0.0576 -0.7789
 3183TIP3    H231109   4.962   0.598   8.241 -0.0195  0.1981  0.2562
 3184TIP3   OH231110   3.398   6.645   8.344 -0.7298 -0.0795 -0.0560
 3184TIP3    H131111   3.391   6.640   8.439 -0.0502 -1.1813 -0.0579
 3184TIP3    H231112   3.490   6.664   8.327 -0.5639 -1.2518 -0.5322
 3185TIP3   OH231113   6.284   0.125   0.973  0.3919  0.1099  0.0993
 3185TIP3    H131114   6.283   0.114   1.068 -1.0024  0.2197  0.1170
 3185TIP3    H231115   6.313   0.040   0.940 -0.3807 -0.3583  0.5853
 3186TIP3   OH231116   5.044   2.530   1.458 -0.1067  0.0177  0.0547
 3186TIP3    H131117   5.114   2.574   1.506 -0.7973 -0.2027  1.2894
 3186TIP3    H231118   4.980   2.599   1.439 -0.5249 -0.1681  0.7566
 3187TIP3   OH231119   0.014   1.723   8.516 -0.3009  0.2621  0.0325
 3187TIP3    H131120  -0.034   1.645   8.490 -0.4638  1.1419 -2.6719
 3187TIP3    H231121   0.030   1.769   8.434 -0.6593  3.3550  1.5618
 3188TIP3   OH231122   2.157   6.636   2.586  0.6506 -0.5444 -0.0927
 3188TIP3    H131123   2.097   6.562   2.603 -0.9305  0.7386  0.1749
 3188TIP3    H231124   2.125   6.706   2.643  1.4187  0.7103 -1.1584
 3189TIP3   OH231125   0.834   4.075   8.226  0.4601  0.1205  0.0585
 3189TIP3    H131126   0.847   4.115   8.140 -0.5935 -1.1772 -0.7349
 3189TIP3    H231127   0.744   4.097   8.250 -0.5201 -2.4816 -0.8559
 3190TIP3   OH231128   2.665   1.497   7.305  0.0656  0.2290 -0.2454
 3190TIP3    H131129   2.734   1.543   7.352  0.0931  0.6006 -0.6465
 3190TIP3    H231130   2.663   1.409   7.344  0.4390  0.3695  0.0886
 3191TIP3   OH231131   0.790   6.401   0.973  0.0045 -0.0575  0.2076
 3191TIP3    H131132   0.749   6.391   1.059 -1.0318  0.9615 -0.1399
 3191TIP3    H231133   0.819   6.313   0.950 -1.4338 -0.7011  0.7586
 3192TIP3   OH231134   6.375   1.625   0.745 -0.4917 -0.0250 -0.3458
 3192TIP3    H131135   6.350   1.629   0.653 -0.6010 -2.0724 -0.4509
 3192TIP3    H231136   6.462   1.585   0.745 -0.1958  0.5799  0.4194
 3193TIP3   OH231137   2.767   6.067   8.251 -0.1011 -0.0039  0.0733
 3193TIP3    H131138   2.860   6.077   8.269 -0.0363  1.9570 -1.0575
 3193TIP3    H231139   2.763   6.049   8.157 -0.8621 -0.0636  0.1091
 3194TIP3   OH231140   5.289   1.901   7.370  0.1179 -0.4012  0.2222
 3194TIP3    H131141   5.216   1.869   7.423 -0.2645  1.4304  0.8611
 3194TIP3    H231142   5.339   1.822   7.347 -0.4978 -1.3843  2.1176
 3195TIP3   OH231143   6.435   1.646   1.375  0.4158  0.0439  0.1540
 3195TIP3    H131144   6.456   1.608   1.460  1.8142  1.1821  0.3569
 3195TIP3    H231145   6.468   1.583   1.311 -0.9228 -0.9638  0.4261
 3196TIP3   OH231146   4.548   2.765   1.283  0.1594 -0.0492  0.0575
 3196TIP3    H131147   4.504   2.681   1.298 -1.4378  0.6209 -0.6426
 3196TIP3    H231148   4.493   2.829   1.329  1.1202  0.6773  0.2173
 3197TIP3   OH231149   4.062   5.136   2.811 -0.5189 -0.1597 -0.3565
 3197TIP3    H131150   3.983   5.144   2.864  0.1160 -0.4053  0.6548
 3197TIP3    H231151   4.083   5.043   2.813  2.1147  0.3025  2.9678
 3198TIP3   OH231152   1.270   0.497   2.449  0.1054 -0.0937 -0.3784
 3198TIP3    H131153   1.203   0.498   2.518 -0.9867  0.5287 -1.3960
 3198TIP3    H231154   1.330   0.427   2.474 -1.1113 -0.8868  0.4123
 3199TIP3   OH231155   3.902   2.747   1.529  0.0859 -0.6329  0.1252
 3199TIP3    H131156   3.815   2.717   1.555 -0.2391  0.5844  0.5093
 3199TIP3    H231157   3.886   2.810   1.459  0.6789 -0.5206  0.0808
 3200TIP3   OH231158   2.836   2.798   0.435  0.1236  0.1254  1.4869
 3200TIP3    H131159   2.786   2.767   0.360  0.2420  3.3693 -0.0957
 3200TIP3    H231160   2.923   2.760   0.422 -0.3350 -0.8275  1.0411
 3201TIP3   OH231161   6.290   3.443   2.240 -0.1266 -0.5386  0.3919
 3201TIP3    H131162   6.219   3.492   2.281 -0.6700 -0.7844 -0.2286
 3201TIP3    H231163   6.269   3.444   2.146  0.4237 -1.0353  0.2549
 3202TIP3   OH231164   6.656   2.174   0.574 -0.5594 -0.0523 -0.1213
 3202TIP3    H131165   6.734   2.173   0.518  0.3695 -0.6801  1.1199
 3202TIP3    H231166   6.615   2.089   0.560  0.8742 -1.1195  1.6837
 3203TIP3   OH231167   6.724   2.117   1.441 -0.3115  0.5544  0.2266
 3203TIP3    H131168   6.669   2.057   1.492 -1.4410  0.2036 -1.3425
 3203TIP3    H231169   6.809   2.114   1.485 -0.5943 -1.4967  0.7492
 3204TIP3   OH231170   4.472   3.910   8.664  0.4698 -0.0576 -0.3123
 3204TIP3    H131171   4.494   4.002   8.650 -0.9564  0.6038  1.4656
 3204TIP3    H231172   4.508   3.890   8.751 -0.8920 -0.6071  0.1432
 3205TIP3   OH231173   2.843   0.651   0.192 -0.0911  1.0367 -0.1663
 3205TIP3    H131174   2.861   0.733   0.145  1.3594  0.8826  0.0825
 3205TIP3    H231175   2.840   0.676   0.284 -0.8284  0.9897 -0.1715
 3206TIP3   OH231176   2.861   5.366   8.116 -0.1844  0.0401  0.5779
 3206TIP3    H131177   2.912   5.370   8.035 -2.2248  1.1960 -0.7257
 3206TIP3    H231178   2.867   5.454   8.153  0.3174 -0.3451  1.4259
 3207TIP3   OH231179   2.417   2.495   1.103  0.1996  0.5392 -0.6819
 3207TIP3    H131180   2.323   2.478   1.113  0.1848  1.1632  0.4167
 3207TIP3    H231181   2.450   2.421   1.054 -0.6614 -0.3242  0.0114
 3208TIP3   OH231182   5.244   4.366   0.233  0.3108  0.2922  0.3416
 3208TIP3    H131183   5.228   4.289   0.179 -0.5812  0.7812 -0.1165
 3208TIP3    H231184   5.157   4.393   0.263  0.6696  0.8054  0.9377
 3209TIP3   OH231185   4.161   5.102   8.793 -0.2829  0.1520 -0.7468
 3209TIP3    H131186   4.071   5.134   8.799 -0.0014  0.6850  1.1812
 3209TIP3    H231187   4.177   5.059   8.877  0.4857 -2.1348 -1.9752
 3210TIP3   OH231188   0.011   6.102   2.219  0.4415 -0.5157 -0.4711
 3210TIP3    H131189   0.020   6.053   2.301 -1.8153 -2.8801 -1.4997
 3210TIP3    H231190  -0.053   6.171   2.240  0.1954 -0.8423 -0.1139
 3211TIP3   OH231191   5.937   2.900   8.704 -0.8214 -0.0755 -0.3782
 3211TIP3    H131192   5.848   2.912   8.738 -0.8445 -0.2992 -0.3631
 3211TIP3    H231193   5.931   2.826   8.644 -0.3210 -1.1389  0.8407
 3212TIP3   OH231194   6.598   2.293   1.895  0.5807  0.0852 -0.4588
 3212TIP3    H131195   6.686   2.307   1.928  1.1221 -1.7273 -1.0035
 3212TIP3    H231196   6.574   2.206   1.926 -0.5501  0.0721 -1.2905
 3213TIP3   OH231197   5.655   4.472   1.854 -0.7335  0.0733  0.1555
 3213TIP3    H131198   5.643   4.378   1.870 -0.7890  0.2964  1.5649
 3213TIP3    H231199   5.586   4.514   1.906 -0.8384  0.8943 -0.6193
 3214TIP3   OH231200   1.801   6.726   1.084  0.0805 -0.6693 -0.2448
 3214TIP3    H131201   1.757   6.782   1.019  0.7656 -1.6773 -1.6165
 3214TIP3    H231202   1.749   6.737   1.163 -0.8791  0.4868 -0.9915
 3215TIP3   OH231203   2.391   6.637   8.909  0.0374  0.1889  0.1734
 3215TIP3    H131204   2.326   6.574   8.878 -0.7101  0.6699  0.7210
 3215TIP3    H231205   2.375   6.715   8.856  1.9103 -0.4901 -1.5279
 3216TIP3   OH231206   1.331   2.893   6.917  0.4721 -0.1245  0.1716
 3216TIP3    H131207   1.350   2.912   7.009  2.2527 -1.6488  0.1746
 3216TIP3    H231208   1.415   2.866   6.880 -0.3870 -0.4109 -1.6867
 3217TIP3   OH231209   4.097   3.445   7.758 -0.2498  0.1254 -0.3501
 3217TIP3    H131210   4.172   3.485   7.804  0.9652 -0.5491 -1.6664
 3217TIP3    H231211   4.081   3.504   7.684 -0.0632 -0.4922 -0.8904
 3218TIP3   OH231212   1.226   3.945   7.704  0.0550 -0.4114  0.0679
 3218TIP3    H131213   1.174   3.966   7.627  1.9770 -1.1164 -1.4860
 3218TIP3    H231214   1.172   3.974   7.778 -1.8429  0.2685 -1.5092
 3219TIP3   OH231215   4.884   0.293   2.418 -0.0902 -0.4072  0.8889
 3219TIP3    H131216   4.799   0.328   2.446 -0.5876 -0.3813 -0.5801
 3219TIP3    H231217   4.882   0.299   2.323  1.6498 -0.2314  0.8376
 3220TIP3   OH231218   4.983   1.498   7.500 -0.0820  0.3234 -0.6170
 3220TIP3    H131219   5.006   1.525   7.410  1.7134  0.2389 -0.2357
 3220TIP3    H231220   5.066   1.467   7.536 -0.6266  1.0000  1.3020
 3221TIP3   OH231221   1.208   5.063   0.373 -0.3735  0.5192 -0.2431
 3221TIP3    H131222   1.256   5.009   0.311  0.0402  0.6978 -0.0819
 3221TIP3    H231223   1.132   5.010   0.397 -0.1954  0.1861 -0.4061
 3222TIP3   OH231224   0.445   5.100   2.030 -0.1001 -0.5841 -0.0944
 3222TIP3    H131225   0.372   5.100   1.968  1.6080 -0.9512 -2.2551
 3222TIP3    H231226   0.472   5.008   2.036 -0.1308 -0.5350  1.1139
 3223TIP3   OH231227   0.040   3.841   2.050  0.5309  0.0631  0.4239
 3223TIP3    H131228   0.044   3.761   1.998  0.5171  1.0235 -1.1113
 3223TIP3    H231229   0.110   3.830   2.115  1.8095 -0.3954 -0.9641
 3224TIP3   OH231230   5.480   0.753   8.567 -0.1662 -0.6940 -0.3606
 3224TIP3    H131231   5.422   0.681   8.591  0.2657 -0.4819  1.4955
 3224TIP3    H231232   5.517   0.783   8.650  0.0907  1.3199 -1.1378
 3225TIP3   OH231233   2.100   6.507   0.304 -0.1556  0.8091  0.0547
 3225TIP3    H131234   2.037   6.441   0.275 -0.6412  0.4747  1.7707
 3225TIP3    H231235   2.178   6.491   0.251 -0.8979  0.0691 -0.8460
 3226TIP3   OH231236   0.696   0.255   2.931 -0.8522 -0.5265 -0.2359
 3226TIP3    H131237   0.656   0.234   2.847  0.5935  0.3195 -1.1663
 3226TIP3    H231238   0.790   0.253   2.914 -0.5354 -0.1180  1.3114
 3227TIP3   OH231239   5.433   2.206   7.826 -0.1978 -1.3162  0.2213
 3227TIP3    H131240   5.413   2.164   7.742  2.7075  0.2110 -1.3984
 3227TIP3    H231241   5.414   2.298   7.812  1.1606 -0.9086  0.9049
 3228TIP3   OH231242   0.035   3.265   1.339  0.0924  0.3349 -0.0433
 3228TIP3    H131243   0.075   3.349   1.362 -0.6725  0.9963 -1.0371
 3228TIP3    H231244   0.029   3.218   1.422  2.3451  0.4450  0.2264
 3229TIP3   OH231245   2.185   1.847   1.381 -0.2247  0.5298  0.1279
 3229TIP3    H131246   2.202   1.786   1.310  0.2550 -0.0230  0.6973
 3229TIP3    H231247   2.170   1.931   1.338 -0.3095  0.1298 -0.6355
 3230TIP3   OH231248   0.956   0.411   0.384 -0.8065 -0.0238  0.1186
 3230TIP3    H131249   0.905   0.332   0.395  2.0634 -2.1877 -0.9384
 3230TIP3    H231250   0.983   0.411   0.293  0.2744  1.5237  0.3885
 3231TIP3   OH231251   5.692   3.230   0.775  0.1492 -0.1842 -0.0710
 3231TIP3    H131252   5.752   3.160   0.802 -1.6506 -2.3517 -1.3290
 3231TIP3    H231253   5.734   3.269   0.699  1.6906  0.9450  1.2700
 3232TIP3   OH231254   6.373   0.600   1.747 -0.6160  0.4769 -0.1007
 3232TIP3    H131255   6.306   0.587   1.814 -2.5148 -0.8838 -2.0824
 3232TIP3    H231256   6.433   0.527   1.757  0.6202  1.6669  1.6488
 3233TIP3   OH231257   3.574   0.744   2.003 -0.4502 -0.2038 -0.0372
 3233TIP3    H131258   3.646   0.717   2.059 -0.0926  0.9057  0.0518
 3233TIP3    H231259   3.610   0.739   1.914  0.2767  1.8899  0.1039
 3234TIP3   OH231260   2.057   5.877   2.373  0.2465  0.4774  0.0335
 3234TIP3    H131261   2.060   5.793   2.418  0.6468 -0.0040 -0.8492
 3234TIP3    H231262   2.120   5.931   2.420  0.2142  0.1858  0.4204
 3235TIP3   OH231263   4.782   3.460   7.445  0.2532  0.4080 -0.5579
 3235TIP3    H131264   4.721   3.484   7.515  1.2662  1.9792 -0.1827
 3235TIP3    H231265   4.832   3.387   7.481  0.6807  1.1248  0.3240
 3236TIP3   OH231266   6.677   6.252   1.813  0.4357 -0.5117  0.0203
 3236TIP3    H131267   6.639   6.166   1.834 -0.2041  0.0932  1.4775
 3236TIP3    H231268   6.770   6.234   1.798  0.5800 -1.3050  1.6123
 3237TIP3   OH231269   3.458   1.667   1.904 -0.1974 -0.4307  0.2989
 3237TIP3    H131270   3.448   1.589   1.958 -2.2984 -1.6371 -1.6370
 3237TIP3    H231271   3.381   1.721   1.925 -1.2071 -1.0496 -1.5644
 3238TIP3   OH231272   4.687   6.710   9.025 -0.3836 -0.4669 -0.2476
 3238TIP3    H131273   4.599   6.706   8.988 -0.1320 -1.2645 -0.7833
 3238TIP3    H231274   4.738   6.757   8.960 -0.1035 -1.2465 -0.6059
 3239TIP3   OH231275   0.425   2.188   0.459  0.0760 -0.3090  0.0280
 3239TIP3    H131276   0.462   2.264   0.413 -0.7591  0.0097 -0.1281
 3239TIP3    H231277   0.500   2.149   0.504  0.5043  0.6352  0.1573
 3240TIP3   OH231278   2.019   0.244   0.209 -0.5869  0.1108 -0.4549
 3240TIP3    H131279   1.994   0.189   0.284 -1.7376 -0.0294 -0.9204
 3240TIP3    H231280   1.982   0.199   0.133 -1.2183  1.3100 -0.8876
 3241TIP3   OH231281   4.891   0.920   7.209  0.7033  0.2106 -0.0571
 3241TIP3    H131282   4.954   0.903   7.278  0.3305 -2.7666 -0.2967
 3241TIP3    H231283   4.927   0.877   7.132 -1.1608 -0.8810 -0.3979
 3242TIP3   OH231284   2.372   4.469   1.225  0.3504 -0.3472 -0.2230
 3242TIP3    H131285   2.412   4.485   1.139  2.9230  0.1835  0.9611
 3242TIP3    H231286   2.346   4.377   1.223  1.5645 -0.6942 -1.1354
 3243TIP3   OH231287   3.416   5.793   0.506  0.3476 -0.5732 -0.3971
 3243TIP3    H131288   3.495   5.809   0.454 -0.1833 -0.7380 -1.2891
 3243TIP3    H231289   3.397   5.877   0.548 -0.1460  0.0781 -1.8346
 3244TIP3   OH231290   5.673   0.566   0.669 -0.0738 -0.1150 -0.7251
 3244TIP3    H131291   5.753   0.527   0.703 -1.0473 -0.0435  1.9356
 3244TIP3    H231292   5.606   0.541   0.733 -1.9006  1.0219 -2.0941
 3245TIP3   OH231293   3.186   5.128   1.745  0.6909 -0.2081 -0.6352
 3245TIP3    H131294   3.195   5.111   1.652  0.6522 -0.4835 -0.5891
 3245TIP3    H231295   3.105   5.084   1.770  0.3804  0.3745 -0.5940
 3246TIP3   OH231296   4.505   2.964   7.236  0.1709  0.4368 -0.1770
 3246TIP3    H131297   4.442   3.009   7.293 -0.8564 -1.7927  0.5937
 3246TIP3    H231298   4.576   2.939   7.295  0.4979  0.6134 -0.4929
 3247TIP3   OH231299   0.936   2.525   1.609 -0.3080  0.5006  0.3645
 3247TIP3    H131300   0.914   2.434   1.588  0.2624  0.1641  1.1793
 3247TIP3    H231301   0.999   2.551   1.542  1.2152 -0.4384  1.3719
 3248TIP3   OH231302   4.489   5.320   8.331 -0.7737  0.2769 -0.3998
 3248TIP3    H131303   4.432   5.302   8.257 -0.1486 -2.4145 -0.3317
 3248TIP3    H231304   4.435   5.302   8.408  0.0655 -2.4218 -0.3354
 3249TIP3   OH231305   1.684   6.227   0.601  0.5559  0.2865  0.6829
 3249TIP3    H131306   1.718   6.298   0.655 -0.9212  1.1026  0.5914
 3249TIP3    H231307   1.709   6.252   0.512 -1.1461  1.4900  0.4768
 3250TIP3   OH231308   3.173   2.047   8.901  0.4930  0.2379 -0.4353
 3250TIP3    H131309   3.221   2.099   8.836  0.5882 -1.2843 -1.6406
 3250TIP3    H231310   3.240   1.995   8.945  0.3289  0.6780  0.3628
 3251TIP3   OH231311   4.512   0.703   7.140  0.6746 -0.1011  0.1911
 3251TIP3    H131312   4.462   0.655   7.206  0.7707 -0.2306  0.1688
 3251TIP3    H231313   4.452   0.710   7.065  0.0037  1.3409  0.8123
 3252TIP3   OH231314   4.416   6.374   8.222  0.2417  0.1327 -0.0842
 3252TIP3    H131315   4.407   6.279   8.224 -0.4874  0.2053  0.1424
 3252TIP3    H231316   4.328   6.406   8.204  0.2286  0.8186  1.1188
 3253TIP3   OH231317   3.174   3.441   1.718  0.0852  0.5645 -0.3698
 3253TIP3    H131318   3.232   3.517   1.727  0.9514  0.0234 -1.1570
 3253TIP3    H231319   3.178   3.397   1.803  1.2748  0.2440 -0.5712
 3254TIP3   OH231320   4.269   6.598   0.598  0.1943  0.1659 -0.1367
 3254TIP3    H131321   4.275   6.689   0.568  1.6461  0.0439 -0.2826
 3254TIP3    H231322   4.179   6.590   0.630 -0.7485  0.9464 -2.3566
 3255TIP3   OH231323   5.207   3.771   8.993 -0.3457  0.3109  0.1516
 3255TIP3    H131324   5.179   3.791   9.082 -0.8136 -1.1967  0.3784
 3255TIP3    H231325   5.201   3.854   8.946 -2.8572  0.5867  0.8163
 3256TIP3   OH231326   5.831   5.838   8.141 -0.6563 -0.3075  0.4304
 3256TIP3    H131327   5.846   5.932   8.141 -0.4819 -0.3299 -0.3515
 3256TIP3    H231328   5.919   5.800   8.142 -0.6539 -0.4460 -1.5251
 3257TIP3   OH231329   1.476   1.239   1.618 -0.1337 -0.1701 -0.1930
 3257TIP3    H131330   1.505   1.328   1.600  0.4003  0.2921  2.4827
 3257TIP3    H231331   1.556   1.190   1.634 -0.5055 -0.5049  0.7312
 3258TIP3   OH231332   2.486   3.903   2.059  0.1111  0.0798 -0.0545
 3258TIP3    H131333   2.483   3.990   2.019 -0.7764  0.7696  1.4343
 3258TIP3    H231334   2.576   3.874   2.045  0.0626  0.6433 -1.7638
 3259TIP3   OH231335   6.268   3.516   1.365  0.0796  0.7150 -0.8936
 3259TIP3    H131336   6.270   3.584   1.432 -2.1413 -0.6067  0.6476
 3259TIP3    H231337   6.175   3.491   1.359  0.4879 -0.5020 -3.1389
 3260TIP3   OH231338   2.928   6.091   2.650  0.5332 -0.6561 -0.7682
 3260TIP3    H131339   2.956   6.157   2.714  0.4166 -0.2456 -1.1323
 3260TIP3    H231340   2.923   6.139   2.568 -2.2545 -0.4329 -0.5631
 3261TIP3   OH231341   4.171   2.684   1.518  0.4214  0.8067 -0.0576
 3261TIP3    H131342   4.174   2.601   1.565  0.2539  0.1466 -1.1937
 3261TIP3    H231343   4.077   2.702   1.507  0.4518  0.2701 -1.3091
 3262TIP3   OH231344   1.840   1.245   2.398 -0.0008  0.1521  0.1809
 3262TIP3    H131345   1.769   1.307   2.379 -0.2581 -0.8946 -2.6525
 3262TIP3    H231346   1.796   1.171   2.440 -0.3132  0.2273 -0.0106
 3263TIP3   OH231347   6.184   0.383   1.973  0.2995  0.0368 -0.0965
 3263TIP3    H131348   6.230   0.299   1.967  0.9101  0.4140 -0.9013
 3263TIP3    H231349   6.154   0.401   1.884 -0.5488  0.2871  0.2256
 3264TIP3   OH231350   6.227   3.940   8.771 -0.5116 -0.0929 -0.3151
 3264TIP3    H131351   6.135   3.912   8.766 -0.4504 -0.6795  1.2099
 3264TIP3    H231352   6.276   3.859   8.779  0.1224  0.2431 -0.7215
 3265TIP3   OH231353   6.130   3.471   1.779 -0.2319 -0.0608  0.5694
 3265TIP3    H131354   6.132   3.377   1.801 -0.1404 -0.4837 -1.1284
 3265TIP3    H231355   6.069   3.477   1.705 -1.1521  1.4084  1.3939
 3266TIP3   OH231356   2.426   1.870   8.714 -0.7189  0.0590 -0.5691
 3266TIP3    H131357   2.350   1.842   8.764 -1.3793  0.3567 -1.3715
 3266TIP3    H231358   2.433   1.964   8.731  1.0230 -0.3799  1.5010
 3267TIP3   OH231359   0.915   3.585   0.712 -0.3478  0.2077  0.3333
 3267TIP3    H131360   0.976   3.657   0.695  0.0418  0.3249  2.0720
 3267TIP3    H231361   0.929   3.524   0.640  0.8422  0.8845 -0.0301
 3268TIP3   OH231362   1.775   0.012   1.377 -0.3409 -0.1406  0.2581
 3268TIP3    H131363   1.741   0.095   1.410  1.6415  0.4247  1.0355
 3268TIP3    H231364   1.772  -0.048   1.452  1.0717  0.1723  0.6052
 3269TIP3   OH231365   1.610   2.198   7.377  0.5757 -0.7559  0.0280
 3269TIP3    H131366   1.700   2.212   7.408  0.5449  0.8353 -0.5355
 3269TIP3    H231367   1.563   2.277   7.401 -0.3821 -1.0600 -0.7656
 3270TIP3   OH231368   0.755   5.341   2.995  0.1175  0.1266  0.2846
 3270TIP3    H131369   0.802   5.266   3.031 -1.1310 -0.5775  0.4684
 3270TIP3    H231370   0.761   5.408   3.063  0.2399 -0.2009  0.5972
 3271TIP3   OH231371   5.661   1.680   0.647 -0.5160  0.1813  0.0068
 3271TIP3    H131372   5.690   1.759   0.691  0.0985 -0.1505  0.2141
 3271TIP3    H231373   5.593   1.643   0.704 -0.0590  0.0042  0.4403
 3272TIP3   OH231374   0.946   6.164   0.946 -0.3739 -0.1052 -0.1289
 3272TIP3    H131375   0.938   6.180   0.852  0.5345  0.2809 -0.1599
 3272TIP3    H231376   1.039   6.142   0.958 -0.6351 -0.8627  0.5800
 3273TIP3   OH231377   1.432   0.970   0.850 -0.0007 -0.2491 -0.2341
 3273TIP3    H131378   1.366   0.979   0.781 -1.1740 -1.1852  0.7148
 3273TIP3    H231379   1.447   1.059   0.881 -0.1279  0.0764 -1.0685
 3274TIP3   OH231380   4.448   5.393   8.735 -0.2415 -0.5076  0.0313
 3274TIP3    H131381   4.423   5.455   8.667 -1.2582  0.4378  1.2390
 3274TIP3    H231382   4.428   5.307   8.698  0.2362 -0.0874 -1.2606
 3275TIP3   OH231383   3.297   1.207   8.335  0.8003  0.3797  0.4190
 3275TIP3    H131384   3.251   1.124   8.328 -0.4109  1.0579 -0.0137
 3275TIP3    H231385   3.382   1.192   8.294  0.1571 -0.3236 -0.6948
 3276TIP3   OH231386   5.606   5.068   0.683  0.2156  0.1623  0.2522
 3276TIP3    H131387   5.663   5.033   0.752  1.0241  0.2887 -0.3333
 3276TIP3    H231388   5.634   5.022   0.603 -0.5053  0.2342 -0.0432
 3277TIP3   OH231389   0.203   5.820   0.678  0.3501  0.0924 -0.3928
 3277TIP3    H131390   0.142   5.772   0.621  0.6154  0.1980 -0.7650
 3277TIP3    H231391   0.233   5.754   0.741 -1.7958  0.4967  1.1911
 3278TIP3   OH231392   6.544   2.844   1.920 -0.1722  0.0991 -0.6613
 3278TIP3    H131393   6.595   2.765   1.934 -0.9005 -0.1109  1.0539
 3278TIP3    H231394   6.461   2.813   1.884  0.3189  0.2944 -1.9841
 3279TIP3   OH231395   5.116   5.914   2.255  0.0983 -0.2572 -0.0275
 3279TIP3    H131396   5.141   5.925   2.347  0.6224 -1.5113  0.0124
 3279TIP3    H231397   5.073   5.996   2.231  0.5797  0.3578  1.1312
 3280TIP3   OH231398   0.909   0.555   2.921  0.0762 -0.1534 -0.2538
 3280TIP3    H131399   0.931   0.464   2.898 -0.6460 -0.5215  0.4885
 3280TIP3    H231400   0.911   0.601   2.837  1.6428 -0.5910 -0.4848
 3281TIP3   OH231401   5.349   4.920   2.618 -0.1775  0.2016  0.1755
 3281TIP3    H131402   5.385   4.987   2.559 -0.6291  0.7872  0.5557
 3281TIP3    H231403   5.281   4.877   2.565  0.9267 -0.7761 -0.4761
 3282TIP3   OH231404   1.814   3.026   2.373 -0.1038  0.4708 -0.1766
 3282TIP3    H131405   1.728   2.989   2.352 -1.1381  1.8216  1.3538
 3282TIP3    H231406   1.825   3.097   2.309  0.0121  0.1262 -0.5442
 3283TIP3   OH231407   3.682   4.095   7.594 -0.2407 -0.6160 -0.4121
 3283TIP3    H131408   3.649   4.182   7.616 -2.7085 -1.7226  0.5431
 3283TIP3    H231409   3.745   4.112   7.523 -0.0988  1.9812  0.2105
 3284TIP3   OH231410   1.467   2.309   8.236 -0.0918 -0.2944  0.0157
 3284TIP3    H131411   1.387   2.322   8.186  0.7448  0.6075 -1.1280
 3284TIP3    H231412   1.492   2.396   8.266  0.6900 -0.4939 -0.0170
 3285TIP3   OH231413   2.678   6.611   7.924 -0.0401 -0.2004  0.1705
 3285TIP3    H131414   2.611   6.590   7.989 -0.8431 -0.2994 -0.6727
 3285TIP3    H231415   2.709   6.698   7.949 -0.4262 -0.1844  0.6148
 3286TIP3   OH231416   2.827   1.555   0.742 -0.0245 -0.1368 -0.2188
 3286TIP3    H131417   2.805   1.616   0.671  2.5569  0.1732 -0.8580
 3286TIP3    H231418   2.912   1.585   0.774 -0.6191 -0.9218  2.3337
 3287TIP3   OH231419   3.418   0.644   7.129  0.3677  0.1625 -0.1237
 3287TIP3    H131420   3.460   0.559   7.120 -2.2610 -1.2745  0.2579
 3287TIP3    H231421   3.430   0.668   7.221  0.4593 -0.1707 -0.0509
 3288TIP3   OH231422   5.768   2.340   8.697  0.1560 -0.2551 -0.2683
 3288TIP3    H131423   5.844   2.342   8.639 -1.7551 -0.9962 -2.9678
 3288TIP3    H231424   5.743   2.432   8.707  0.9733 -0.0622  0.0941
 3289TIP3   OH231425   2.037   0.026   8.582  0.2762  0.5413  0.4911
 3289TIP3    H131426   2.120  -0.022   8.587  0.4182  0.8752  1.3625
 3289TIP3    H231427   1.972  -0.037   8.613 -0.0314 -0.2069 -1.4924
 3290TIP3   OH231428   6.242   6.728   8.475  0.0438  0.5096  0.2951
 3290TIP3    H131429   6.280   6.812   8.450  0.1738  0.5197  0.5206
 3290TIP3    H231430   6.205   6.744   8.562 -1.0307  0.6694 -0.1660
 3291TIP3   OH231431   6.354   2.214   9.018 -0.0866 -0.0099 -0.5708
 3291TIP3    H131432   6.320   2.129   8.992  0.6699 -0.9762  1.3709
 3291TIP3    H231433   6.367   2.206   9.113  2.1337  1.4912 -0.6892
 3292TIP3   OH231434   3.627   4.076   8.523 -0.3069 -0.5956 -0.2064
 3292TIP3    H131435   3.637   4.171   8.530  2.9564 -0.9607  2.6794
 3292TIP3    H231436   3.632   4.045   8.613 -0.8638 -3.5976 -1.0952
 3293TIP3   OH231437   4.766   4.881   0.021  0.0159  0.3945 -0.3086
 3293TIP3    H131438   4.690   4.838  -0.019 -0.0260 -0.3820  0.5675
 3293TIP3    H231439   4.833   4.812   0.025 -0.3421  0.0943  1.9216
 3294TIP3   OH231440   4.123   5.702   7.796 -0.3232 -0.3097  0.3322
 3294TIP3    H131441   4.215   5.728   7.791  0.1024 -1.2836  2.3037
 3294TIP3    H231442   4.125   5.607   7.801 -1.4640 -0.3487  0.2793
 3295TIP3   OH231443   5.097   1.175   0.818  0.1726 -0.0898 -0.0436
 3295TIP3    H131444   5.029   1.236   0.847  0.2790  0.2397 -0.4767
 3295TIP3    H231445   5.090   1.101   0.879 -0.6812 -0.1380 -0.1883
 3296TIP3   OH231446   0.938   5.819   1.942 -1.1295 -0.6117  0.0737
 3296TIP3    H131447   0.961   5.894   1.997 -2.7129  1.3617 -1.8019
 3296TIP3    H231448   1.007   5.816   1.875 -1.1906 -0.7083  0.0150
 3297TIP3   OH231449   3.764   2.790   1.026  0.0654 -0.3659 -0.1307
 3297TIP3    H131450   3.752   2.700   0.997  2.9621 -0.9841  0.2929
 3297TIP3    H231451   3.684   2.835   0.997  0.3659 -2.0469 -4.3470
 3298TIP3   OH231452   3.683   2.633   8.525 -0.0535 -0.0276 -0.1751
 3298TIP3    H131453   3.690   2.612   8.618  1.2849 -0.3408 -0.3309
 3298TIP3    H231454   3.644   2.555   8.486  1.5803 -0.8675 -0.2112
 3299TIP3   OH231455   3.186   0.294   8.436  0.1014 -0.0530  0.0909
 3299TIP3    H131456   3.263   0.346   8.414  1.3998 -1.2211  1.6973
 3299TIP3    H231457   3.192   0.217   8.379  1.4491 -1.2596  1.7360
 3300TIP3   OH231458   1.731   3.715   8.164 -0.4062 -0.1897  0.3852
 3300TIP3    H131459   1.703   3.771   8.092  1.0968  2.7544  1.9152
 3300TIP3    H231460   1.651   3.701   8.216 -0.3866  3.1904  1.5650
 3301TIP3   OH231461   3.902   3.726   8.762 -0.2444  0.0022 -0.1237
 3301TIP3    H131462   3.862   3.647   8.725 -1.7528 -0.8605  3.0213
 3301TIP3    H231463   3.828   3.778   8.792  0.8147  1.9011 -0.6691
 3302TIP3   OH231464   4.565   3.825   8.116 -0.2629  0.1820 -0.0013
 3302TIP3    H131465   4.475   3.810   8.088 -0.1253 -0.4400 -0.1342
 3302TIP3    H231466   4.559   3.893   8.182 -0.8961 -0.2385  0.3803
 3303TIP3   OH231467   4.331   4.878   1.326  0.2362  0.0463 -0.4048
 3303TIP3    H131468   4.387   4.934   1.272 -0.3442  1.2491  0.2013
 3303TIP3    H231469   4.246   4.878   1.280  0.4650 -1.0720 -0.8646
 3304TIP3   OH231470   0.831   1.665   7.296 -0.5911  0.2220  0.0815
 3304TIP3    H131471   0.818   1.573   7.321  0.2470  0.1921  0.4677
 3304TIP3    H231472   0.783   1.675   7.214 -0.7788 -0.5368  0.0913
 3305TIP3   OH231473   1.568   4.235   8.751  0.5004 -0.4708 -0.2249
 3305TIP3    H131474   1.531   4.287   8.679 -1.2540  0.9130  1.5540
 3305TIP3    H231475   1.502   4.169   8.770 -0.2946  0.7872  1.7077
 3306TIP3   OH231476   1.559   5.216   7.576 -0.1400 -0.2863 -0.1324
 3306TIP3    H131477   1.508   5.211   7.495  0.3728  1.9952 -0.6706
 3306TIP3    H231478   1.498   5.247   7.642 -0.2163 -0.7912  0.0429
 3307TIP3   OH231479   6.113   5.464   8.011  0.1604 -0.3670  0.5447
 3307TIP3    H131480   6.122   5.550   8.051  1.0229 -0.8310  1.4025
 3307TIP3    H231481   6.101   5.481   7.918  1.1462  0.6600  0.5930
 3308TIP3   OH231482   5.105   0.401   0.943  0.8483  0.1066  0.5451
 3308TIP3    H131483   5.028   0.391   0.887  1.1051  1.1018 -0.0137
 3308TIP3    H231484   5.101   0.491   0.973  1.8866  0.2233  0.3595
 3309TIP3   OH231485   1.787   4.547   2.692 -0.3293  0.3754 -0.7664
 3309TIP3    H131486   1.784   4.457   2.725 -0.2439  0.7648  0.3610
 3309TIP3    H231487   1.695   4.570   2.676 -0.5779  0.7705  0.9673
 3310TIP3   OH231488   4.203   0.907   1.980  0.3802  1.2897 -0.5004
 3310TIP3    H131489   4.228   0.979   2.038  0.1818  1.3366 -0.4702
 3310TIP3    H231490   4.249   0.831   2.015 -0.2806  1.1742  0.1489
 3311TIP3   OH231491   5.471   5.732   8.517  0.2556  0.1454  0.0963
 3311TIP3    H131492   5.402   5.716   8.580 -0.1988 -1.6882 -0.7702
 3311TIP3    H231493   5.426   5.756   8.436  0.6646 -0.0675 -0.2049
 3312TIP3   OH231494   0.068   4.581   0.746 -0.0805 -0.3524  0.0982
 3312TIP3    H131495   0.107   4.646   0.804  0.6802  0.0904 -0.8792
 3312TIP3    H231496   0.091   4.497   0.785 -0.1202 -0.0558  0.7751
 3313TIP3   OH231497   5.124   5.860   0.565  0.6471  0.1458 -0.3349
 3313TIP3    H131498   5.159   5.880   0.652 -0.2267  2.1494 -0.3855
 3313TIP3    H231499   5.199   5.872   0.506  0.8397  0.4310 -0.0324
 3314TIP3   OH231500   6.258   0.836   8.798 -0.4351  0.5100 -0.0229
 3314TIP3    H131501   6.288   0.834   8.889  0.4838 -1.1048 -0.3348
 3314TIP3    H231502   6.338   0.841   8.747 -0.9562  1.6453 -0.7734
 3315TIP3   OH231503   2.783   2.245   0.401 -0.2413 -0.9244 -0.3896
 3315TIP3    H131504   2.821   2.285   0.322 -0.8806  2.5121  0.8699
 3315TIP3    H231505   2.692   2.275   0.401 -0.5898 -1.8951  1.0446
 3316TIP3   OH231506   1.813   4.911   1.486 -0.3134  0.3189 -0.0346
 3316TIP3    H131507   1.853   4.887   1.569  3.2108  1.6311 -1.1579
 3316TIP3    H231508   1.867   4.983   1.453 -2.8292  1.2753 -2.5239
 3317TIP3   OH231509   0.578   0.763   7.797  0.5509 -0.7620  0.3356
 3317TIP3    H131510   0.581   0.681   7.847 -0.7644  0.2759  2.2573
 3317TIP3    H231511   0.533   0.824   7.856  0.2727  0.9622 -1.5920
 3318TIP3   OH231512   1.574   0.102   8.576 -0.1454 -0.0582 -0.6306
 3318TIP3    H131513   1.604   0.191   8.597 -0.6833  0.1223 -0.5927
 3318TIP3    H231514   1.593   0.092   8.483  0.4794 -0.1355 -0.4969
 3319TIP3   OH231515   3.886   1.027   8.798 -0.6427 -0.1508  0.1532
 3319TIP3    H131516   3.829   0.957   8.768 -1.2585  0.3250  0.2028
 3319TIP3    H231517   3.888   1.090   8.726 -0.6893  0.1361  0.4003
 3320TIP3   OH231518   4.746   1.400   1.592  0.6368  0.2139 -0.4463
 3320TIP3    H131519   4.764   1.401   1.686  1.7413 -1.5468 -0.5982
 3320TIP3    H231520   4.821   1.447   1.554  1.1379 -0.6659 -0.5613
 3321TIP3   OH231521   4.842   4.794   1.480  0.0857  0.0590  0.2892
 3321TIP3    H131522   4.764   4.737   1.477 -0.0800  0.2407 -3.6427
 3321TIP3    H231523   4.808   4.882   1.467  0.6846  0.7906  2.9578
 3322TIP3   OH231524   6.118   5.944   6.987 -0.0269 -0.0112 -0.0189
 3322TIP3    H131525   6.028   5.917   6.968 -0.4923  2.1203 -1.0764
 3322TIP3    H231526   6.154   5.969   6.902  2.2985 -2.6154  0.0182
 3323TIP3   OH231527   5.550   1.560   1.136  0.2202  0.0988  0.2898
 3323TIP3    H131528   5.585   1.645   1.159 -0.6547  0.1735  1.4218
 3323TIP3    H231529   5.619   1.498   1.161  0.5096  0.4107  0.2703
 3324TIP3   OH231530   3.802   0.289   7.934  0.0244  0.7059  0.2428
 3324TIP3    H131531   3.804   0.266   7.841 -0.0578  0.4544  0.3026
 3324TIP3    H231532   3.711   0.275   7.960 -0.1521  1.6210  0.1529
 3325TIP3   OH231533   1.187   0.562   1.609 -0.0881 -0.2470  0.3263
 3325TIP3    H131534   1.265   0.607   1.639 -0.9595  2.3927 -1.0838
 3325TIP3    H231535   1.220   0.486   1.561  1.4796 -0.6141  1.8830
 3326TIP3   OH231536   4.858   0.756   0.521 -0.2992 -0.2193 -0.5720
 3326TIP3    H131537   4.901   0.682   0.564 -1.0178  0.3566  1.2649
 3326TIP3    H231538   4.796   0.789   0.587  0.8997  2.8330 -0.7849
 3327TIP3   OH231539   0.242   6.383   0.754  0.0081 -0.4964 -0.3373
 3327TIP3    H131540   0.208   6.466   0.720 -2.1274 -1.4267 -0.5983
 3327TIP3    H231541   0.338   6.393   0.750 -0.1942  1.5588 -1.2925
 3328TIP3   OH231542   5.853   6.163   7.520 -0.0910 -0.4092 -0.0997
 3328TIP3    H131543   5.762   6.135   7.529  0.1374 -1.6992 -1.3460
 3328TIP3    H231544   5.865   6.174   7.426  0.5538  1.5913  0.1732
 3329TIP3   OH231545   6.524   2.724   0.376  0.0001 -0.3853  0.1461
 3329TIP3    H131546   6.550   2.814   0.393 -2.0386  0.3302 -0.2277
 3329TIP3    H231547   6.562   2.674   0.448  1.1660  0.7575  0.3567
 3330TIP3   OH231548   2.457   5.782   8.880  0.2479  0.2984 -0.1609
 3330TIP3    H131549   2.469   5.693   8.848  0.2725  0.7398 -1.4261
 3330TIP3    H231550   2.429   5.771   8.971 -1.2437 -1.0465 -0.7334
 3331TIP3   OH231551   5.659   4.598   8.771  0.0048  0.0955 -0.3354
 3331TIP3    H131552   5.687   4.651   8.697 -1.4684 -0.0788 -1.0529
 3331TIP3    H231553   5.741   4.569   8.812  0.8345  1.1309 -1.2007
 3332TIP3   OH231554   5.492   2.244   7.162  0.2613 -0.1571 -0.3221
 3332TIP3    H131555   5.478   2.324   7.110 -0.1704  0.6191  0.9489
 3332TIP3    H231556   5.467   2.173   7.103  1.5636  0.5637 -1.8173
 3333TIP3   OH231557   4.862   1.270   0.952 -0.0665 -0.3497 -0.0279
 3333TIP3    H131558   4.829   1.182   0.935 -0.6837 -0.0648 -0.3509
 3333TIP3    H231559   4.805   1.303   1.022 -0.1482 -0.0340 -0.2417
 3334TIP3   OH231560   3.747   5.139   8.360 -0.2524 -0.2441 -0.5989
 3334TIP3    H131561   3.672   5.164   8.306 -1.1683 -0.7217  0.3948
 3334TIP3    H231562   3.821   5.140   8.301 -0.9336  0.8624 -1.4794
 3335TIP3   OH231563   3.491   2.575   6.706  0.1796  0.5002 -0.1088
 3335TIP3    H131564   3.564   2.634   6.691 -0.9018  2.1148  0.7284
 3335TIP3    H231565   3.518   2.520   6.779  0.9165  0.4213 -0.4347
 3336TIP3   OH231566   5.377   2.054   2.056 -0.2622 -0.4061  0.0506
 3336TIP3    H131567   5.378   2.083   1.965 -1.3857 -2.7093 -0.7847
 3336TIP3    H231568   5.318   2.115   2.100 -0.3627  0.2394 -0.9514
 3337TIP3   OH231569   3.557   2.270   7.898 -0.5318  0.6799 -0.1236
 3337TIP3    H131570   3.506   2.283   7.978 -0.8699 -0.9376 -0.0440
 3337TIP3    H231571   3.609   2.191   7.915  0.9818  1.5085 -0.7214
 3338TIP3   OH231572   5.228   5.292   0.270  0.4199 -0.1324  0.0305
 3338TIP3    H131573   5.298   5.284   0.335 -0.8882 -2.2239  1.3002
 3338TIP3    H231574   5.155   5.331   0.318 -0.4814 -1.4548 -0.2186
 3339TIP3   OH231575   1.409   1.076   2.319 -0.2600  0.6310 -0.2063
 3339TIP3    H131576   1.438   1.059   2.229  1.1566 -2.7254  0.7317
 3339TIP3    H231577   1.336   1.016   2.332 -0.0490  0.6396  1.0834
 3340TIP3   OH231578   0.915   1.015   8.274 -0.3912  0.2815 -0.1727
 3340TIP3    H131579   0.824   1.043   8.286  0.1664  2.7041 -1.0592
 3340TIP3    H231580   0.937   1.043   8.185  1.4774  0.4935  0.3247
 3341TIP3   OH231581   2.977   1.781   9.080 -0.6026  0.0456 -0.0758
 3341TIP3    H131582   3.003   1.691   9.099 -0.8816 -0.5655 -2.2462
 3341TIP3    H231583   3.040   1.835   9.126 -0.2205 -1.2612  0.9950
 3342TIP3   OH231584   0.200   4.804   2.853 -0.1967  0.3380 -0.7336
 3342TIP3    H131585   0.256   4.734   2.819 -1.3756 -0.6356 -0.7408
 3342TIP3    H231586   0.219   4.879   2.796  0.0496 -0.3840 -1.6328
 3343TIP3   OH231587   5.792   5.046   0.897 -0.2519 -0.8361 -0.0471
 3343TIP3    H131588   5.788   4.963   0.945 -1.1225 -1.3103 -0.9098
 3343TIP3    H231589   5.847   5.027   0.821 -1.6182 -1.0561 -1.0204
 3344TIP3   OH231590   3.279   3.822   9.100 -0.0616  0.1402 -0.2530
 3344TIP3    H131591   3.260   3.802   9.191  1.1825 -0.0362 -0.0165
 3344TIP3    H231592   3.259   3.915   9.090  1.7949  0.7103  0.7933
 3345TIP3   OH231593   5.053   1.307   7.277  0.4984  0.3966  0.0662
 3345TIP3    H131594   5.006   1.272   7.201  0.6830 -1.6717  0.8231
 3345TIP3    H231595   4.987   1.313   7.346  0.7692  0.1681  0.3468
 3346TIP3   OH231596   1.603   4.175   2.927 -0.2352 -0.0317 -0.0670
 3346TIP3    H131597   1.609   4.100   2.986  1.3685 -0.0579 -0.2249
 3346TIP3    H231598   1.546   4.237   2.973  0.0237 -0.5379  0.9703
 3347TIP3   OH231599   2.644   2.852   8.954 -0.2381 -0.2047  0.3146
 3347TIP3    H131600   2.651   2.878   8.862  1.3439 -0.5092  0.3232
 3347TIP3    H231601   2.632   2.757   8.951 -0.2376 -0.2080  0.4143
 3348TIP3   OH231602   1.464   0.446   1.855 -0.2940 -0.3193 -0.3492
 3348TIP3    H131603   1.483   0.517   1.793 -0.2788 -1.1179 -1.2836
 3348TIP3    H231604   1.516   0.372   1.824 -1.2431 -1.1072 -0.1149
 3349TIP3   OH231605   2.025   6.351   0.535  0.2348  0.0993 -0.6050
 3349TIP3    H131606   2.092   6.396   0.484  0.5388 -0.6296 -0.8600
 3349TIP3    H231607   1.949   6.348   0.477 -0.4821  2.0947  0.1563
 3350TIP3   OH231608   3.713   0.828   8.699  0.2567 -0.1318 -0.3295
 3350TIP3    H131609   3.783   0.775   8.736  0.7431  1.0629  0.5139
 3350TIP3    H231610   3.645   0.829   8.767 -1.3945 -2.6455 -1.7563
 3351TIP3   OH231611   0.678   5.166   9.031  0.5520 -0.1138  0.2564
 3351TIP3    H131612   0.743   5.110   8.988  0.6508 -0.2485  0.5815
 3351TIP3    H231613   0.594   5.133   9.001  0.5731  2.2576 -3.1151
 3352TIP3   OH231614   1.069   4.430   3.132  0.0623 -0.3972 -0.1450
 3352TIP3    H131615   1.154   4.414   3.090 -1.0417 -2.2600 -1.8926
 3352TIP3    H231616   1.022   4.485   3.069  0.1341  1.1456  1.0959
 3353TIP3   OH231617   4.314   5.230   2.907  0.0084  0.1971 -0.0154
 3353TIP3    H131618   4.305   5.297   2.975  0.4475  0.7145 -0.4574
 3353TIP3    H231619   4.224   5.203   2.888 -0.3422  1.9744 -1.1152
 3354TIP3   OH231620   5.228   6.597   7.379 -0.3793 -0.2327  1.0581
 3354TIP3    H131621   5.301   6.616   7.320  1.3723  1.4590  3.5616
 3354TIP3    H231622   5.270   6.568   7.460 -2.5250  0.1532  2.3881
 3355TIP3   OH231623   0.158   1.272   8.681  0.0035 -0.0662  0.2277
 3355TIP3    H131624   0.067   1.277   8.708 -0.1460  0.3127 -0.3325
 3355TIP3    H231625   0.171   1.181   8.655 -0.4162  0.0378 -0.3705
 3356TIP3   OH231626   4.030   3.392   0.736  0.4658  0.2405 -0.6970
 3356TIP3    H131627   4.083   3.409   0.814 -0.6479 -0.7267  0.3202
 3356TIP3    H231628   3.972   3.468   0.729 -0.0692 -0.0826  0.0026
 3357TIP3   OH231629   1.904   3.261   7.930 -0.4058 -0.1308  0.4562
 3357TIP3    H131630   1.819   3.283   7.891 -0.2068 -0.1409  0.0113
 3357TIP3    H231631   1.967   3.270   7.858  0.1664  1.1785  1.0919
 3358TIP3   OH231632   1.154   0.793   8.865 -0.0803  0.2340  0.0866
 3358TIP3    H131633   1.155   0.816   8.958  0.2407 -0.8722  0.3717
 3358TIP3    H231634   1.132   0.700   8.864 -2.0702  0.6580 -1.0526
 3359TIP3   OH231635   4.779   2.016   0.727  0.1074  0.3746 -0.1352
 3359TIP3    H131636   4.872   2.022   0.746  0.3114  0.5644 -1.1319
 3359TIP3    H231637   4.760   2.092   0.673 -0.0122 -1.0694 -2.2650
 3360TIP3   OH231638   6.486   4.014   3.189  0.4997  0.6216 -0.2736
 3360TIP3    H131639   6.434   4.094   3.205 -1.9251 -0.6677 -1.1623
 3360TIP3    H231640   6.471   3.960   3.267 -1.6314 -0.7701 -1.5537
 3361TIP3   OH231641   3.553   1.151   8.902  0.0632 -0.5899 -0.4141
 3361TIP3    H131642   3.557   1.147   8.806 -0.9572  0.9493 -0.5582
 3361TIP3    H231643   3.472   1.104   8.924 -0.9053  0.9526 -0.5204
 3362TIP3   OH231644   5.688   1.178   2.755 -0.4131  0.0225  0.5002
 3362TIP3    H131645   5.661   1.248   2.695  1.6594 -0.5705 -1.2943
 3362TIP3    H231646   5.746   1.123   2.702  1.2429 -0.7781  2.9795
 3363TIP3   OH231647   6.538   4.054   0.586  0.1393 -0.1825  0.2917
 3363TIP3    H131648   6.596   4.128   0.606 -0.4814  0.2003  0.6931
 3363TIP3    H231649   6.572   3.982   0.638  2.0770 -0.8243 -1.7001
 3364TIP3   OH231650   0.860   2.271   0.669 -0.1645  0.0325 -0.0631
 3364TIP3    H131651   0.919   2.345   0.685 -1.2497  0.7222  0.9070
 3364TIP3    H231652   0.789   2.308   0.616  0.6853 -1.0042 -2.0226
 3365TIP3   OH231653   5.033   2.970   8.870  0.2549 -0.1892 -0.2184
 3365TIP3    H131654   4.967   2.907   8.899  0.0531  1.0201  2.1815
 3365TIP3    H231655   4.992   3.016   8.797 -1.4336  0.2409  0.9525
 3366TIP3   OH231656   0.341   2.343   2.860  0.2184 -0.9574  0.5283
 3366TIP3    H131657   0.353   2.249   2.843 -1.9280 -1.1291 -0.3541
 3366TIP3    H231658   0.258   2.349   2.906  0.5973  0.4865  1.0688
 3367TIP3   OH231659   0.983   0.862   0.745  0.0457  0.4104  0.0759
 3367TIP3    H131660   0.979   0.772   0.713 -1.2753  0.2728  0.5783
 3367TIP3    H231661   0.897   0.878   0.785 -0.1425  2.2561 -0.9556
 3368TIP3   OH231662   2.603   0.822   2.158  0.3013 -0.0684 -0.6724
 3368TIP3    H131663   2.571   0.890   2.217 -2.4337 -1.4560 -0.4069
 3368TIP3    H231664   2.617   0.745   2.215  0.0354 -0.7048 -1.4501
 3369TIP3   OH231665   6.134   5.491   8.778 -0.5780 -0.6280 -0.1937
 3369TIP3    H131666   6.080   5.421   8.742 -0.6067  0.1093 -1.6759
 3369TIP3    H231667   6.224   5.463   8.762 -0.5422 -0.9812  0.5582
 3370TIP3   OH231668   1.853   1.159   3.112  0.4153 -0.2132  0.5814
 3370TIP3    H131669   1.790   1.164   3.041  0.3862  1.4015  0.6884
 3370TIP3    H231670   1.877   1.250   3.130  1.1287 -0.6474  2.0098
 3371TIP3   OH231671   1.905   3.932   2.983  0.3859  0.2239  0.1313
 3371TIP3    H131672   1.916   3.858   2.923  0.5744 -0.6177  1.1830
 3371TIP3    H231673   1.939   4.007   2.934 -0.2520 -0.2851 -1.1291
 3372TIP3   OH231674   1.783   2.349   8.684 -0.2207 -0.4320  0.2773
 3372TIP3    H131675   1.788   2.434   8.728  1.0462 -0.9943  1.2744
 3372TIP3    H231676   1.870   2.311   8.694 -0.3211 -1.2275 -1.4644
 3373TIP3   OH231677   0.074   4.506   7.084 -0.2093 -0.1629  0.2863
 3373TIP3    H131678   0.078   4.437   7.150  0.5445  0.4211  0.8620
 3373TIP3    H231679   0.160   4.504   7.042  0.3436  1.3337  1.2635
 3374TIP3   OH231680   4.978   1.454   1.393 -0.1433 -0.2388  0.2587
 3374TIP3    H131681   4.981   1.460   1.298  0.8651 -1.0884  0.2182
 3374TIP3    H231682   4.997   1.543   1.424  0.1359 -0.0899 -0.3353
 3375TIP3   OH231683   2.438   3.719   1.595 -0.0459 -0.1668 -0.5454
 3375TIP3    H131684   2.503   3.760   1.653 -2.2923  0.7281  1.5408
 3375TIP3    H231685   2.416   3.788   1.532 -0.3352  0.2108 -0.0423
 3376TIP3   OH231686   2.038   3.269   0.764 -0.0912 -0.2564  0.9170
 3376TIP3    H131687   2.123   3.301   0.796  0.7059 -1.1369 -0.2187
 3376TIP3    H231688   2.060   3.190   0.714 -1.0764  1.5310 -2.6882
 3377TIP3   OH231689   3.920   3.342   8.011  0.1914  0.5624  0.1416
 3377TIP3    H131690   3.930   3.435   7.994  0.6967  0.5761  0.5150
 3377TIP3    H231691   3.981   3.323   8.082 -1.1158  0.2814  1.2391
 3378TIP3   OH231692   1.994   5.170   2.983 -0.2585  0.2325  0.1132
 3378TIP3    H131693   2.049   5.245   2.960  0.1003  0.0082  0.2307
 3378TIP3    H231694   1.942   5.200   3.058 -1.1388  0.8277 -0.7076
 3379TIP3   OH231695   3.539   5.218   2.728  0.4776  0.2894 -0.5343
 3379TIP3    H131696   3.606   5.163   2.768  0.6202  0.4053 -0.6180
 3379TIP3    H231697   3.457   5.169   2.742  0.4958  0.4333  0.0969
 3380TIP3   OH231698   0.256   1.894   1.568 -0.0057 -0.6677  0.2349
 3380TIP3    H131699   0.327   1.856   1.517  0.5153 -0.5081  0.8320
 3380TIP3    H231700   0.256   1.987   1.546 -0.3360 -0.7498 -0.1195
 3381TIP3   OH231701   4.070   5.274   0.614  0.3175 -0.0786  0.2399
 3381TIP3    H131702   4.091   5.185   0.641  1.8467  0.4918  1.0279
 3381TIP3    H231703   4.041   5.266   0.523  0.3249 -1.3765  0.3391
 3382TIP3   OH231704   5.758   3.819   0.512  0.4939 -0.3773 -0.5280
 3382TIP3    H131705   5.833   3.877   0.528  1.5450 -1.5632 -1.0080
 3382TIP3    H231706   5.763   3.753   0.581  0.0972 -0.6762 -0.7810
 3383TIP3   OH231707   2.012   4.901   0.839  0.0249 -0.2600  0.0782
 3383TIP3    H131708   1.994   4.816   0.879  2.2816 -1.3797 -1.0875
 3383TIP3    H231709   2.018   4.883   0.745 -0.8364  1.4824 -0.3634
 3384TIP3   OH231710   2.611   0.581   8.399  0.3114  0.2407 -0.3517
 3384TIP3    H131711   2.559   0.632   8.337 -0.2334 -0.0191 -0.1124
 3384TIP3    H231712   2.554   0.508   8.424  0.0686  1.0075  1.4025
 3385TIP3   OH231713   1.520   6.080   2.883  0.2346  0.1108 -0.6103
 3385TIP3    H131714   1.520   6.129   2.802 -0.2765  0.5372 -0.3536
 3385TIP3    H231715   1.548   6.143   2.950  1.8781 -0.5377 -0.6249
 3386TIP3   OH231716   6.469   0.489   2.667  0.3453  0.1098 -0.3146
 3386TIP3    H131717   6.462   0.584   2.665 -2.9440 -0.0512 -1.3722
 3386TIP3    H231718   6.421   0.459   2.589 -0.2439 -2.4386  0.9170
 3387TIP3   OH231719   4.879   4.242   1.409  0.1808 -0.4709 -0.2650
 3387TIP3    H131720   4.911   4.203   1.328  2.7387  0.1145  0.3882
 3387TIP3    H231721   4.795   4.199   1.424  0.6413 -2.1682 -2.0624
 3388TIP3   OH231722   6.257   1.268   7.550  0.0937 -0.1021  0.4659
 3388TIP3    H131723   6.259   1.356   7.587  0.3772 -0.0793  0.3969
 3388TIP3    H231724   6.167   1.239   7.563 -1.3299  1.8563 -3.3892
 3389TIP3   OH231725   2.959   3.960   8.724  0.0499  0.2554  0.4144
 3389TIP3    H131726   3.036   3.931   8.674 -0.5104  0.3902 -0.5607
 3389TIP3    H231727   2.915   4.021   8.665 -1.3477 -0.5968  0.5425
 3390TIP3   OH231728   6.566   0.024   2.526 -0.4816 -0.6957 -0.2266
 3390TIP3    H131729   6.557  -0.043   2.594 -2.1063 -0.5444 -0.2628
 3390TIP3    H231730   6.479   0.032   2.488 -0.5964  2.0967  0.3935
 3391TIP3   OH231731   1.247   0.978   0.221 -0.1353 -0.2545 -0.7292
 3391TIP3    H131732   1.295   0.956   0.300 -2.9397 -1.3057  0.8232
 3391TIP3    H231733   1.262   1.072   0.208  1.5662 -0.3713  0.1226
 3392TIP3   OH231734   3.712   5.208   1.440  0.2347  0.1558  0.0584
 3392TIP3    H131735   3.766   5.207   1.519  1.4231 -0.0352 -0.7188
 3392TIP3    H231736   3.652   5.134   1.451  1.7868 -1.1817 -0.1215
 3393TIP3   OH231737   6.686   0.345   2.656 -0.2060  0.1025  0.5519
 3393TIP3    H131738   6.702   0.384   2.742 -0.8184  1.0375  0.2595
 3393TIP3    H231739   6.597   0.374   2.633  0.8953  2.1402 -1.5698
 3394TIP3   OH231740   4.055   6.145   1.301  0.0048 -0.5185 -0.0872
 3394TIP3    H131741   4.120   6.174   1.366 -0.5156  0.9678 -0.1898
 3394TIP3    H231742   4.102   6.084   1.245  1.1874  0.1888  0.1159
 3395TIP3   OH231743   0.059   5.674   1.006 -0.0496  0.1951  0.6883
 3395TIP3    H131744   0.079   5.669   1.099  0.6801 -2.6737  0.4608
 3395TIP3    H231745   0.012   5.757   0.996  0.2473  0.7911  3.5019
 3396TIP3   OH231746   4.516   4.742   8.396  0.3824  0.4768  0.2892
 3396TIP3    H131747   4.442   4.696   8.436 -0.5580  0.5435 -1.2898
 3396TIP3    H231748   4.489   4.834   8.395  0.1345  0.4123 -0.9528
 3397TIP3   OH231749   0.449   5.361   2.163 -0.1872 -0.0289  0.8360
 3397TIP3    H131750   0.489   5.317   2.238  0.2166  0.9234  1.1980
 3397TIP3    H231751   0.406   5.291   2.114 -0.6407 -0.6415  2.0724
 3398TIP3   OH231752   2.971   4.092   8.081 -0.0067  0.5502  0.0436
 3398TIP3    H131753   2.908   4.154   8.043 -1.3892 -1.8185 -1.8543
 3398TIP3    H231754   2.925   4.053   8.155  1.0780  2.1132  1.6021
 3399TIP3   OH231755   0.187   0.549   7.925 -0.6185  0.1566 -0.1233
 3399TIP3    H131756   0.099   0.525   7.954 -0.2075 -1.2278  0.0613
 3399TIP3    H231757   0.227   0.466   7.900  0.8936  0.6546  0.5287
 3400TIP3   OH231758   0.808   0.036   8.973  0.8153 -0.1352  0.2200
 3400TIP3    H131759   0.771  -0.038   9.022 -2.0844  0.2248 -1.2438
 3400TIP3    H231760   0.774   0.114   9.017 -0.3907  0.2061 -1.2336
 3401TIP3   OH231761   2.606   1.778   8.003 -0.0051  0.1726 -0.3984
 3401TIP3    H131762   2.688   1.824   7.984 -0.3696  0.1730 -2.1002
 3401TIP3    H231763   2.539   1.847   8.005 -0.1358  0.0401 -0.1563
 3402TIP3   OH231764   4.350   3.429   1.474 -0.0599  0.0505 -1.0652
 3402TIP3    H131765   4.296   3.501   1.508  0.5954  0.5753 -1.1001
 3402TIP3    H231766   4.384   3.386   1.552  0.7264  0.6998 -1.0379
 3403TIP3   OH231767   2.975   5.474   0.598  0.0261 -0.8570  0.5934
 3403TIP3    H131768   3.059   5.500   0.560  0.0834 -1.5971  0.1949
 3403TIP3    H231769   2.918   5.550   0.583  0.7632 -0.1336  1.3729
 3404TIP3   OH231770   2.328   0.921   2.561  0.6942 -0.1321  0.1748
 3404TIP3    H131771   2.354   0.974   2.486  1.7740  0.3742  0.8894
 3404TIP3    H231772   2.322   0.983   2.634  2.6093 -1.0410  1.1728
 3405TIP3   OH231773   3.418   2.579   2.848 -0.2131  0.7412  0.2220
 3405TIP3    H131774   3.474   2.527   2.790 -0.3376 -0.2700  0.9837
 3405TIP3    H231775   3.329   2.564   2.816 -0.4172 -0.8770  1.4260
 3406TIP3   OH231776   0.525   6.220   1.133  0.2223  0.1114  0.1276
 3406TIP3    H131777   0.556   6.310   1.136  0.5196  0.0288 -0.3495
 3406TIP3    H231778   0.599   6.167   1.161 -0.0712  0.0363  0.7799
 3407TIP3   OH231779   3.053   4.667   8.151 -0.5635 -0.3660 -0.4405
 3407TIP3    H131780   3.074   4.609   8.077  1.6500  0.6821 -0.7249
 3407TIP3    H231781   3.098   4.749   8.130 -1.2294  0.4969  1.3310
 3408TIP3   OH231782   4.291   2.162   0.133  0.0330 -0.3107 -0.0592
 3408TIP3    H131783   4.214   2.181   0.186  0.6451  0.0010  0.7332
 3408TIP3    H231784   4.362   2.151   0.196  0.5450 -1.0992 -0.7458
 3409TIP3   OH231785   6.515   4.991   2.895 -0.2358 -0.9896 -0.3138
 3409TIP3    H131786   6.563   4.908   2.893  0.8345 -0.3985 -0.1222
 3409TIP3    H231787   6.429   4.970   2.858  0.0421 -2.1624 -0.3396
 3410TIP3   OH231788   0.327   2.082   8.302 -0.0746 -0.1772 -0.1487
 3410TIP3    H131789   0.242   2.054   8.335  0.6491 -1.6956  0.5514
 3410TIP3    H231790   0.383   2.085   8.380  0.4014  1.2933 -0.5222
 3411TIP3   OH231791   4.274   0.449   1.998  0.1205  0.5009 -0.1716
 3411TIP3    H131792   4.210   0.519   1.989  1.2837  1.3912 -2.1339
 3411TIP3    H231793   4.245   0.381   1.937  1.2461  1.1271 -1.4622
 3412TIP3   OH231794   6.588   3.683   9.017 -0.6755  0.0468 -0.2994
 3412TIP3    H131795   6.675   3.666   8.982  0.6394  2.4718  1.4627
 3412TIP3    H231796   6.562   3.600   9.056  0.9464 -0.6863 -0.6825
 3413TIP3   OH231797   2.573   1.513   8.561 -0.0920 -0.1206  0.1501
 3413TIP3    H131798   2.639   1.451   8.529 -1.4634 -1.7003  0.2234
 3413TIP3    H231799   2.538   1.473   8.640 -0.6223  1.0533  0.5406
 3414TIP3   OH231800   6.487   4.363   0.875 -0.2354 -0.9719 -0.4289
 3414TIP3    H131801   6.427   4.421   0.829 -1.2200 -1.2909  0.4125
 3414TIP3    H231802   6.442   4.278   0.877  0.4509 -1.3421 -0.1930
 3415TIP3   OH231803   1.902   3.716   0.528 -0.1186  0.1602 -0.0857
 3415TIP3    H131804   1.907   3.773   0.451  1.3082  0.6584  0.3400
 3415TIP3    H231805   1.957   3.641   0.506 -0.4498 -0.1379  0.0957
 3416TIP3   OH231806   3.403   0.308   8.951  0.4188  0.3139 -0.1240
 3416TIP3    H131807   3.433   0.277   9.036  1.1057  1.3821  0.0408
 3416TIP3    H231808   3.308   0.314   8.961  0.4297 -0.1945  0.3483
 3417TIP3   OH231809   0.149   6.194   9.047 -0.1603  0.0451 -0.1174
 3417TIP3    H131810   0.099   6.134   8.991  0.6077  0.1231 -0.9032
 3417TIP3    H231811   0.240   6.171   9.031  0.1334  1.2117 -0.1938
 3418TIP3   OH231812   6.097   3.683   8.912  0.4656 -0.0348 -0.0160
 3418TIP3    H131813   6.174   3.677   8.855  0.1073  1.0246 -0.6391
 3418TIP3    H231814   6.027   3.643   8.861  0.5093 -0.6473  0.3951
 3419TIP3   OH231815   5.221   3.981   8.815  0.5486 -0.3362  0.1105
 3419TIP3    H131816   5.207   3.930   8.736  2.0205 -2.5732  1.1913
 3419TIP3    H231817   5.302   4.030   8.799 -1.0604  2.1688 -1.0752
 3420TIP3   OH231818   1.132   4.522   0.145 -0.0299 -0.1965  0.0937
 3420TIP3    H131819   1.051   4.526   0.094  1.4924  0.4093 -2.4358
 3420TIP3    H231820   1.170   4.610   0.137  0.8516 -0.4380  1.3173
 3421TIP3   OH231821   0.869   3.820   7.858  0.3391 -0.4536 -0.1410
 3421TIP3    H131822   0.866   3.745   7.799 -0.6228 -1.2083  0.8176
 3421TIP3    H231823   0.963   3.835   7.874  0.5408 -2.8357  1.3118
 3422TIP3   OH231824   6.186   6.380   0.251  0.0049  0.0486 -0.3263
 3422TIP3    H131825   6.101   6.340   0.268 -0.4704  1.0318 -0.2996
 3422TIP3    H231826   6.204   6.432   0.329  0.9745 -0.7187 -0.0269
 3423TIP3   OH231827   1.198   0.792   1.248  0.3750  0.0641  0.1261
 3423TIP3    H131828   1.250   0.758   1.175  1.1815 -1.3095  1.2836
 3423TIP3    H231829   1.262   0.818   1.313 -0.3338 -1.4252  1.4872
 3424TIP3   OH231830   1.400   3.084   0.022 -0.0867 -0.4294  0.3419
 3424TIP3    H131831   1.384   3.155   0.084 -1.5789 -0.2882 -0.1747
 3424TIP3    H231832   1.478   3.112  -0.026 -0.3476  0.6067  0.4987
 3425TIP3   OH231833   5.367   2.675   8.297  0.2847  0.1378  0.0829
 3425TIP3    H131834   5.463   2.677   8.302  0.3079 -2.0569  1.7374
 3425TIP3    H231835   5.339   2.634   8.379 -2.0026 -0.5013 -0.9370
 3426TIP3   OH231836   1.725   0.369   8.549  0.1978 -0.4002  0.0266
 3426TIP3    H131837   1.806   0.371   8.498 -0.3858  0.9485 -0.9175
 3426TIP3    H231838   1.751   0.400   8.636  0.4832  1.4521 -0.6695
 3427TIP3   OH231839   5.025   6.538   1.107  0.4462  0.1135  0.2005
 3427TIP3    H131840   5.089   6.491   1.161  0.7578  1.6525  1.2319
 3427TIP3    H231841   5.078   6.587   1.044  0.2311  0.5472  0.3524
 3428TIP3   OH231842   5.459   1.816   0.884  0.0450  0.4261  0.0450
 3428TIP3    H131843   5.495   1.837   0.970 -0.8406  0.0026  0.5360
 3428TIP3    H231844   5.477   1.723   0.873  1.3344  0.7500 -0.8288
 3429TIP3   OH231845   3.523   2.504   2.009  0.5372 -0.0273 -0.3815
 3429TIP3    H131846   3.466   2.560   2.062  1.4831  0.5382  0.0575
 3429TIP3    H231847   3.517   2.418   2.051 -0.0105  0.0148 -0.3618
 3430TIP3   OH231848   3.782   3.514   8.646 -0.5402 -0.2977 -0.3731
 3430TIP3    H131849   3.724   3.551   8.580 -1.0032 -2.5205 -1.3133
 3430TIP3    H231850   3.725   3.465   8.705  0.1372 -0.5043  0.1323
 3431TIP3   OH231851   5.377   0.302   1.255  0.2171  0.4475 -0.0251
 3431TIP3    H131852   5.408   0.316   1.345  0.8662  0.5628 -0.2679
 3431TIP3    H231853   5.410   0.377   1.206 -0.7842  0.7852 -0.2089
 3432TIP3   OH231854   1.442   2.124   8.415 -0.0918  0.7116 -0.0183
 3432TIP3    H131855   1.449   2.206   8.365 -0.7130  1.3135  0.8455
 3432TIP3    H231856   1.376   2.143   8.483  0.2553 -0.2848  0.6192
 3433TIP3   OH231857   2.435   0.463   8.033  0.2417  0.7642  0.4800
 3433TIP3    H131858   2.464   0.553   8.044 -0.2416  0.9413  0.3205
 3433TIP3    H231859   2.459   0.440   7.943  0.0365  0.8567  0.4013
 3434TIP3   OH231860   4.576   3.187   8.374  0.0793  0.0250  0.2771
 3434TIP3    H131861   4.658   3.151   8.339 -0.7381 -0.1157 -1.5955
 3434TIP3    H231862   4.598   3.278   8.397  0.9411 -0.2292  0.4938
 3435TIP3   OH231863   4.782   2.900   0.949  0.0863 -0.0673 -0.2689
 3435TIP3    H131864   4.840   2.963   0.907 -0.5227  0.8264  0.1801
 3435TIP3    H231865   4.731   2.862   0.877 -0.6115  1.0965 -0.4186
 3436TIP3   OH231866   0.258   2.509   8.232  1.0172  0.6142  0.0485
 3436TIP3    H131867   0.317   2.567   8.279 -0.2158  0.4696  1.8732
 3436TIP3    H231868   0.186   2.492   8.293 -1.1387  1.0900 -2.1948
 3437TIP3   OH231869   0.845   1.704   1.836 -0.2102  0.5684  0.1544
 3437TIP3    H131870   0.792   1.674   1.762 -4.7935  1.6992  2.6220
 3437TIP3    H231871   0.856   1.626   1.891  0.3785  0.4410 -0.1303
 3438TIP3   OH231872   1.010   2.965   1.496  0.9031 -0.6960 -0.2082
 3438TIP3    H131873   1.007   2.926   1.409 -0.8099  0.6392 -0.8087
 3438TIP3    H231874   1.042   3.054   1.482  1.2457 -0.6727  0.6302
 3439TIP3   OH231875   2.695   0.281   9.082  0.7493 -0.0623  0.2846
 3439TIP3    H131876   2.675   0.263   9.173 -0.0684  1.7889  0.5302
 3439TIP3    H231877   2.609   0.298   9.042  1.1676 -0.0450 -0.6353
 3440TIP3   OH231878   5.290   2.847   1.206 -0.3108  0.4467 -0.1814
 3440TIP3    H131879   5.206   2.861   1.161 -0.1561  1.4873 -0.1775
 3440TIP3    H231880   5.265   2.828   1.296 -0.5552  0.4335 -0.2493
 3441TIP3   OH231881   0.056   3.765   8.186  0.2878  0.0408 -0.0519
 3441TIP3    H131882   0.091   3.680   8.214  1.0094  0.0455 -0.8840
 3441TIP3    H231883   0.109   3.829   8.233 -2.0494  0.1076  2.7676
 3442TIP3   OH231884   5.804   1.808   7.532  0.3760  0.1022 -0.1785
 3442TIP3    H131885   5.856   1.731   7.554 -0.4097 -0.4596 -0.2196
 3442TIP3    H231886   5.860   1.882   7.553  1.2029 -0.4833 -0.2678
 3443TIP3   OH231887   0.871   5.147   7.758 -0.2066  0.3052  0.1059
 3443TIP3    H131888   0.865   5.052   7.766  0.0340  0.4322  2.9993
 3443TIP3    H231889   0.965   5.165   7.756 -0.2216  0.5150  0.8860
 3444TIP3   OH231890   1.564   3.899   0.927  0.6154 -0.2954  0.0175
 3444TIP3    H131891   1.628   3.890   0.857  0.9941 -1.1861  0.4561
 3444TIP3    H231892   1.548   3.810   0.957 -1.1105 -0.1325 -0.3087
 3445TIP3   OH231893   2.207   6.072   1.681  0.2592 -0.1806 -0.1492
 3445TIP3    H131894   2.262   6.148   1.665 -0.3883 -0.0224 -1.7917
 3445TIP3    H231895   2.118   6.102   1.661 -0.3959 -0.6064  1.8435
 3446TIP3   OH231896   0.058   6.525   0.228  0.4560  0.4262  0.4685
 3446TIP3    H131897   0.031   6.442   0.187  1.6714 -0.5913  1.6549
 3446TIP3    H231898  -0.024   6.570   0.247 -0.3589  2.1576 -5.1398
 3447TIP3   OH231899   0.785   1.547   0.669  0.2656  0.9041  0.3060
 3447TIP3    H131900   0.853   1.512   0.612 -0.3238 -0.4580  0.4044
 3447TIP3    H231901   0.813   1.523   0.758 -1.1639 -1.3203  0.2550
 3448TIP3   OH231902   3.949   3.722   8.355  0.0722 -0.1630  0.0828
 3448TIP3    H131903   4.010   3.690   8.421  2.7741  1.5017 -1.4314
 3448TIP3    H231904   3.960   3.817   8.354 -3.3689  0.3783  0.3872
 3449TIP3   OH231905   3.004   2.115   7.851 -0.1755 -0.0796  0.2863
 3449TIP3    H131906   2.938   2.147   7.790  1.5414  0.1370 -1.5667
 3449TIP3    H231907   3.086   2.116   7.801  1.2648 -0.2923  2.4900
 3450TIP3   OH231908   6.012   4.899   8.812 -0.2047 -0.4692 -0.0096
 3450TIP3    H131909   5.929   4.935   8.781 -0.9359  0.2419  2.5032
 3450TIP3    H231910   6.078   4.965   8.789 -0.5975 -0.2743 -0.5794
 3451TIP3   OH231911   1.808   1.245   0.321 -0.6492  1.0539 -0.0653
 3451TIP3    H131912   1.779   1.157   0.345  0.0270  1.3985  2.3032
 3451TIP3    H231913   1.734   1.283   0.273 -1.2322 -0.5304 -0.4668
 3452TIP3   OH231914   1.579   2.569   8.300  0.7091  0.2090  0.8692
 3452TIP3    H131915   1.653   2.517   8.332 -0.9429 -3.0344 -0.1103
 3452TIP3    H231916   1.602   2.590   8.209  0.6772 -0.2728  0.7489
 3453TIP3   OH231917   4.141   3.857   8.768  0.4057 -0.1313 -0.2952
 3453TIP3    H131918   4.219   3.811   8.799  1.1348  1.4426  0.3825
 3453TIP3    H231919   4.072   3.791   8.767  1.0000 -0.8993  2.1530
 3454TIP3   OH231920   0.040   1.396   0.312  0.1937 -0.4410 -0.5750
 3454TIP3    H131921  -0.028   1.459   0.286  0.5625  0.1373 -0.1715
 3454TIP3    H231922   0.050   1.339   0.236 -1.2640 -1.0024 -0.3698
 3455TIP3   OH231923   4.437   5.857   1.475  0.4449  0.1176 -0.4998
 3455TIP3    H131924   4.379   5.855   1.399 -0.9493  0.7933  0.4952
 3455TIP3    H231925   4.475   5.770   1.479 -0.9666 -0.5414 -0.8576
 3456TIP3   OH231926   5.392   0.012   6.888 -0.1788  0.4098  0.7460
 3456TIP3    H131927   5.371  -0.077   6.861  1.7864  0.4306 -1.0925
 3456TIP3    H231928   5.429   0.053   6.810  1.1680  2.0849  2.1790
 3457TIP3   OH231929   0.374   4.558   7.760  0.3057 -0.0706  0.2736
 3457TIP3    H131930   0.378   4.466   7.736 -0.4125 -0.1924  0.6029
 3457TIP3    H231931   0.346   4.603   7.680  0.0931 -0.2090  0.2704
 3458TIP3   OH231932   4.466   5.955   8.765 -0.3717  0.5765  0.9558
 3458TIP3    H131933   4.448   5.869   8.729  0.8311  0.0783  1.5072
 3458TIP3    H231934   4.380   5.989   8.789 -0.9260 -0.1568  0.0518
 3459TIP3   OH231935   6.674   0.048   8.052 -0.2756 -0.1253  0.2416
 3459TIP3    H131936   6.610   0.067   7.982  0.1391  1.3985  0.2529
 3459TIP3    H231937   6.759   0.065   8.011  0.1321 -1.7924  0.3407
 3460TIP3   OH231938   0.300   2.256   8.062  0.0340 -0.6080  0.0718
 3460TIP3    H131939   0.364   2.327   8.072 -0.5963 -0.1677  1.2207
 3460TIP3    H231940   0.281   2.228   8.152 -2.3128  0.1543 -0.1186
 3461TIP3   OH231941   2.774   1.976   0.386  0.3902  0.7165 -0.4387
 3461TIP3    H131942   2.766   2.070   0.402 -0.9529  0.5586  0.0248
 3461TIP3    H231943   2.752   1.965   0.294 -1.1736  0.7136 -0.0968
 3462TIP3   OH231944   0.247   1.036   7.653  0.2618 -0.2172 -0.2951
 3462TIP3    H131945   0.189   1.045   7.578 -0.0599 -0.9718 -0.1479
 3462TIP3    H231946   0.199   0.981   7.715 -0.2980  1.9604  1.3154
 3463TIP3   OH231947   3.658   5.610   0.628 -0.3839 -0.5946 -0.3963
 3463TIP3    H131948   3.712   5.687   0.613 -2.0329  0.9122  0.9691
 3463TIP3    H231949   3.677   5.552   0.554 -0.6549  2.0300 -2.6504
 3464TIP3   OH231950   2.641   0.830   1.527  0.0647  0.3707  1.0452
 3464TIP3    H131951   2.671   0.884   1.600  0.3826  1.2050  0.3223
 3464TIP3    H231952   2.555   0.800   1.553 -0.6945  2.2962  0.9575
 3465TIP3   OH231953   2.490   1.133   1.247  0.4647 -0.4825 -0.2834
 3465TIP3    H131954   2.503   1.156   1.339  1.4908 -0.2201 -0.4777
 3465TIP3    H231955   2.441   1.051   1.249  0.5291 -0.5067  0.5003
 3466TIP3   OH231956   2.266   6.003   0.175 -0.4529 -0.2530  0.2529
 3466TIP3    H131957   2.289   6.088   0.212 -1.3458 -0.3216  1.0027
 3466TIP3    H231958   2.178   6.016   0.140  0.4336 -0.1347 -2.0738
 3467TIP3   OH231959   1.144   4.975   1.490 -0.2066 -0.0229  0.5926
 3467TIP3    H131960   1.231   5.015   1.491  0.8339 -2.1561  1.0508
 3467TIP3    H231961   1.141   4.927   1.407 -0.9430 -0.0135  0.6066
 3468TIP3   OH231962   4.594   0.860   2.126  0.0799 -1.0989  0.1031
 3468TIP3    H131963   4.685   0.828   2.120 -0.0111 -1.3117 -0.1847
 3468TIP3    H231964   4.598   0.949   2.092  0.1379 -1.1943 -0.1418
 3469TIP3   OH231965   5.433   3.284   0.600  0.0488 -0.1171 -0.6152
 3469TIP3    H131966   5.355   3.231   0.582  1.2706 -1.5255 -2.1469
 3469TIP3    H231967   5.477   3.238   0.672 -0.5213  0.6836  0.2579
 3470TIP3   OH231968   4.352   3.267   6.608  0.1559 -0.4427 -0.0243
 3470TIP3    H131969   4.433   3.238   6.650 -0.0845 -1.3025 -0.1328
 3470TIP3    H231970   4.313   3.328   6.670  1.0292  0.1982 -0.0994
 3471TIP3   OH231971   3.440   4.794   7.165 -0.0952 -0.1698  0.1343
 3471TIP3    H131972   3.507   4.850   7.125  0.7148 -1.2194 -0.0487
 3471TIP3    H231973   3.358   4.839   7.149  0.3865  0.2828 -1.2360
 3472TIP3   OH231974   2.075   1.175   2.278 -0.3740  0.8331  0.6155
 3472TIP3    H131975   2.112   1.177   2.366 -0.0116 -1.7682  0.6180
 3472TIP3    H231976   1.994   1.226   2.284 -0.5233  0.4335  2.5445
 3473TIP3   OH231977   2.691   0.360   1.941  1.0836 -0.3827  0.1601
 3473TIP3    H131978   2.612   0.394   1.983  1.5448  1.3230 -0.2450
 3473TIP3    H231979   2.684   0.265   1.949  0.7089 -0.2077  3.2523
 3474TIP3   OH231980   6.364   5.063   2.511 -0.4490  0.9577 -0.6163
 3474TIP3    H131981   6.427   5.033   2.446  0.0382  1.8066 -0.5636
 3474TIP3    H231982   6.411   5.132   2.559 -0.9745  0.7040  0.2948
 3475TIP3   OH231983   1.386   0.748   2.042  0.3066 -0.1910  0.1516
 3475TIP3    H131984   1.397   0.746   2.137 -0.6648  0.5192  0.2963
 3475TIP3    H231985   1.429   0.668   2.011 -0.6712 -1.2166  1.3343
 3476TIP3   OH231986   5.530   2.887   1.849 -0.0450 -0.4092 -0.1881
 3476TIP3    H131987   5.613   2.865   1.891 -2.0336 -1.2180  3.7021
 3476TIP3    H231988   5.526   2.983   1.853  0.7410 -0.3357 -0.6944
 3477TIP3   OH231989   4.733   2.680   7.795 -0.0834  0.9414 -0.1247
 3477TIP3    H131990   4.794   2.692   7.722  1.3566  1.0996  1.0613
 3477TIP3    H231991   4.781   2.626   7.857 -2.3279 -1.6130 -0.4606
 3478TIP3   OH231992   2.431   3.090   1.841  0.5826 -0.0615  0.2474
 3478TIP3    H131993   2.362   3.039   1.799 -0.2817 -0.3580  1.9148
 3478TIP3    H231994   2.480   3.026   1.893  2.2545  0.1205 -1.0203
 3479TIP3   OH231995   2.168   3.653   1.852  0.0175 -0.0216 -0.4735
 3479TIP3    H131996   2.175   3.727   1.792  0.0252  0.4706  0.1309
 3479TIP3    H231997   2.207   3.580   1.804 -0.6000  0.2033 -1.3411
 3480TIP3   OH231998   2.098   2.533   8.951 -0.6231  0.3074 -0.3014
 3480TIP3    H131999   2.191   2.513   8.947 -0.6075  0.0542  0.7959
 3480TIP3    H232000   2.091   2.597   9.022 -1.2307  0.6646 -0.6784
 3481TIP3   OH232001   5.765   0.174   0.559 -0.1835 -0.4835  0.5713
 3481TIP3    H132002   5.799   0.243   0.615  0.6101 -0.2364 -0.1897
 3481TIP3    H232003   5.717   0.116   0.619  1.1552 -0.5702  1.6306
 3482TIP3   OH232004   6.097   4.581   7.196 -0.6464 -0.4882 -0.5848
 3482TIP3    H132005   6.003   4.572   7.181 -0.8983  1.8252 -0.7249
 3482TIP3    H232006   6.104   4.622   7.282  0.0338  2.2176 -1.8297
 3483TIP3   OH232007   3.069   0.893   0.513  0.1062 -0.2256  0.4131
 3483TIP3    H132008   3.002   0.868   0.449 -0.3532 -0.2835  0.9062
 3483TIP3    H232009   3.020   0.939   0.581  0.1499 -2.4332  2.0267
 3484TIP3   OH232010   5.628   0.838   1.805  0.0563  0.0201  0.0113
 3484TIP3    H132011   5.700   0.807   1.750 -0.3036 -0.5557 -0.1452
 3484TIP3    H232012   5.596   0.760   1.850 -1.1161  0.0662 -0.6898
 3485TIP3   OH232013   0.099   5.231   8.392  0.2178  0.2561  0.6265
 3485TIP3    H132014   0.157   5.173   8.441  1.1296  0.0932 -0.6045
 3485TIP3    H232015   0.115   5.211   8.300 -1.9752  0.0527  0.2196
 3486TIP3   OH232016   6.493   5.906   0.560  0.9496 -0.2741 -0.5925
 3486TIP3    H132017   6.533   5.847   0.624  2.6116 -1.7668 -2.8162
 3486TIP3    H232018   6.567   5.955   0.523 -0.1014  1.3696 -0.5933
 3487TIP3   OH232019   0.017   0.770   2.296 -0.4294  0.4010 -0.2839
 3487TIP3    H132020   0.020   0.684   2.339 -2.7049  0.5789  0.3834
 3487TIP3    H232021   0.092   0.769   2.236  0.6262 -1.3464  0.9514
 3488TIP3   OH232022   2.124   1.726   0.167 -0.1229  0.0315 -0.0652
 3488TIP3    H132023   2.114   1.819   0.144 -1.5932  0.0200  0.4693
 3488TIP3    H232024   2.189   1.694   0.105 -1.4255  0.8241 -1.9293
 3489TIP3   OH232025   1.049   1.323   1.644  0.7263 -0.2783 -0.6176
 3489TIP3    H132026   0.975   1.263   1.655 -1.0130  2.1809  3.3129
 3489TIP3    H232027   1.015   1.394   1.589  0.3253  0.4586  0.5360
 3490TIP3   OH232028   0.488   4.309   1.201 -0.1775 -0.4171  0.0111
 3490TIP3    H132029   0.428   4.336   1.271 -1.1817 -0.0587 -0.9632
 3490TIP3    H232030   0.433   4.263   1.138  0.2389  1.2915 -1.6797
 3491TIP3   OH232031   3.805   6.186   8.275 -0.0340 -0.0250 -0.2897
 3491TIP3    H132032   3.827   6.226   8.191 -0.8070 -0.3196 -0.6339
 3491TIP3    H232033   3.710   6.174   8.273  0.0032 -0.5244  0.4113
 3492TIP3   OH232034   1.596   5.547   1.142 -0.1852 -0.6069  0.2126
 3492TIP3    H132035   1.526   5.605   1.112  0.6613  0.5862  0.4342
 3492TIP3    H232036   1.654   5.538   1.067 -0.3136 -1.1888  0.1788
 3493TIP3   OH232037   4.035   3.973   8.538 -0.0842 -0.0395 -0.2549
 3493TIP3    H132038   4.059   3.937   8.623 -2.3228 -0.9798  0.0438
 3493TIP3    H232039   4.032   4.068   8.553 -1.3129 -0.2310  1.0167
 3494TIP3   OH232040   4.937   0.883   8.423  0.7458  0.4936  0.2344
 3494TIP3    H132041   5.025   0.851   8.403  0.8407  1.3324 -0.7682
 3494TIP3    H232042   4.952   0.959   8.479  0.6035 -0.0130  0.9718
 3495TIP3   OH232043   3.370   3.311   1.538  0.1217  0.0125 -0.2158
 3495TIP3    H132044   3.420   3.283   1.615  1.0135 -1.3390 -1.2222
 3495TIP3    H232045   3.287   3.342   1.572  0.2476 -1.1603  1.2542
 3496TIP3   OH232046   0.875   5.411   2.732 -0.2977  0.1507 -0.1649
 3496TIP3    H132047   0.902   5.492   2.776 -0.3400  1.0165 -1.6817
 3496TIP3    H232048   0.818   5.368   2.796 -0.6679  1.5458  0.4875
 3497TIP3   OH232049   5.448   4.531   9.003 -0.3948 -0.3429  0.2769
 3497TIP3    H132050   5.482   4.445   8.980 -0.3005 -0.4512  0.8008
 3497TIP3    H232051   5.379   4.548   8.939 -0.0460 -0.5728 -0.1575
 3498TIP3   OH232052   3.386   1.799   8.487 -0.2002  0.3245 -0.3493
 3498TIP3    H132053   3.311   1.748   8.457  0.2548 -0.2339 -0.5750
 3498TIP3    H232054   3.459   1.768   8.432  0.1522  0.9943 -0.2680
 3499TIP3   OH232055   1.010   0.762   7.580  0.2836 -0.2192 -0.0367
 3499TIP3    H132056   1.018   0.831   7.646 -0.3075  1.4955 -1.6540
 3499TIP3    H232057   0.932   0.713   7.606  1.0799 -0.7434  1.4966
 3500TIP3   OH232058   6.446   2.060   7.308 -0.1915 -0.0879 -0.2716
 3500TIP3    H132059   6.485   2.088   7.225  0.2754  0.5158  0.1422
 3500TIP3    H232060   6.387   1.989   7.284  1.1536 -1.0183 -0.9127
 3501TIP3   OH232061   6.386   4.897   8.829  0.1304 -0.5856 -0.3793
 3501TIP3    H132062   6.351   4.823   8.879 -0.4253  0.6202  1.0854
 3501TIP3    H232063   6.310   4.950   8.808  0.5414 -0.3455 -1.3313
 3502TIP3   OH232064   1.592   1.574   8.817 -0.1180 -0.1133  0.6307
 3502TIP3    H132065   1.658   1.596   8.751  1.3527 -0.6143  1.8494
 3502TIP3    H232066   1.512   1.559   8.768  0.8477 -0.1725 -0.9996
 3503TIP3   OH232067   0.783   1.616   0.340  0.4019  0.4113 -0.2232
 3503TIP3    H132068   0.805   1.691   0.395 -1.5822  0.0982  1.0844
 3503TIP3    H232069   0.831   1.543   0.380  1.0081  0.6486 -0.4964
 3504TIP3   OH232070   6.105   2.945   1.075  0.2673 -0.0512 -0.2562
 3504TIP3    H132071   6.103   2.957   1.170  1.5486  0.0420 -0.2283
 3504TIP3    H232072   6.151   3.022   1.042 -1.1525  0.4952 -1.0756
 3505TIP3   OH232073   3.062   0.905   8.499 -0.1189 -0.2235 -0.0228
 3505TIP3    H132074   3.114   0.915   8.420 -0.8893  0.8299 -0.4193
 3505TIP3    H232075   3.057   0.811   8.513 -0.6792 -0.4727 -1.7244
 3506TIP3   OH232076   2.756   1.245   8.529 -0.0354  0.1219 -0.2081
 3506TIP3    H132077   2.846   1.230   8.557 -0.4354 -0.3405  0.8808
 3506TIP3    H232078   2.702   1.209   8.599 -1.0678  1.6376 -0.1553
 3507TIP3   OH232079   5.141   0.218   6.680 -0.2235 -0.3515  0.3218
 3507TIP3    H132080   5.192   0.274   6.738 -1.2079 -2.5444  3.5660
 3507TIP3    H232081   5.058   0.205   6.724 -0.8109 -2.7048 -1.2440
 3508TIP3   OH232082   0.783   2.236   7.335 -0.1960 -0.5119  0.0984
 3508TIP3    H132083   0.724   2.310   7.352 -0.2154 -0.5277  0.0992
 3508TIP3    H232084   0.823   2.256   7.251 -0.5657 -0.7415 -0.1331
 3509TIP3   OH232085   1.388   4.984   2.027 -0.2943 -0.5465  0.2820
 3509TIP3    H132086   1.359   5.006   2.116 -0.2639 -0.5432  0.2912
 3509TIP3    H232087   1.445   4.908   2.039  0.6800  0.1813  0.4017
 3510TIP3   OH232088   2.829   1.919   7.912 -0.6205  0.3396  0.1348
 3510TIP3    H132089   2.750   1.941   7.863 -0.7924 -0.8400 -0.1531
 3510TIP3    H232090   2.888   1.993   7.897 -0.3742 -0.3063 -2.5158
 3511TIP3   OH232091   0.995   1.454   0.491  0.1681 -0.5335 -0.4558
 3511TIP3    H132092   1.019   1.377   0.440  0.4617 -1.8180  1.5341
 3511TIP3    H232093   1.078   1.490   0.522 -0.1102 -1.2567  1.1821
 3512TIP3   OH232094   4.745   1.805   0.324 -0.0582  0.1191  0.6565
 3512TIP3    H132095   4.681   1.770   0.263  0.1686  0.2134  0.3626
 3512TIP3    H232096   4.753   1.737   0.392  0.0073 -0.1781  0.3567
 3513TIP3   OH232097   3.652   6.442   7.836  0.0952 -0.1581  0.1457
 3513TIP3    H132098   3.677   6.528   7.870 -1.0316  0.0706  0.4401
 3513TIP3    H232099   3.696   6.379   7.894 -0.1812  0.2295  0.7879
 3514TIP3   OH232100   0.698   6.701   3.002  0.6415 -0.2158 -0.5886
 3514TIP3    H132101   0.681   6.795   2.998 -0.2316 -0.3587 -0.5480
 3514TIP3    H232102   0.611   6.662   3.011  1.0683 -0.9440  0.7765
 3515TIP3   OH232103   3.455   5.383   9.000  0.0337 -0.5970  1.0289
 3515TIP3    H132104   3.433   5.297   9.036  2.7399 -0.7762  2.4640
 3515TIP3    H232105   3.477   5.436   9.076  1.1644  0.5032 -0.0283
 3516TIP3   OH232106   5.337   3.446   8.240 -0.0382 -0.5308  0.0207
 3516TIP3    H132107   5.386   3.497   8.305 -0.2443 -1.6474  1.1102
 3516TIP3    H232108   5.253   3.427   8.282 -1.0287  0.4871 -1.4275
 3517TIP3   OH232109   5.971   0.717   2.180 -0.0575  0.6922  0.0867
 3517TIP3    H132110   5.954   0.712   2.274 -0.5116  0.5756 -0.0010
 3517TIP3    H232111   5.888   0.744   2.142 -0.0021  0.2874 -0.3297
 3518TIP3   OH232112   5.671   0.612   0.227  0.4131 -0.4305 -0.3457
 3518TIP3    H132113   5.594   0.563   0.201 -0.5180  1.7408 -1.9218
 3518TIP3    H232114   5.741   0.578   0.172 -0.2175 -0.0127 -1.4269
 3519TIP3   OH232115   2.026   3.793   1.215 -0.3623  0.0182  0.1230
 3519TIP3    H132116   2.012   3.700   1.196  1.3730 -0.0107 -1.3178
 3519TIP3    H232117   2.038   3.833   1.129 -1.6538  1.7071  0.6892
 3520TIP3   OH232118   4.321   6.522   2.883 -0.0937  0.1957 -0.0581
 3520TIP3    H132119   4.309   6.428   2.891 -0.4444  0.1607 -0.8378
 3520TIP3    H232120   4.297   6.557   2.969  0.3328 -0.4479  0.3258
 3521TIP3   OH232121   5.595   0.957   0.790 -0.1161  1.0093 -0.0228
 3521TIP3    H132122   5.597   0.923   0.701  0.8003  0.5326  0.1656
 3521TIP3    H232123   5.541   0.894   0.838  2.0610 -0.6206  0.4593
 3522TIP3   OH232124   5.944   1.384   2.011 -0.2755  0.2709  0.0432
 3522TIP3    H132125   5.947   1.316   1.945 -1.4439  0.2767 -0.0343
 3522TIP3    H232126   6.035   1.396   2.038 -0.1716 -2.1936  0.9665
 3523TIP3   OH232127   3.129   4.854   0.722 -0.3222 -0.2698  0.2271
 3523TIP3    H132128   3.205   4.878   0.775 -0.3326 -0.4496  0.3246
 3523TIP3    H232129   3.162   4.786   0.663  0.2816  1.4654 -1.5481
 3524TIP3   OH232130   5.971   6.466   3.290 -0.5653 -0.2752 -0.1171
 3524TIP3    H132131   5.948   6.436   3.202 -0.3417 -0.8809  0.0266
 3524TIP3    H232132   5.888   6.497   3.327 -0.3739  1.6895 -1.1713
 3525TIP3   OH232133   1.950   2.099   1.497 -0.1367  0.5874  0.1927
 3525TIP3    H132134   1.917   2.179   1.538 -0.9953  0.6571 -0.5954
 3525TIP3    H232135   1.910   2.028   1.548  0.0937  0.6523  0.4718
 3526TIP3   OH232136   4.889   4.418   7.447  0.1361 -0.8203 -0.0312
 3526TIP3    H132137   4.921   4.420   7.357 -0.5959  1.4982 -0.3098
 3526TIP3    H232138   4.967   4.436   7.500  0.0272  1.2945 -0.4849
 3527TIP3   OH232139   1.314   5.183   1.759 -0.3272 -0.7536 -0.1820
 3527TIP3    H132140   1.364   5.159   1.681 -1.6701 -0.5303 -1.1531
 3527TIP3    H232141   1.380   5.202   1.825  0.8786  0.1048 -1.5756
 3528TIP3   OH232142   3.141   3.316   2.153 -0.3531  0.0368  0.3932
 3528TIP3    H132143   3.048   3.297   2.147 -0.2858 -0.2453  0.2184
 3528TIP3    H232144   3.168   3.275   2.236 -0.2934 -0.2692  0.2229
 3529TIP3   OH232145   0.182   6.309   1.031 -0.3147  0.0501  0.0805
 3529TIP3    H132146   0.277   6.304   1.045 -0.1692  2.6423  0.4570
 3529TIP3    H232147   0.173   6.340   0.941 -0.7570  0.7626  0.3652
 3530TIP3   OH232148   3.986   2.789   8.188 -0.0295 -0.3692  0.2046
 3530TIP3    H132149   3.982   2.879   8.153 -1.8350 -0.8571 -0.9612
 3530TIP3    H232150   3.896   2.769   8.213  0.5873 -1.4096  1.7182
 3531TIP3   OH232151   1.617   3.125   8.961  0.3435 -0.1266 -0.1872
 3531TIP3    H132152   1.672   3.174   9.022  1.5841 -0.2594 -1.1612
 3531TIP3    H232153   1.620   3.175   8.880 -1.1622 -0.0376 -0.2231
 3532TIP3   OH232154   1.254   2.207   7.197  0.6385  0.5230 -0.7923
 3532TIP3    H132155   1.292   2.287   7.162 -1.8390  1.3535 -1.7933
 3532TIP3    H232156   1.180   2.237   7.250  0.1151 -1.0613 -0.5714
 3533TIP3   OH232157   0.498   2.952   1.582 -0.1724  0.3747  0.3825
 3533TIP3    H132158   0.409   2.935   1.550 -0.2713 -0.2201  0.9557
 3533TIP3    H232159   0.493   2.937   1.676  0.4318  0.7929  0.4859
 3534TIP3   OH232160   1.049   3.086   7.993  0.2336 -0.1838  0.8395
 3534TIP3    H132161   1.121   3.111   8.051  0.8809  0.8286 -0.3494
 3534TIP3    H232162   1.013   3.006   8.032  0.6723  0.4244  2.5792
 3535TIP3   OH232163   4.745   2.483   1.287  0.2604  0.0162 -0.2723
 3535TIP3    H132164   4.789   2.410   1.244  0.9344 -0.1089  0.6041
 3535TIP3    H232165   4.733   2.548   1.218  0.7463 -0.4409 -0.7914
 3536TIP3   OH232166   3.970   0.872   2.170  0.6012  0.0945  0.9471
 3536TIP3    H132167   3.956   0.878   2.075 -1.1203  0.7354  1.2220
 3536TIP3    H232168   4.065   0.885   2.180  0.8153  0.0634 -0.6698
 3537TIP3   OH232169   0.082   4.065   0.931 -0.3190 -0.2913 -0.1328
 3537TIP3    H132170   0.104   4.079   0.839 -0.3906  0.5609 -0.0360
 3537TIP3    H232171   0.044   4.149   0.959 -1.2755 -0.8858  0.3896
 3538TIP3   OH232172   1.061   4.609   0.455 -0.3008  0.2847 -0.4185
 3538TIP3    H132173   1.039   4.701   0.441  0.0021  0.3526 -0.4580
 3538TIP3    H232174   1.014   4.585   0.535  0.7495  0.8734  0.3972
 3539TIP3   OH232175   6.630   1.935   1.613  0.3030 -0.1076  0.0991
 3539TIP3    H132176   6.637   1.840   1.615  0.1850 -0.1172  0.0659
 3539TIP3    H232177   6.686   1.965   1.685  0.1078 -0.2148  0.2929
 3540TIP3   OH232178   2.438   3.558   8.947  0.5334 -0.1883  0.0349
 3540TIP3    H132179   2.494   3.514   9.010  0.0241 -1.2751 -0.2579
 3540TIP3    H232180   2.442   3.651   8.972 -0.0279 -0.6349  1.9607
 3541TIP3   OH232181   2.068   1.999   8.344  0.7296 -0.5821 -0.2840
 3541TIP3    H132182   2.057   2.093   8.330  0.4873 -0.1883  2.1566
 3541TIP3    H232183   2.161   1.989   8.366  0.1191 -0.3367  2.7993
 3542TIP3   OH232184   6.571   0.604   1.988 -0.0992  0.0662 -0.1877
 3542TIP3    H132185   6.525   0.667   2.043 -1.2432  0.0259 -1.0456
 3542TIP3    H232186   6.522   0.522   1.999  1.6671 -0.8485  1.3041
 3543TIP3   OH232187   3.764   5.803   2.499  0.5236  0.0325  0.1901
 3543TIP3    H132188   3.674   5.832   2.485  0.6442  0.6952  0.6930
 3543TIP3    H232189   3.788   5.757   2.419  0.2079  1.0757 -0.5232
 3544TIP3   OH232190   1.734   0.461   7.868 -0.4631  0.1357  0.2204
 3544TIP3    H132191   1.717   0.555   7.861 -2.2266 -0.0948  0.8512
 3544TIP3    H232192   1.747   0.446   7.962 -0.1410 -0.2502  0.1175
 3545TIP3   OH232193   1.813   6.145   2.378  0.7832  0.3115  0.3738
 3545TIP3    H132194   1.788   6.210   2.311 -1.3054 -0.9432 -0.1676
 3545TIP3    H232195   1.884   6.187   2.426  0.4928  2.4045 -0.8648
 3546TIP3   OH232196   6.693   3.133   1.121  0.0417  0.2278 -0.0092
 3546TIP3    H132197   6.720   3.178   1.201 -1.3337  0.1530  0.5227
 3546TIP3    H232198   6.599   3.146   1.117 -0.0998 -0.9329 -0.9006
 3547TIP3   OH232199   3.660   4.360   7.645 -0.0636 -0.1946  0.2630
 3547TIP3    H132200   3.700   4.396   7.724  0.3648 -0.6144  0.2394
 3547TIP3    H232201   3.712   4.397   7.574 -0.2716 -0.0415  0.1900
 3548TIP3   OH232202   0.549   3.370   8.327  0.0168  0.0143 -0.5207
 3548TIP3    H132203   0.590   3.284   8.336 -3.1055 -1.5816  0.3269
 3548TIP3    H232204   0.534   3.398   8.417 -0.7704  0.4716 -0.7867
 3549TIP3   OH232205   1.255   5.333   3.031 -0.8793 -0.2009  0.1578
 3549TIP3    H132206   1.197   5.407   3.046  0.4378  0.7697  0.7262
 3549TIP3    H232207   1.223   5.265   3.091 -0.8097  0.6813  1.2340
 3550TIP3   OH232208   3.457   5.662   8.233  0.3569  0.5706  0.2073
 3550TIP3    H132209   3.416   5.730   8.285 -1.1505 -0.0314 -0.1310
 3550TIP3    H232210   3.442   5.581   8.283 -2.7258 -0.3176 -1.8605
 3551TIP3   OH232211   6.715   4.679   1.548  0.2326 -0.1717 -0.4626
 3551TIP3    H132212   6.629   4.700   1.511 -0.8869 -2.7767  0.4466
 3551TIP3    H232213   6.738   4.594   1.511  1.5376 -0.4044  0.7732
 3552TIP3   OH232214   3.965   4.562   0.672  0.0804 -0.0772 -0.6805
 3552TIP3    H132215   4.025   4.497   0.709 -1.9531 -0.6846  1.8638
 3552TIP3    H232216   3.918   4.515   0.603  0.9749 -0.2677 -1.1613
 3553TIP3   OH232217   0.297   1.102   0.271 -0.4650 -0.4930 -0.3553
 3553TIP3    H132218   0.352   1.081   0.195 -0.4653  0.4838 -0.6389
 3553TIP3    H232219   0.296   1.198   0.274  0.7169 -0.5009  1.7526
 3554TIP3   OH232220   1.867   4.802   1.766 -0.2714  0.0300  0.4610
 3554TIP3    H132221   1.860   4.896   1.782 -1.4859 -0.1637  1.1460
 3554TIP3    H232222   1.778   4.769   1.773  0.1013 -1.1439 -0.0475
 3555TIP3   OH232223   3.092   5.170   0.951  0.1411 -0.8482 -0.8922
 3555TIP3    H132224   3.044   5.227   0.891  1.5728 -0.9271 -2.1886
 3555TIP3    H232225   3.025   5.132   1.007 -1.0397  0.7869 -1.1186
 3556TIP3   OH232226   0.002   1.629   7.677 -0.1306 -0.5537  0.1495
 3556TIP3    H132227  -0.064   1.570   7.640 -1.1840  0.8442 -0.2947
 3556TIP3    H232228  -0.045   1.712   7.690  1.2492  0.1394  0.9274
 3557TIP3   OH232229   6.187   0.345   7.748  0.3241 -0.2732  0.2577
 3557TIP3    H132230   6.277   0.364   7.722  0.8769 -2.8007  0.1009
 3557TIP3    H232231   6.161   0.272   7.693 -1.7321  0.1871  0.5452
 3558TIP3   OH232232   3.355   0.988   7.885  0.2375 -0.5355  0.5046
 3558TIP3    H132233   3.420   1.058   7.880  0.2987 -0.6601 -0.8987
 3558TIP3    H232234   3.330   0.972   7.794 -1.5010 -0.7383  0.9765
 3559TIP3   OH232235   6.664   1.340   0.993  0.4065  0.1704 -0.2052
 3559TIP3    H132236   6.635   1.256   0.958  0.3033 -0.2204  0.7658
 3559TIP3    H232237   6.757   1.327   1.012  0.1082 -0.1678  1.1368
 3560TIP3   OH232238   2.050   6.560   9.058  0.0738  0.1860 -0.3741
 3560TIP3    H132239   1.995   6.486   9.084 -0.6907  1.4597  2.0267
 3560TIP3    H232240   1.991   6.618   9.009 -0.3275  0.7760  0.7639
 3561TIP3   OH232241   0.765   1.494   7.998 -0.2282  0.4185  0.5421
 3561TIP3    H132242   0.856   1.474   7.977 -0.6580 -2.7025  1.1577
 3561TIP3    H232243   0.714   1.441   7.937 -1.5521 -0.6126  2.4439
 3562TIP3   OH232244   2.978   5.683   2.405  0.1320 -0.2482  0.1745
 3562TIP3    H132245   2.949   5.645   2.322 -0.3827 -3.1399  1.5551
 3562TIP3    H232246   2.923   5.760   2.417 -0.9929 -0.7746 -1.3336
 3563TIP3   OH232247   0.717   6.653   2.725 -0.0428  0.1986  0.7989
 3563TIP3    H132248   0.718   6.666   2.820  1.0151  0.6608  0.7368
 3563TIP3    H232249   0.651   6.714   2.693 -1.6433 -1.1598  1.3811
 3564TIP3   OH232250   2.009   1.761   8.140  0.4336 -0.1672  0.0585
 3564TIP3    H132251   1.971   1.839   8.181 -1.3284 -1.2689  0.6832
 3564TIP3    H232252   2.095   1.751   8.181 -0.2345  0.2229  1.6577
 3565TIP3   OH232253   0.381   3.434   0.182  0.1386  0.2321 -0.2745
 3565TIP3    H132254   0.418   3.395   0.102 -0.2252  0.1200 -0.3930
 3565TIP3    H232255   0.286   3.433   0.166  0.1123  0.9206 -0.1628
 3566TIP3   OH232256   1.478   4.431   0.242  0.0429  0.1339  0.1159
 3566TIP3    H132257   1.428   4.416   0.161  0.5524 -0.9691 -0.0117
 3566TIP3    H232258   1.512   4.520   0.233 -0.3175  0.1981 -0.6718
 3567TIP3   OH232259   0.062   0.087   7.424 -0.0283  0.5640 -0.6407
 3567TIP3    H132260   0.119   0.074   7.349  0.2153 -0.1364 -0.3435
 3567TIP3    H232261   0.014   0.005   7.433 -0.9367  1.0621 -0.7523
 3568TIP3   OH232262   4.718   1.811   8.548  0.2624  0.8542  0.3222
 3568TIP3    H132263   4.769   1.824   8.468  1.5259 -0.5824  0.8360
 3568TIP3    H232264   4.663   1.889   8.555  0.0667  0.9713 -1.9654
 3569TIP3   OH232265   1.741   3.576   0.133  0.4003 -0.3091 -0.4214
 3569TIP3    H132266   1.685   3.625   0.073  1.4896  0.8766 -0.5101
 3569TIP3    H232267   1.692   3.573   0.215 -0.0046  0.2976 -0.6363
 3570TIP3   OH232268   1.552   5.641   2.087 -0.1365 -0.1935 -0.0809
 3570TIP3    H132269   1.511   5.712   2.137 -0.4893 -0.8903  0.6415
 3570TIP3    H232270   1.646   5.656   2.097 -0.1732 -0.9072  1.7068
 3571TIP3   OH232271   6.660   1.503   2.109  0.3703  0.7388  0.1381
 3571TIP3    H132272   6.611   1.527   2.031 -0.5711  1.9504  1.0634
 3571TIP3    H232273   6.666   1.407   2.105  0.1221  0.7614 -1.2663
 3572TIP3   OH232274   1.171   1.801   0.448  0.2754 -0.3835  0.5136
 3572TIP3    H132275   1.200   1.711   0.463 -0.6349 -0.5211  1.5948
 3572TIP3    H232276   1.089   1.807   0.496  0.4851  1.1255  0.7093
 3573TIP3   OH232277   0.433   6.679   8.719  0.1692  0.3236  0.0945
 3573TIP3    H132278   0.421   6.752   8.780  1.6204  1.5420 -1.0178
 3573TIP3    H232279   0.347   6.637   8.716 -0.0970  0.5532  2.5184
 3574TIP3   OH232280   1.511   1.757   2.907  0.0120 -0.1699 -0.4942
 3574TIP3    H132281   1.499   1.832   2.966 -0.8001  0.3000 -1.2412
 3574TIP3    H232282   1.601   1.767   2.876 -0.2091  0.7362 -0.8899
 3575TIP3   OH232283   4.742   5.845   0.360 -0.5623  0.4497  0.4059
 3575TIP3    H132284   4.784   5.903   0.424  0.8286 -0.3640  0.2732
 3575TIP3    H232285   4.652   5.838   0.389 -0.6887  2.3906  0.6255
 3576TIP3   OH232286   5.431   5.415   3.196  0.2545 -0.0013  1.1827
 3576TIP3    H132287   5.519   5.376   3.201  0.6850  0.7043 -0.2896
 3576TIP3    H232288   5.437   5.494   3.251  0.2335 -0.4597  1.8617
 3577TIP3   OH232289   1.883   5.883   7.593 -0.1653  0.5495 -0.0647
 3577TIP3    H132290   1.825   5.940   7.542 -1.8355  1.1387  2.3090
 3577TIP3    H232291   1.953   5.942   7.623 -0.2782  0.6775 -0.0494
 3578TIP3   OH232292   2.795   3.665   0.246 -0.6855  0.0931 -0.1452
 3578TIP3    H132293   2.770   3.579   0.279 -1.6188  0.1143 -0.7703
 3578TIP3    H232294   2.887   3.656   0.224 -1.3053 -1.4934 -2.4551
 3579TIP3   OH232295   5.051   4.377   8.113 -0.3636 -0.7998  0.4754
 3579TIP3    H132296   5.036   4.415   8.026 -1.0392 -0.7119  0.6221
 3579TIP3    H232297   5.033   4.449   8.173  0.9255 -0.6203  0.6684
 3580TIP3   OH232298   1.665   1.554   8.539  0.1064 -0.0852  0.2634
 3580TIP3    H132299   1.586   1.523   8.494 -0.2478  1.0742  0.0640
 3580TIP3    H232300   1.715   1.599   8.470  1.5899 -1.9004  0.0685
 3581TIP3   OH232301   6.597   6.330   2.197 -0.3070 -0.6181  0.1185
 3581TIP3    H132302   6.617   6.411   2.150 -0.8222 -1.5517 -1.7892
 3581TIP3    H232303   6.506   6.311   2.174  0.4657 -2.9250 -1.3589
 3582TIP3   OH232304   2.749   1.787   0.967 -0.4500  0.0735  0.0571
 3582TIP3    H132305   2.808   1.863   0.961 -1.4733  0.9047  0.3003
 3582TIP3    H232306   2.804   1.718   1.004  0.3082  0.9140  0.5631
 3583TIP3   OH232307   2.983   1.136   0.217 -0.1983  0.2353 -0.2333
 3583TIP3    H132308   3.053   1.099   0.270 -0.6894 -0.0052  0.2580
 3583TIP3    H232309   3.007   1.228   0.206 -0.5564  0.5221  1.2182
 3584TIP3   OH232310   3.487   4.947   8.264 -0.2562  0.2837 -0.3429
 3584TIP3    H132311   3.515   4.951   8.356  1.9253 -2.4516 -0.7592
 3584TIP3    H232312   3.508   5.033   8.228 -0.7386  1.2586  1.5801
 3585TIP3   OH232313   1.209   4.151   1.928 -0.3707  0.2312 -0.4796
 3585TIP3    H132314   1.276   4.118   1.988 -0.2087  1.9301  0.3522
 3585TIP3    H232315   1.227   4.245   1.923 -2.3429  0.6333 -0.6810
 3586TIP3   OH232316   2.060   0.655   8.722 -0.0461  0.0147 -0.0384
 3586TIP3    H132317   2.057   0.575   8.668 -1.5835  1.0949 -1.6620
 3586TIP3    H232318   1.987   0.708   8.690  2.0188  2.9128 -0.3254
 3587TIP3   OH232319   0.727   4.960   8.329  0.0645 -0.7076 -0.0298
 3587TIP3    H132320   0.751   4.991   8.242 -0.1525 -0.3689  0.0308
 3587TIP3    H232321   0.684   4.876   8.314 -2.9343  0.7784 -0.5746
 3588TIP3   OH232322   0.563   5.288   1.554 -0.1508  0.2478  0.3050
 3588TIP3    H132323   0.558   5.194   1.566  1.5030  0.2125  0.9903
 3588TIP3    H232324   0.527   5.325   1.635  0.8340  0.1491  0.8112
 3589TIP3   OH232325   0.235   2.932   7.628 -0.0492  0.1728 -0.0342
 3589TIP3    H132326   0.250   2.837   7.634 -2.1995 -0.1373  1.2362
 3589TIP3    H232327   0.288   2.959   7.552  3.7586 -1.3084  1.8215
 3590TIP3   OH232328   5.011   1.409   0.487 -0.7718  0.4448 -0.5778
 3590TIP3    H132329   5.001   1.489   0.436 -0.3419  0.9535  0.1274
 3590TIP3    H232330   5.098   1.416   0.526 -0.7656 -0.3256 -0.4422
 3591TIP3   OH232331   1.046   6.349   8.024 -0.0561 -0.0956 -0.1441
 3591TIP3    H132332   1.018   6.270   7.979  0.7221 -0.5662  0.1769
 3591TIP3    H232333   0.978   6.414   8.004 -0.4896 -0.7243 -0.7395
 3592TIP3   OH232334   4.717   2.590   8.254  0.4804  0.7178  0.1926
 3592TIP3    H132335   4.663   2.558   8.182  2.5642 -1.5125 -0.5060
 3592TIP3    H232336   4.654   2.608   8.325 -1.2706 -0.7474 -0.9054
 3593TIP3   OH232337   5.309   6.016   1.432 -0.2456 -0.2150  0.4557
 3593TIP3    H132338   5.246   5.944   1.430  0.7259 -1.0985 -2.4566
 3593TIP3    H232339   5.303   6.055   1.345  1.3752  1.3379  1.0030
 3594TIP3   OH232340   6.089   6.240   1.636  0.1260  0.4031 -0.0182
 3594TIP3    H132341   6.074   6.332   1.613 -3.0614 -0.2987 -1.3696
 3594TIP3    H232342   6.025   6.222   1.706 -1.0766 -1.2929 -1.4436
 3595TIP3   OH232343   5.397   4.398   2.237 -0.3927  0.3491  0.6019
 3595TIP3    H132344   5.342   4.325   2.263 -0.0531  0.0841  0.5871
 3595TIP3    H232345   5.454   4.413   2.312  1.2222 -1.0160 -0.2634
 3596TIP3   OH232346   6.492   4.305   7.288  0.4628 -0.3268  0.3147
 3596TIP3    H132347   6.572   4.283   7.240 -0.3922 -0.3384 -1.1579
 3596TIP3    H232348   6.434   4.342   7.222 -0.3679  0.7137  1.5774
 3597TIP3   OH232349   0.379   3.291   1.693  0.4125  0.3581 -0.5451
 3597TIP3    H132350   0.324   3.265   1.619  1.4331  0.3026 -1.3095
 3597TIP3    H232351   0.349   3.236   1.765  0.7855 -1.0985 -1.4548
 3598TIP3   OH232352   2.730   4.672   1.037 -0.2785 -0.1709  0.7309
 3598TIP3    H132353   2.822   4.692   1.021 -0.3255 -1.2202 -1.1467
 3598TIP3    H232354   2.728   4.639   1.127  1.5519 -2.0058  0.1970
 3599TIP3   OH232355   0.999   4.475   8.073 -0.1337  0.5974  0.1345
 3599TIP3    H132356   0.977   4.472   8.166  0.3558 -0.5548  0.2257
 3599TIP3    H232357   1.094   4.475   8.071 -0.1284  1.6690 -0.3575
 3600TIP3   OH232358   1.559   6.002   2.409 -0.0879 -0.0725  0.2444
 3600TIP3    H132359   1.507   5.922   2.401  0.4493 -0.6263  1.8291
 3600TIP3    H232360   1.650   5.972   2.400  0.1712  0.1793  1.7853
 3601TIP3   OH232361   0.355   0.569   0.625 -0.0189  0.2749  0.0793
 3601TIP3    H132362   0.331   0.592   0.535 -2.4403 -0.3625  0.4772
 3601TIP3    H232363   0.376   0.476   0.621 -1.6737 -0.1484  0.3743
 3602TIP3   OH232364   6.595   2.299   0.247  0.2393 -0.3375 -1.1967
 3602TIP3    H132365   6.553   2.289   0.332  2.4388  0.8851  0.1599
 3602TIP3    H232366   6.563   2.225   0.195 -2.2568 -0.3409  0.1785
 3603TIP3   OH232367   4.926   0.701   1.755  0.1648 -0.0142 -0.0365
 3603TIP3    H132368   4.965   0.737   1.676  1.2781 -0.3174  0.3637
 3603TIP3    H232369   4.960   0.755   1.826 -0.1333 -0.2882  0.3217
 3604TIP3   OH232370   5.452   4.648   0.466 -0.1555  0.1051  0.0736
 3604TIP3    H132371   5.470   4.623   0.375  0.0097  0.3153  0.0490
 3604TIP3    H232372   5.460   4.743   0.467  1.0317  0.0095  0.5732
 3605TIP3   OH232373   3.751   0.009   7.739 -0.0896  0.1888 -0.3051
 3605TIP3    H132374   3.720   0.081   7.685 -0.5876 -1.7967 -2.8737
 3605TIP3    H232375   3.671  -0.038   7.766  0.3049 -0.6249 -0.5087
 3606TIP3   OH232376   5.140   4.042   7.545 -0.0302  0.0319  0.3304
 3606TIP3    H132377   5.181   4.129   7.539  1.5679 -0.6307  1.0684
 3606TIP3    H232378   5.213   3.982   7.554 -1.1763 -1.1404  2.6118
 3607TIP3   OH232379   2.114   5.001   8.016 -0.3723  0.2207 -0.0725
 3607TIP3    H132380   2.043   5.065   8.010 -0.1883  0.8662  3.0276
 3607TIP3    H232381   2.188   5.050   8.051  0.6914 -1.0982 -0.3808
 3608TIP3   OH232382   1.045   1.674   2.132  0.1615  0.1326 -0.0270
 3608TIP3    H132383   1.126   1.712   2.165 -0.5966  1.0400  0.8983
 3608TIP3    H232384   1.072   1.604   2.073  1.5997  0.0561  0.6896
 3609TIP3   OH232385   0.603   0.835   8.256  0.0998  0.0247 -0.4178
 3609TIP3    H132386   0.629   0.888   8.181 -0.1771 -2.5505 -2.4810
 3609TIP3    H232387   0.511   0.857   8.272  0.0043  0.2078 -1.2132
 3610TIP3   OH232388   0.295   4.846   0.363 -0.3787  0.6094 -0.5277
 3610TIP3    H132389   0.379   4.883   0.338  0.9883 -1.9254  0.0613
 3610TIP3    H232390   0.297   4.756   0.332 -0.5569 -1.2711  4.1571
 3611TIP3   OH232391   5.213   2.953   0.529  0.3769 -0.2410  0.1143
 3611TIP3    H132392   5.217   3.005   0.610  1.3379 -1.7275  1.0638
 3611TIP3    H232393   5.303   2.923   0.516 -0.1967 -1.8485 -0.2722
 3612TIP3   OH232394   1.785   2.396   8.368  0.0867  0.0809 -0.1194
 3612TIP3    H132395   1.854   2.338   8.335  1.6470  1.0590  1.2808
 3612TIP3    H232396   1.765   2.362   8.455 -2.9607 -1.6064 -1.3249
 3613TIP3   OH232397   0.582   6.350   8.883 -0.2636 -0.2862  0.1174
 3613TIP3    H132398   0.597   6.417   8.816 -1.2345  0.3488  0.5148
 3613TIP3    H232399   0.667   6.340   8.926 -0.4122  1.8701  1.0946
 3614TIP3   OH232400   1.070   5.732   7.396  0.3307  0.2663 -0.1404
 3614TIP3    H132401   1.017   5.811   7.385 -0.0114 -0.0126 -0.5399
 3614TIP3    H232402   1.008   5.664   7.420  0.3989 -0.2192 -1.2842
 3615TIP3   OH232403   0.189   3.721   2.229 -0.0673  0.5431 -0.0364
 3615TIP3    H132404   0.117   3.667   2.262  1.2712 -1.3449 -0.0704
 3615TIP3    H232405   0.249   3.730   2.303  0.5125  0.5804 -0.4987
 3616TIP3   OH232406   5.644   5.281   0.993  0.2824  0.2998  0.3086
 3616TIP3    H132407   5.701   5.205   0.978  1.8918  1.0782  2.1767
 3616TIP3    H232408   5.684   5.351   0.942  0.3320  0.5656  0.7151
 3617TIP3   OH232409   4.049   2.201   0.259 -0.5672  0.4681 -0.3463
 3617TIP3    H132410   3.962   2.213   0.222 -0.0349  1.6730 -1.3075
 3617TIP3    H232411   4.053   2.262   0.332 -0.8074 -0.1947  0.2265
 3618TIP3   OH232412   5.358   6.477   6.825  0.0614  0.6935  0.2706
 3618TIP3    H132413   5.275   6.431   6.828 -0.4941  1.4840 -1.7382
 3618TIP3    H232414   5.421   6.411   6.795 -0.2803  0.6394 -0.3424
 3619TIP3   OH232415   4.305   1.258   7.408 -0.1553  0.4064 -0.9620
 3619TIP3    H132416   4.303   1.200   7.485  0.5708 -0.2420 -1.4255
 3619TIP3    H232417   4.318   1.200   7.334 -0.8978  1.0275 -1.6021
 3620TIP3   OH232418   5.801   1.081   8.002  0.6039  0.1139 -0.1910
 3620TIP3    H132419   5.721   1.072   8.054  0.4817  1.0640 -0.1844
 3620TIP3    H232420   5.872   1.075   8.066  0.4080  3.8993  0.6295
 3621TIP3   OH232421   1.663   1.391   7.036 -0.6455 -0.0437  0.2949
 3621TIP3    H132422   1.573   1.423   7.030 -0.6538 -0.3089 -1.4742
 3621TIP3    H232423   1.718   1.469   7.023 -0.6257 -0.1011  0.0411
 3622TIP3   OH232424   4.579   3.274   7.969 -0.1116 -0.9302 -0.6812
 3622TIP3    H132425   4.489   3.259   7.998 -0.9709  0.0317 -2.6988
 3622TIP3    H232426   4.620   3.188   7.972 -0.7703 -1.2165  1.2192
 3623TIP3   OH232427   2.639   3.855   0.730  0.5339  0.0232 -0.5542
 3623TIP3    H132428   2.568   3.919   0.727  0.5217  0.0045 -0.6967
 3623TIP3    H232429   2.668   3.848   0.639 -0.2862 -1.0833 -0.7497
 3624TIP3   OH232430   3.780   0.647   0.376 -0.5078  0.8306  0.2469
 3624TIP3    H132431   3.814   0.602   0.454 -1.3792 -0.6958 -0.2159
 3624TIP3    H232432   3.686   0.654   0.392 -0.8643 -0.4540 -1.0906
 3625TIP3   OH232433   2.124   3.342   2.173  0.1983 -0.0608  0.0737
 3625TIP3    H132434   2.217   3.348   2.151  0.4664  0.9635  1.3287
 3625TIP3    H232435   2.094   3.433   2.176 -0.9546 -0.3875 -0.6908
 3626TIP3   OH232436   6.266   3.743   3.247  0.2457 -0.6832 -0.4680
 3626TIP3    H132437   6.241   3.832   3.220 -1.5897 -0.8221  0.5859
 3626TIP3    H232438   6.266   3.693   3.166 -3.6720 -0.7561 -0.6318
 3627TIP3   OH232439   1.139   4.107   1.655  0.6386  0.6482  0.2692
 3627TIP3    H132440   1.178   4.116   1.742  1.0724 -0.3822  0.1925
 3627TIP3    H232441   1.195   4.161   1.599  0.0350  1.7639  0.7038
 3628TIP3   OH232442   0.131   0.333   7.622  0.2374 -0.0640  0.3179
 3628TIP3    H132443   0.181   0.304   7.698  1.0603 -0.6326 -0.4046
 3628TIP3    H232444   0.109   0.251   7.576  0.6866  0.3143 -0.6016
 3629TIP3   OH232445   0.345   0.326   7.847  0.4430 -0.0880 -0.6615
 3629TIP3    H132446   0.391   0.252   7.887  0.6569  0.3828 -0.0111
 3629TIP3    H232447   0.401   0.354   7.774  0.1861 -0.7839 -1.1311
 3630TIP3   OH232448   5.442   5.562   0.000 -0.4019 -0.3043  0.1013
 3630TIP3    H132449   5.513   5.586   0.059 -0.6530 -0.3280  0.4156
 3630TIP3    H232450   5.369   5.618   0.026 -0.2933  0.2196 -0.6775
 3631TIP3   OH232451   0.637   4.514   1.904  0.3373 -0.2453 -0.0632
 3631TIP3    H132452   0.659   4.545   1.816  2.2003  0.1229  0.5022
 3631TIP3    H232453   0.558   4.564   1.927  1.2667  1.5440 -0.5567
 3632TIP3   OH232454   5.758   5.351   1.982 -0.4745  0.2722 -0.3908
 3632TIP3    H132455   5.833   5.356   2.042  0.9734  1.6543 -2.1819
 3632TIP3    H232456   5.695   5.413   2.017 -0.4309 -0.2422  0.6462
 3633TIP3   OH232457   6.409   4.124   0.317 -0.3512 -0.4549 -0.2933
 3633TIP3    H132458   6.406   4.107   0.411 -0.6214 -0.7404 -0.3515
 3633TIP3    H232459   6.393   4.039   0.277 -1.7405 -0.0913 -0.5879
 3634TIP3   OH232460   3.615   6.429   1.674 -0.1919 -0.2421  0.1441
 3634TIP3    H132461   3.660   6.468   1.749  2.7389 -1.3815 -0.8558
 3634TIP3    H232462   3.617   6.335   1.691 -1.4259 -0.3829 -0.3973
 3635TIP3   OH232463   4.293   4.369   8.930 -0.1448 -0.3707 -0.1416
 3635TIP3    H132464   4.265   4.278   8.919 -0.1959 -0.4294  0.4073
 3635TIP3    H232465   4.244   4.418   8.865 -0.5016 -0.6673 -0.1013
 3636TIP3   OH232466   2.963   0.156   8.907  0.2755  0.0815 -0.7709
 3636TIP3    H132467   2.999   0.105   8.834 -2.1750 -0.8202 -1.4522
 3636TIP3    H232468   2.868   0.153   8.893 -0.1394  1.6470  1.3292
 3637TIP3   OH232469   3.895   4.976   1.147 -0.4043  0.1827  0.2080
 3637TIP3    H132470   3.978   4.932   1.161  0.3057  1.4011 -0.0625
 3637TIP3    H232471   3.913   5.043   1.081 -1.1372  1.6756  1.4421
 3638TIP3   OH232472   2.900   3.045   0.714 -0.0206 -0.2109  0.0830
 3638TIP3    H132473   2.839   3.114   0.741  0.1468 -0.3477  0.8299
 3638TIP3    H232474   2.859   3.006   0.637 -0.4123  0.3196  0.0111
 3639TIP3   OH232475   6.198   1.994   8.988  0.2554 -0.4494 -0.6422
 3639TIP3    H132476   6.181   1.927   8.921 -1.4500  1.7998 -2.6336
 3639TIP3    H232477   6.134   1.975   9.057  1.0243 -1.8979 -0.2806
 3640TIP3   OH232478   4.752   1.514   7.637 -0.1637  0.1047  0.7742
 3640TIP3    H132479   4.702   1.436   7.612  1.0430 -0.6559  0.6500
 3640TIP3    H232480   4.816   1.525   7.566 -1.0731  1.9375  0.1716
 3641TIP3   OH232481   0.475   3.298   2.506 -0.1887  1.1819  1.0524
 3641TIP3    H132482   0.410   3.233   2.532 -1.4240  0.9608 -2.1970
 3641TIP3    H232483   0.559   3.259   2.530 -1.0294 -0.5468  1.3118
 3642TIP3   OH232484   5.839   6.658   0.453 -0.4218 -0.2519 -0.7551
 3642TIP3    H132485   5.826   6.590   0.519  2.5249  0.1209  0.3757
 3642TIP3    H232486   5.819   6.740   0.499  0.9338 -0.0418 -0.5096
 3643TIP3   OH232487   1.368   1.855   1.711 -0.4990  0.0013 -0.2487
 3643TIP3    H132488   1.330   1.926   1.763  0.2913  2.2732 -2.5398
 3643TIP3    H232489   1.361   1.886   1.620 -0.3390 -3.0227 -1.3900
 3644TIP3   OH232490   2.336   4.723   2.636  0.3876  0.0584 -0.4103
 3644TIP3    H132491   2.320   4.795   2.696 -0.1557  0.7055 -1.3137
 3644TIP3    H232492   2.260   4.721   2.578  1.6918  0.6389 -2.2486
 3645TIP3   OH232493   0.474   2.603   1.393 -0.0247  0.2849 -0.2903
 3645TIP3    H132494   0.407   2.659   1.355 -0.3306 -0.8405 -1.5007
 3645TIP3    H232495   0.472   2.524   1.338  1.5620 -0.1941  0.3057
 3646TIP3   OH232496   3.541   5.856   2.812 -0.0610  0.7610  0.3689
 3646TIP3    H132497   3.528   5.951   2.814  2.0443  1.1077  0.6763
 3646TIP3    H232498   3.637   5.846   2.810 -0.2118 -1.3799  1.5420
 3647TIP3   OH232499   4.027   2.735   0.700  0.1857 -0.2415  0.0924
 3647TIP3    H132500   4.049   2.698   0.785  1.4809 -1.7439 -0.8287
 3647TIP3    H232501   3.931   2.734   0.697  0.0809  0.7281  1.8583
 3648TIP3   OH232502   5.950   3.917   0.804  0.4113  0.3891  0.3328
 3648TIP3    H132503   5.976   3.881   0.720 -2.6785 -0.6481 -0.3037
 3648TIP3    H232504   5.988   3.857   0.869  1.0461 -0.0208 -0.4017
 3649TIP3   OH232505   3.583   0.898   2.236  0.5924  0.1165 -0.1637
 3649TIP3    H132506   3.569   0.855   2.151 -1.5456 -0.9535  0.6615
 3649TIP3    H232507   3.674   0.878   2.258  0.6477 -1.1241 -1.3918
 3650TIP3   OH232508   2.249   5.813   0.406  0.9151  0.0294 -0.4903
 3650TIP3    H132509   2.155   5.832   0.401  0.1405 -2.8401  0.7542
 3650TIP3    H232510   2.292   5.898   0.408 -1.7095  1.4300 -0.2884
 3651TIP3   OH232511   4.565   6.319   9.105  0.1125 -0.0199 -0.4876
 3651TIP3    H132512   4.640   6.312   9.047  1.2503  1.4606  0.7407
 3651TIP3    H232513   4.597   6.367   9.182 -2.6524  3.0185 -0.9994
 3652TIP3   OH232514   5.120   6.395   2.028 -0.0768  0.3662  0.3041
 3652TIP3    H132515   5.077   6.341   2.094  0.8376 -0.4417  0.2610
 3652TIP3    H232516   5.093   6.484   2.048  0.6481  0.2133  2.1483
 3653TIP3   OH232517   4.922   3.696   1.068 -0.1934 -0.1561 -0.3375
 3653TIP3    H132518   4.910   3.755   1.142  0.0500 -1.1926  0.5511
 3653TIP3    H232519   4.886   3.612   1.098  2.4986 -1.3863 -0.2927
 3654TIP3   OH232520   4.198   1.348   8.665  0.0416  0.0635  0.3104
 3654TIP3    H132521   4.122   1.391   8.625  0.3690  1.1317  0.7908
 3654TIP3    H232522   4.162   1.290   8.731 -0.4090 -0.3329 -0.2761
 3655TIP3   OH232523   5.209   3.476   2.223 -0.0934 -0.2504  0.2743
 3655TIP3    H132524   5.157   3.537   2.275  1.5514  1.9206 -0.4618
 3655TIP3    H232525   5.298   3.485   2.257  0.5244 -0.8629 -1.0861
 3656TIP3   OH232526   5.538   4.428   2.465 -0.3761 -0.4296  0.1425
 3656TIP3    H132527   5.541   4.344   2.510  0.6416 -0.5666 -0.1547
 3656TIP3    H232528   5.601   4.483   2.511  0.0657 -0.3067 -0.5826
 3657TIP3   OH232529   0.959   1.276   0.150  0.7034  0.2402 -0.2260
 3657TIP3    H132530   0.869   1.262   0.121  0.9667  1.6263 -1.8503
 3657TIP3    H232531   0.960   1.245   0.241 -0.7393 -2.2418 -0.9423
 3658TIP3   OH232532   3.314   4.182   0.696 -0.4233 -0.1173  0.4629
 3658TIP3    H132533   3.314   4.269   0.656  2.1109  0.6568  1.8757
 3658TIP3    H232534   3.298   4.199   0.789  1.1527 -0.9780  0.9332
 3659TIP3   OH232535   5.229   5.982   2.521 -0.2443  0.6424  0.1077
 3659TIP3    H132536   5.305   5.928   2.544 -0.9937 -0.1077  0.8864
 3659TIP3    H232537   5.238   6.061   2.575 -0.8813 -0.1870  1.4795
 3660TIP3   OH232538   6.457   0.580   8.507  0.2677  0.0402 -0.7219
 3660TIP3    H132539   6.523   0.517   8.477  1.1649  1.0638 -0.9876
 3660TIP3    H232540   6.440   0.635   8.430 -1.5253 -0.6971 -0.8961
 3661TIP3   OH232541   2.387   6.487   2.515 -0.0518  0.4877  0.2449
 3661TIP3    H132542   2.321   6.555   2.531 -0.6305  0.2654 -1.0679
 3661TIP3    H232543   2.370   6.421   2.582 -1.5857  0.1457 -0.4448
 3662TIP3   OH232544   6.447   4.590   2.725  0.0348 -0.1386 -0.3593
 3662TIP3    H132545   6.387   4.618   2.795 -0.2968  0.8688 -1.0210
 3662TIP3    H232546   6.455   4.496   2.737  0.2652  0.0484  1.2578
 3663TIP3   OH232547   3.405   4.884   0.839  0.5604 -0.1421  0.3987
 3663TIP3    H132548   3.465   4.826   0.792 -0.0165 -0.6231  0.2477
 3663TIP3    H232549   3.457   4.962   0.858  0.5651  0.4360 -1.7781
 3664TIP3   OH232550   3.941   3.777   7.084 -0.7184 -0.0188 -0.2022
 3664TIP3    H132551   4.000   3.851   7.078 -2.0181  0.9455 -2.5821
 3664TIP3    H232552   3.854   3.816   7.093 -1.2569 -1.3366  0.7573
 3665TIP3   OH232553   1.514   2.079   0.643  0.2373  0.3627 -0.2733
 3665TIP3    H132554   1.593   2.132   0.627  1.8034 -1.5499  0.6149
 3665TIP3    H232555   1.473   2.072   0.557  1.0344  1.3929 -0.7750
 3666TIP3   OH232556   1.702   6.234   1.164 -0.2254  0.2491  0.2497
 3666TIP3    H132557   1.729   6.179   1.238 -0.1024  0.5225  0.4099
 3666TIP3    H232558   1.667   6.313   1.205  0.8789  0.8834 -0.0106
 3667TIP3   OH232559   3.116   6.104   0.991  0.1929  0.0005  0.3136
 3667TIP3    H132560   3.074   6.158   0.924 -1.5489 -2.3719 -0.6532
 3667TIP3    H232561   3.203   6.086   0.955  0.3555  1.1076  0.0969
 3668TIP3   OH232562   4.134   0.195   1.424 -0.1307  0.4438  0.5570
 3668TIP3    H132563   4.175   0.146   1.495 -0.3907  1.5219  1.4808
 3668TIP3    H232564   4.101   0.128   1.365  2.6374 -0.4777 -0.0764
 3669TIP3   OH232565   0.272   6.195   0.351 -0.7406  0.3529 -0.0221
 3669TIP3    H132566   0.351   6.246   0.334 -0.3092  0.2280  1.4774
 3669TIP3    H232567   0.294   6.106   0.321 -0.7421  0.5716 -0.6879
 3670TIP3   OH232568   5.537   5.288   1.480  0.6242  0.1076 -0.0624
 3670TIP3    H132569   5.515   5.221   1.545  0.9505  1.3696  1.4043
 3670TIP3    H232570   5.484   5.364   1.504  0.6714  0.5812 -1.3608
 3671TIP3   OH232571   0.657   3.162   1.511 -0.4139 -0.1738  0.2761
 3671TIP3    H132572   0.582   3.105   1.527  1.1391 -2.1771  0.8195
 3671TIP3    H232573   0.684   3.191   1.598 -1.6251  2.0853 -0.0349
 3672TIP3   OH232574   4.102   6.419   0.888  0.2198 -0.1492  0.2775
 3672TIP3    H132575   4.108   6.348   0.824 -1.5170  0.8868 -1.1452
 3672TIP3    H232576   4.085   6.497   0.835  0.4143  1.0507  1.9160
 3673TIP3   OH232577   0.798   4.211   1.454  0.5007 -0.4146 -0.4154
 3673TIP3    H132578   0.728   4.208   1.389  1.2759 -0.8414 -1.2515
 3673TIP3    H232579   0.871   4.165   1.413  1.4673  0.5256  0.2020
 3674TIP3   OH232580   6.606   2.520   8.985  0.2727  0.3018  0.0387
 3674TIP3    H132581   6.624   2.537   9.078  0.7968  1.5146 -0.2584
 3674TIP3    H232582   6.532   2.576   8.963 -0.4221 -0.6296 -0.0866
 3675TIP3   OH232583   2.221   4.584   0.329  0.2171  0.4054 -0.3171
 3675TIP3    H132584   2.309   4.587   0.367 -0.1424 -0.6792  0.6418
 3675TIP3    H232585   2.162   4.597   0.403 -0.4550  1.1483 -0.9571
 3676TIP3   OH232586   2.077   5.938   8.294 -0.7522  0.0441  0.0543
 3676TIP3    H132587   2.038   5.947   8.207 -2.6239 -0.4492  0.7974
 3676TIP3    H232588   2.032   5.864   8.334  1.6860 -1.2531  0.6542
 3677TIP3   OH232589   5.273   3.439   7.409 -0.2390 -0.3026 -0.0518
 3677TIP3    H132590   5.219   3.512   7.438 -1.4941 -1.1111 -0.2764
 3677TIP3    H232591   5.309   3.468   7.325  1.4181  1.0624  1.0414
 3678TIP3   OH232592   4.426   5.000   2.622  0.1732 -0.2718 -0.0461
 3678TIP3    H132593   4.429   5.094   2.604 -0.7150 -0.0636  0.8472
 3678TIP3    H232594   4.468   4.991   2.707 -0.9415 -0.5104  0.4924
 3679TIP3   OH232595   2.899   2.801   1.343 -0.6405  0.1383 -0.6568
 3679TIP3    H132596   2.991   2.826   1.335 -0.8468  1.0027 -0.4561
 3679TIP3    H232597   2.900   2.722   1.397 -0.0787  0.7166  0.2029
 3680TIP3   OH232598   0.810   4.977   1.459 -0.3154  0.5220 -0.0116
 3680TIP3    H132599   0.849   4.890   1.466 -1.9573 -0.3225 -0.8243
 3680TIP3    H232600   0.861   5.020   1.390 -1.7472 -1.1527 -2.2649
 3681TIP3   OH232601   2.952   5.478   7.689  0.1598 -0.1352  0.1993
 3681TIP3    H132602   2.998   5.471   7.605 -1.2665  0.7420 -0.6736
 3681TIP3    H232603   2.949   5.572   7.707  0.8664 -0.3410  1.4925
 3682TIP3   OH232604   0.528   6.331   1.641  0.4691 -0.2208  0.5201
 3682TIP3    H132605   0.550   6.315   1.733  0.8532  1.7685  0.8167
 3682TIP3    H232606   0.433   6.343   1.641  0.3726 -0.9352  0.5251
 3683TIP3   OH232607   0.584   3.000   8.693  0.2382  0.1310 -0.5168
 3683TIP3    H132608   0.581   2.906   8.711  1.5569  0.4868  2.0254
 3683TIP3    H232609   0.678   3.021   8.688 -0.0374  1.2418 -1.6620
 3684TIP3   OH232610   4.267   2.143   2.379 -0.0018 -0.0002 -0.1429
 3684TIP3    H132611   4.320   2.073   2.418  1.2001  1.5863  1.2171
 3684TIP3    H232612   4.226   2.102   2.303  0.5613 -2.2075  0.6518
 3685TIP3   OH232613   4.569   5.989   1.143  0.6939  0.0696 -0.3783
 3685TIP3    H132614   4.579   6.051   1.215  0.1317 -0.7096  0.4001
 3685TIP3    H232615   4.646   5.932   1.148  0.0676 -0.7478  0.4037
 3686TIP3   OH232616   2.366   1.047   8.742  0.5787 -0.2443 -0.3136
 3686TIP3    H132617   2.317   0.967   8.758  0.0564 -0.2250 -1.7293
 3686TIP3    H232618   2.371   1.089   8.828 -0.9788 -0.7551  0.0545
 3687TIP3   OH232619   6.308   2.392   8.350  0.1909 -0.1939 -0.0644
 3687TIP3    H132620   6.398   2.423   8.351 -0.2591  1.2362 -0.9076
 3687TIP3    H232621   6.270   2.432   8.272 -1.9188  1.5011  1.6932
 3688TIP3   OH232622   2.238   3.804   7.757 -0.3290  0.0466  0.1934
 3688TIP3    H132623   2.229   3.716   7.793 -1.0996  0.1378  0.2456
 3688TIP3    H232624   2.148   3.835   7.747 -0.1327  0.2095 -1.3668
 3689TIP3   OH232625   5.288   3.348   8.916  0.3527  0.1655  0.1388
 3689TIP3    H132626   5.268   3.286   8.986  1.1928 -0.6571 -0.3212
 3689TIP3    H232627   5.251   3.431   8.946  2.1608  0.2599  2.3788
 3690TIP3   OH232628   3.944   0.410   8.934  0.0352 -0.1131 -0.1349
 3690TIP3    H132629   3.926   0.503   8.951  0.2917 -0.1139  0.1455
 3690TIP3    H232630   4.035   0.398   8.961 -0.2642 -0.6564  0.6824
 3691TIP3   OH232631   2.222   2.839   0.514 -0.0817 -0.4290 -0.1151
 3691TIP3    H132632   2.315   2.846   0.539 -0.9500  1.4235  3.1337
 3691TIP3    H232633   2.208   2.912   0.454  0.6361 -1.1348 -1.2003
 3692TIP3   OH232634   4.555   1.027   7.628  0.0542  0.4906  0.0401
 3692TIP3    H132635   4.517   0.952   7.673  0.7437 -0.1177 -0.3656
 3692TIP3    H232636   4.597   0.990   7.550 -0.4311  1.4211 -0.6886
 3693TIP3   OH232637   5.878   5.647   8.390  0.1865  0.0662 -0.3325
 3693TIP3    H132638   5.893   5.711   8.460 -2.4993  0.4747 -0.0079
 3693TIP3    H232639   5.787   5.662   8.363  0.4778 -1.5299 -2.4488
 3694TIP3   OH232640   5.459   2.829   0.479  0.1341  0.3958  0.2251
 3694TIP3    H132641   5.537   2.878   0.453  1.0464 -0.7768  0.6521
 3694TIP3    H232642   5.469   2.743   0.437 -1.1862  0.3814 -0.1146
 3695TIP3   OH232643   0.956   3.426   1.826  0.7530 -0.3506 -0.0298
 3695TIP3    H132644   0.981   3.469   1.744 -1.4513  0.5629 -0.2909
 3695TIP3    H232645   0.914   3.494   1.877  0.1166 -1.4403  0.9439
 3696TIP3   OH232646   3.058   4.182   2.324 -0.4249 -0.1720 -0.1836
 3696TIP3    H132647   2.990   4.138   2.273  0.1906  0.2008 -1.3686
 3696TIP3    H232648   3.054   4.141   2.411 -2.4939  0.2092 -0.0486
 3697TIP3   OH232649   0.416   3.620   7.881  0.0795 -0.4769 -0.1463
 3697TIP3    H132650   0.456   3.598   7.965 -0.7681  0.9882  0.6810
 3697TIP3    H232651   0.429   3.542   7.827  2.5924 -0.6818  0.5920
 3698TIP3   OH232652   3.501   4.617   1.415 -0.1142 -0.3722 -0.0922
 3698TIP3    H132653   3.554   4.537   1.419 -0.4525 -0.5603  1.8661
 3698TIP3    H232654   3.425   4.598   1.470 -1.2820  0.5674 -1.3254
 3699TIP3   OH232655   3.775   0.287   7.660  0.2365 -0.1301  0.0395
 3699TIP3    H132656   3.783   0.292   7.565  1.9364  2.6241  0.2054
 3699TIP3    H232657   3.702   0.344   7.682 -0.4496 -1.1169  0.3874
 3700TIP3   OH232658   2.290   2.130   1.885 -0.4606  0.0116 -0.4126
 3700TIP3    H132659   2.220   2.151   1.946  0.0193 -1.6455  0.7925
 3700TIP3    H232660   2.307   2.037   1.899  1.5189  0.2059 -1.1472
 3701TIP3   OH232661   2.632   6.657   9.010 -0.2560 -0.1529 -0.5647
 3701TIP3    H132662   2.674   6.719   8.950 -2.1830  2.8051  0.9100
 3701TIP3    H232663   2.539   6.661   8.988 -0.6753 -0.9541  0.9132
 3702TIP3   OH232664   5.631   2.284   8.445 -0.0911 -0.1091 -0.4218
 3702TIP3    H132665   5.567   2.221   8.479 -0.6396  0.9588  0.6054
 3702TIP3    H232666   5.672   2.320   8.523 -1.4100  2.4428 -0.8129
 3703TIP3   OH232667   1.146   4.490   1.570  0.6503  0.4283  0.0300
 3703TIP3    H132668   1.185   4.493   1.483 -0.1449  0.8664 -0.3133
 3703TIP3    H232669   1.210   4.534   1.626  0.8584  0.7429 -0.4478
 3704TIP3   OH232670   1.620   0.044   0.615  0.0990  0.1413 -0.3133
 3704TIP3    H132671   1.541   0.065   0.565  0.0708 -0.4054 -0.5113
 3704TIP3    H232672   1.691   0.088   0.569 -0.1467  1.0161  0.1298
 3705TIP3   OH232673   1.127   6.532   7.338  0.2156  0.5356  0.4599
 3705TIP3    H132674   1.108   6.616   7.295 -2.1917  0.4756  1.2585
 3705TIP3    H232675   1.069   6.470   7.295 -0.1753 -0.0948  1.8371
 3706TIP3   OH232676   1.160   5.289   0.784  0.1196  0.0576  0.1877
 3706TIP3    H132677   1.083   5.317   0.832 -0.1787  0.0339 -0.2697
 3706TIP3    H232678   1.139   5.307   0.692  0.1727 -1.0316 -0.0577
 3707TIP3   OH232679   2.347   6.407   0.502  0.5338  0.0833 -0.2539
 3707TIP3    H132680   2.440   6.419   0.521  0.4814 -0.4672  0.3821
 3707TIP3    H232681   2.304   6.482   0.544  0.7004  0.4489 -0.7217
 3708TIP3   OH232682   2.489   1.065   0.921 -0.3522  0.3341  0.1395
 3708TIP3    H132683   2.461   1.064   1.013 -0.4601  0.6100  0.1118
 3708TIP3    H232684   2.542   1.144   0.914  1.4329 -0.7868  0.4807
 3709TIP3   OH232685   5.403   3.808   2.630 -0.0495  0.4269  0.3220
 3709TIP3    H132686   5.490   3.796   2.666 -0.1114  1.1985  0.7537
 3709TIP3    H232687   5.417   3.850   2.545 -0.0227  0.9700  0.5958
 3710TIP3   OH232688   5.393   0.284   2.471 -0.3002 -0.2299  0.8633
 3710TIP3    H132689   5.426   0.281   2.561 -0.3008 -1.8905  0.8441
 3710TIP3    H232690   5.456   0.232   2.422 -0.9979 -0.4100  0.1476
 3711TIP3   OH232691   1.136   3.259   0.885  0.3753  0.3873  0.1149
 3711TIP3    H132692   1.214   3.220   0.846  0.2890  0.1437  0.1823
 3711TIP3    H232693   1.118   3.204   0.962  1.1413  1.4479  1.0962
 3712TIP3   OH232694   1.674   6.090   7.720  0.3551  0.1961 -0.5208
 3712TIP3    H132695   1.688   6.013   7.664  0.5019  0.9776 -1.5953
 3712TIP3    H232696   1.608   6.141   7.674  0.2839  0.7352  0.1673
 3713TIP3   OH232697   1.206   4.857   1.191 -0.0375  0.7865 -0.0660
 3713TIP3    H132698   1.278   4.822   1.243  0.9213  2.0818 -0.4833
 3713TIP3    H232699   1.247   4.893   1.112 -1.5346 -2.2123 -2.4320
 3714TIP3   OH232700   4.415   3.308   0.727 -0.5088  0.3879  0.6144
 3714TIP3    H132701   4.403   3.385   0.671  1.0475 -0.2714 -0.7159
 3714TIP3    H232702   4.393   3.234   0.671  1.0620 -0.2894  0.8456
 3715TIP3   OH232703   5.670   0.701   8.113  0.4384  0.0856  0.0029
 3715TIP3    H132704   5.580   0.667   8.115  0.7104 -0.6897 -0.7804
 3715TIP3    H232705   5.659   0.795   8.103 -0.2971  0.0964  0.7516
 3716TIP3   OH232706   0.521   4.638   8.647 -0.0721 -0.3057  0.1610
 3716TIP3    H132707   0.512   4.724   8.690 -1.3621 -0.9724  1.3173
 3716TIP3    H232708   0.591   4.650   8.583  0.2492  1.4175  0.7841
 3717TIP3   OH232709   0.583   5.411   8.908  0.0438 -0.0909  0.2955
 3717TIP3    H132710   0.598   5.329   8.957  0.4972 -0.2988 -0.1836
 3717TIP3    H232711   0.582   5.384   8.816 -1.2734  0.2339  0.1993
 3718TIP3   OH232712   0.735   5.505   0.641 -0.1660  0.2425 -0.1356
 3718TIP3    H132713   0.652   5.549   0.622 -1.0833 -0.8688  1.0927
 3718TIP3    H232714   0.749   5.447   0.566 -0.9777 -0.2182  0.0568
 3719TIP3   OH232715   4.854   3.405   0.614 -0.0022 -0.3730  0.2973
 3719TIP3    H132716   4.840   3.447   0.700  1.6003 -2.1359  1.4998
 3719TIP3    H232717   4.774   3.423   0.566 -0.1201  2.5085  1.3532
 3720TIP3   OH232718   0.757   2.321   8.111  0.0467  0.0942 -0.1619
 3720TIP3    H132719   0.790   2.341   8.023 -0.8231  1.0407 -0.2936
 3720TIP3    H232720   0.662   2.330   8.103  0.0616  3.2862  1.5572
 3721TIP3   OH232721   2.809   3.437   8.144  0.0699  0.4747 -0.6213
 3721TIP3    H132722   2.766   3.480   8.070  1.0770 -0.3629 -1.7262
 3721TIP3    H232723   2.769   3.350   8.147  0.6062  0.2247 -0.6904
 3722TIP3   OH232724   6.472   0.556   0.180  0.6183  0.5870  0.1212
 3722TIP3    H132725   6.450   0.565   0.273 -0.0251 -1.7054  0.2715
 3722TIP3    H232726   6.543   0.617   0.165  0.8149  0.9132  2.1652
 3723TIP3   OH232727   0.222   5.283   8.802  0.3710  0.1647  0.5629
 3723TIP3    H132728   0.142   5.260   8.848  0.7636 -0.4790  0.9383
 3723TIP3    H232729   0.217   5.379   8.792  0.6143  0.4327  2.6311
 3724TIP3   OH232730   4.172   5.140   0.205  0.3498  0.1154 -0.0251
 3724TIP3    H132731   4.135   5.175   0.124 -0.1734  0.7990  0.4988
 3724TIP3    H232732   4.140   5.050   0.209 -0.6500  0.4596  0.0352
 3725TIP3   OH232733   1.285   3.865   1.413  0.7501 -0.0836 -0.6325
 3725TIP3    H132734   1.367   3.858   1.462 -0.3509  0.2447  1.4098
 3725TIP3    H232735   1.284   3.956   1.383  1.2232 -0.1528 -0.8764
 3726TIP3   OH232736   5.611   0.877   8.779 -0.7309 -0.3625  0.3182
 3726TIP3    H132737   5.635   0.840   8.864 -0.3343  0.0399  0.3859
 3726TIP3    H232738   5.582   0.966   8.799  1.2029  0.4300 -0.1626
 3727TIP3   OH232739   1.927   0.024   0.121  0.1607  0.1778  0.5096
 3727TIP3    H132740   1.950  -0.055   0.071 -0.8753 -0.1148  0.4738
 3727TIP3    H232741   1.938  -0.001   0.212 -0.7258 -0.2027  0.5203
 3728TIP3   OH232742   2.478   2.507   0.761 -0.1073  0.0180  0.1314
 3728TIP3    H132743   2.388   2.526   0.735 -0.0437  1.1113  0.6421
 3728TIP3    H232744   2.529   2.514   0.680 -0.6399 -1.9637 -0.4293
 3729TIP3   OH232745   0.419   0.855   2.064 -0.0858  0.0648 -0.0701
 3729TIP3    H132746   0.365   0.924   2.026 -0.8043  0.2613  1.2397
 3729TIP3    H232747   0.431   0.881   2.156  0.4425 -1.0557  0.2000
 3730TIP3   OH232748   6.501   5.281   2.910 -0.3349  0.1315  0.3064
 3730TIP3    H132749   6.586   5.304   2.949  0.2956  0.6203 -1.2797
 3730TIP3    H232750   6.507   5.187   2.895  0.0899  0.2183 -0.1210
 3731TIP3   OH232751   0.820   2.388   2.226 -0.1918 -0.1599 -0.5101
 3731TIP3    H132752   0.809   2.335   2.304 -1.3585  0.4894 -0.2092
 3731TIP3    H232753   0.908   2.425   2.234  0.5873 -1.8736 -0.6507
 3732TIP3   OH232754   5.163   5.192   0.707  0.0290 -0.3978  0.7781
 3732TIP3    H132755   5.142   5.264   0.647 -0.6206  0.2613  1.7611
 3732TIP3    H232756   5.118   5.215   0.788 -0.4430 -2.0930  1.0251
 3733TIP3   OH232757   6.680   5.427   0.530  0.6300  0.3205  0.3188
 3733TIP3    H132758   6.647   5.378   0.605  0.1585  0.4927  0.2275
 3733TIP3    H232759   6.728   5.362   0.478 -0.5543 -0.2226 -0.1475
 3734TIP3   OH232760   4.459   3.995   7.800  0.1370 -0.0446 -0.0861
 3734TIP3    H132761   4.418   4.060   7.858 -1.2279 -0.5858 -0.4017
 3734TIP3    H232762   4.396   3.923   7.796  0.5140 -0.3261 -1.6813
 3735TIP3   OH232763   2.319   2.188   7.425 -0.1014  0.2405 -0.1309
 3735TIP3    H132764   2.254   2.254   7.399  0.3142  1.4696  1.7837
 3735TIP3    H232765   2.274   2.135   7.491  0.3077  0.0461 -0.0068
 3736TIP3   OH232766   1.108   1.139   1.020  0.3133 -0.3143  0.5310
 3736TIP3    H132767   1.083   1.087   1.096 -0.6172  0.7021  0.9411
 3736TIP3    H232768   1.027   1.150   0.971  0.0113  2.3706  1.4759
 3737TIP3   OH232769   3.713   2.784   8.273  0.7394 -0.4550  0.0843
 3737TIP3    H132770   3.754   2.772   8.358 -0.4136  0.5574  0.8275
 3737TIP3    H232771   3.656   2.860   8.285  0.0588 -0.6947 -1.4110
 3738TIP3   OH232772   5.901   0.318   9.054 -0.0129  0.0553  0.6918
 3738TIP3    H132773   5.928   0.295   8.966 -2.5423  0.4588 -0.2685
 3738TIP3    H232774   5.896   0.235   9.101 -1.0297 -0.4575 -0.2918
 3739TIP3   OH232775   1.372   2.715   7.530  0.2303  0.0411  0.0428
 3739TIP3    H132776   1.354   2.809   7.524  0.5812  0.0876 -0.3847
 3739TIP3    H232777   1.287   2.674   7.542 -0.0013  0.3628 -0.4795
 3740TIP3   OH232778   6.664   1.979   0.051 -0.3485  0.3613  0.4458
 3740TIP3    H132779   6.737   2.041   0.042 -1.0585  1.2072  0.4132
 3740TIP3    H232780   6.692   1.918   0.119  0.0832  1.1199  0.9555
 3741TIP3   OH232781   0.571   5.293   0.288  0.0485  0.2616  0.1342
 3741TIP3    H132782   0.508   5.265   0.355  0.4582  0.3710  0.5747
 3741TIP3    H232783   0.537   5.257   0.207  0.4068 -1.2944  0.6371
 3742TIP3   OH232784   2.634   0.970   1.746  0.4829  0.2558  0.6894
 3742TIP3    H132785   2.555   1.020   1.760  0.9758  1.8481 -1.6378
 3742TIP3    H232786   2.701   1.035   1.723  2.0682 -1.1648  1.0165
 3743TIP3   OH232787   2.734   3.717   7.836 -0.4374 -0.0333  0.0305
 3743TIP3    H132788   2.707   3.627   7.851  0.4030 -0.0895  1.3883
 3743TIP3    H232789   2.673   3.770   7.887  1.1161 -0.0903  2.0962
 3744TIP3   OH232790   6.706   0.962   7.903  0.3338  0.2593 -0.1301
 3744TIP3    H132791   6.680   0.872   7.885  0.6468  0.3179 -0.9148
 3744TIP3    H232792   6.691   1.008   7.821  0.7643  0.7905  0.0818
 3745TIP3   OH232793   5.576   3.127   8.930  0.1510 -0.1900 -0.1647
 3745TIP3    H132794   5.655   3.129   8.876 -0.1300 -1.5212 -0.6785
 3745TIP3    H232795   5.598   3.178   9.008  1.0329  0.6168 -0.9259
 3746TIP3   OH232796   3.203   5.977   1.619 -0.0988  0.3322 -0.5718
 3746TIP3    H132797   3.186   5.902   1.675 -2.2806 -0.0588 -1.6464
 3746TIP3    H232798   3.122   6.028   1.620  0.7458  1.7668 -1.2094
 3747TIP3   OH232799   0.644   6.452   1.225 -0.1517  0.3811  0.1655
 3747TIP3    H132800   0.619   6.541   1.203  3.1565  1.1315 -1.0514
 3747TIP3    H232801   0.683   6.459   1.313  1.7454  0.5425 -0.6497
 3748TIP3   OH232802   1.671   5.087   2.366  0.2445  0.1864  0.3772
 3748TIP3    H132803   1.629   5.144   2.302 -0.2373  0.5567  1.0162
 3748TIP3    H232804   1.603   5.068   2.430  0.4137 -1.0643  0.2115
 3749TIP3   OH232805   4.675   4.545   7.892 -0.5750 -0.1097 -0.5782
 3749TIP3    H132806   4.663   4.453   7.871 -1.1291 -0.1396 -0.1610
 3749TIP3    H232807   4.700   4.585   7.809  1.8303 -0.9772 -0.3291
 3750TIP3   OH232808   3.809   4.163   2.434  0.2373  0.4882 -0.7157
 3750TIP3    H132809   3.844   4.251   2.448  0.6471  0.4423 -1.4172
 3750TIP3    H232810   3.726   4.178   2.388  0.9556  0.4562 -2.0402
 3751TIP3   OH232811   5.101   3.789   8.630  0.9745  0.3478  0.5319
 3751TIP3    H132812   5.118   3.697   8.610  1.8336  0.3779  1.0642
 3751TIP3    H232813   5.092   3.831   8.545  2.7510  0.1448  0.1954
 3752TIP3   OH232814   3.140   0.113   2.761  0.1317  0.0953  0.0271
 3752TIP3    H132815   3.200   0.049   2.799  0.8444  0.6572 -0.1437
 3752TIP3    H232816   3.193   0.191   2.746  0.0814 -0.3140 -2.8256
 3753TIP3   OH232817   3.747   6.667   1.170 -0.5983 -0.2935  0.6982
 3753TIP3    H132818   3.819   6.726   1.188 -1.2353  0.3311  1.2542
 3753TIP3    H232819   3.760   6.640   1.079  0.5750 -0.5471  0.9219
 3754TIP3   OH232820   0.147   2.735   2.245 -0.1700 -0.1444  0.1398
 3754TIP3    H132821   0.158   2.664   2.309  0.2402  0.8025  1.1622
 3754TIP3    H232822   0.085   2.794   2.286  0.0802  0.4720 -0.3591
 3755TIP3   OH232823   2.428   5.264   0.485 -0.6835  0.8142  0.0518
 3755TIP3    H132824   2.388   5.210   0.553 -1.1734 -0.0949 -0.9349
 3755TIP3    H232825   2.509   5.219   0.462 -1.3063  0.2168 -1.0823
 3756TIP3   OH232826   1.872   1.646   8.687  0.2392  0.2826  0.4795
 3756TIP3    H132827   1.942   1.681   8.633 -0.1960 -0.2197 -0.4409
 3756TIP3    H232828   1.796   1.642   8.628 -0.1586 -0.5914  1.0291
 3757TIP3   OH232829   3.393   5.316   0.477  0.1164 -0.2059  0.0367
 3757TIP3    H132830   3.344   5.338   0.557  0.8583 -0.7925  0.6717
 3757TIP3    H232831   3.427   5.228   0.494 -1.0196 -1.0091 -1.5787
 3758TIP3   OH232832   5.057   5.503   8.755 -0.0276 -0.1653 -0.2726
 3758TIP3    H132833   5.009   5.443   8.813  1.2057 -0.0517  0.8961
 3758TIP3    H232834   4.996   5.518   8.682 -1.4342 -0.6761  0.7423
 3759TIP3   OH232835   6.334   1.021   8.238  0.0322  0.0334  0.6163
 3759TIP3    H132836   6.411   1.030   8.182  0.5748  3.5731  1.6983
 3759TIP3    H232837   6.308   1.111   8.258 -4.6101 -0.9662  0.1258
 3760TIP3   OH232838   4.473   3.511   2.369 -0.4225 -0.3137 -0.1857
 3760TIP3    H132839   4.381   3.532   2.380 -0.3567  0.3907 -0.8619
 3760TIP3    H232840   4.519   3.589   2.400 -0.1584  0.4842 -2.3635
 3761TIP3   OH232841   5.320   6.626   1.289 -0.5708 -0.5210  0.3780
 3761TIP3    H132842   5.317   6.532   1.271 -0.2087 -0.5173  0.3028
 3761TIP3    H232843   5.412   6.644   1.310 -0.8211 -0.3872  1.4576
 3762TIP3   OH232844   3.542   0.679   0.515  0.1300  0.2987 -0.0783
 3762TIP3    H132845   3.517   0.765   0.549  1.6983  1.0583 -0.7290
 3762TIP3    H232846   3.470   0.621   0.541 -0.6507  1.6588  0.9513
 3763TIP3   OH232847   1.556   0.385   7.685  0.3605 -0.1024 -0.3156
 3763TIP3    H132848   1.594   0.405   7.600  0.4664 -0.1489 -0.2789
 3763TIP3    H232849   1.625   0.404   7.748  1.2105 -2.5542 -0.4013
 3764TIP3   OH232850   2.586   1.996   1.717  0.3888 -0.3247  0.1107
 3764TIP3    H132851   2.526   1.955   1.655  0.2635 -0.6944  0.4792
 3764TIP3    H232852   2.623   2.070   1.668 -0.3028 -0.1406 -0.1442
 3765TIP3   OH232853   6.516   1.397   8.169  0.2243 -1.1989  0.0562
 3765TIP3    H132854   6.538   1.344   8.093 -2.3082 -0.7823 -1.0488
 3765TIP3    H232855   6.469   1.473   8.134 -0.3284 -0.5920  1.9594
 3766TIP3   OH232856   4.811   2.013   1.719 -0.8961  1.3047  0.4487
 3766TIP3    H132857   4.865   1.959   1.776 -0.7222 -2.8830 -3.1278
 3766TIP3    H232858   4.849   2.101   1.724  0.3519  0.7550  4.8505
 3767TIP3   OH232859   6.336   2.777   8.294 -1.2224  0.1733 -0.0765
 3767TIP3    H132860   6.318   2.737   8.209 -1.9030 -0.3577  0.3110
 3767TIP3    H232861   6.424   2.814   8.284 -1.2962  0.1346 -1.0124
 3768TIP3   OH232862   3.046   4.591   2.831  0.3580  0.2600  0.1268
 3768TIP3    H132863   3.085   4.514   2.789  1.1662  0.1651  1.0205
 3768TIP3    H232864   3.065   4.663   2.772  2.2626  0.2830  0.7165
 3769TIP3   OH232865   2.431   4.175   7.577  0.1897  0.3302 -0.4912
 3769TIP3    H132866   2.377   4.124   7.516 -1.0452  0.6888  0.2642
 3769TIP3    H232867   2.404   4.265   7.563  1.1992  0.6132 -0.6766
 3770TIP3   OH232868   2.198   5.962   3.314  0.1566  0.2667 -0.7350
 3770TIP3    H132869   2.290   5.977   3.291  1.2657 -1.1125  2.2547
 3770TIP3    H232870   2.181   6.025   3.385 -0.5728 -0.7497  0.0288
 3771TIP3   OH232871   5.014   0.464   8.865  0.9056  0.2231  0.7238
 3771TIP3    H132872   5.087   0.405   8.845  0.0701 -0.3758 -0.6910
 3771TIP3    H232873   4.979   0.489   8.780  0.8183  2.2820  1.3003
 3772TIP3   OH232874   1.494   6.498   7.957 -0.4232 -1.1810  0.0732
 3772TIP3    H132875   1.414   6.544   7.984  0.1910 -0.7948  1.2972
 3772TIP3    H232876   1.507   6.523   7.865 -0.0167  1.2555  0.7269
 3773TIP3   OH232877   6.062   2.310   1.750  0.4410  0.4729 -0.6127
 3773TIP3    H132878   6.090   2.383   1.805 -0.6018 -0.0770  0.6953
 3773TIP3    H232879   6.040   2.240   1.812  0.4399 -0.6135 -1.7916
 3774TIP3   OH232880   6.212   5.911   8.040  0.4904  0.1686  0.0508
 3774TIP3    H132881   6.179   5.831   8.082  0.5506 -0.4287 -0.9887
 3774TIP3    H232882   6.305   5.913   8.063  0.2396  0.5987  1.0687
 3775TIP3   OH232883   4.071   6.402   7.832 -0.3348 -0.2571  0.1494
 3775TIP3    H132884   4.037   6.483   7.795 -1.9998 -0.4540  1.1611
 3775TIP3    H232885   4.166   6.408   7.819 -0.6967 -0.0821 -3.5602
 3776TIP3   OH232886   4.146   3.638   1.549 -0.0429 -0.2924 -0.2779
 3776TIP3    H132887   4.054   3.612   1.544 -0.7490  2.0984 -1.2117
 3776TIP3    H232888   4.154   3.684   1.633 -0.2641  1.2276 -1.0448
 3777TIP3   OH232889   0.728   4.507   8.312  0.3516  0.1911  0.1214
 3777TIP3    H132890   0.749   4.601   8.308 -0.1389  0.2892 -0.3435
 3777TIP3    H232891   0.812   4.464   8.324  0.3653  0.8172  2.9688
 3778TIP3   OH232892   6.204   4.480   1.484 -0.1661  0.0234  0.1737
 3778TIP3    H132893   6.184   4.415   1.416 -0.5412  0.3795 -0.0606
 3778TIP3    H232894   6.282   4.524   1.452 -1.6480  1.7995 -1.2221
 3779TIP3   OH232895   3.754   2.779   0.628  0.2929 -0.1577 -0.8360
 3779TIP3    H132896   3.755   2.828   0.546  0.5429 -1.9131 -1.9325
 3779TIP3    H232897   3.663   2.784   0.658  0.0607 -0.0120 -1.5436
 3780TIP3   OH232898   6.023   1.980   7.609  0.2596 -0.5969 -0.3556
 3780TIP3    H132899   6.068   2.065   7.616  0.4983 -0.6959 -0.7099
 3780TIP3    H232900   6.052   1.944   7.526 -0.2005 -0.8238 -0.4216
 3781TIP3   OH232901   3.865   0.360   0.895 -0.2856  0.7326 -0.4189
 3781TIP3    H132902   3.911   0.425   0.948 -2.2556  0.6375  1.5799
 3781TIP3    H232903   3.809   0.411   0.838 -1.4970  0.8567  0.8315
 3782TIP3   OH232904   1.757   5.832   2.343 -0.0103 -0.0058 -0.1025
 3782TIP3    H132905   1.840   5.862   2.380  0.0021 -1.0187  0.7458
 3782TIP3    H232906   1.775   5.821   2.250  0.0927  2.1441 -0.3930
 3783TIP3   OH232907   1.517   6.723   2.471  0.3856 -0.0973 -0.1066
 3783TIP3    H132908   1.470   6.728   2.388  0.1726  0.2383  0.0293
 3783TIP3    H232909   1.571   6.645   2.464  0.3974 -0.0468 -0.5746
 3784TIP3   OH232910   5.539   1.554   0.862 -0.1574  0.3562 -0.4716
 3784TIP3    H132911   5.596   1.539   0.938 -0.4373 -1.2726 -0.5425
 3784TIP3    H232912   5.531   1.468   0.821 -0.2436  1.1461 -2.2033
 3785TIP3   OH232913   0.655   5.507   8.392 -0.0089  0.3479 -0.3164
 3785TIP3    H132914   0.565   5.477   8.379 -0.0214 -1.6214  3.1234
 3785TIP3    H232915   0.696   5.499   8.306 -2.2407 -2.0257 -1.2623
 3786TIP3   OH232916   2.592   4.691   0.521  0.4249 -0.4944 -0.3962
 3786TIP3    H132917   2.585   4.596   0.511  1.2455 -0.6293  0.1666
 3786TIP3    H232918   2.681   4.705   0.556 -0.2605  0.3411  1.1432
 3787TIP3   OH232919   6.525   0.574   8.780 -0.4329 -0.4648  0.4044
 3787TIP3    H132920   6.443   0.559   8.826 -1.5423  0.2902 -1.2386
 3787TIP3    H232921   6.505   0.556   8.688  0.9790  0.7068 -0.1719
 3788TIP3   OH232922   1.116   0.624   0.160  0.4785  0.4425 -0.1726
 3788TIP3    H132923   1.156   0.537   0.167  0.6826  0.5475 -0.0366
 3788TIP3    H232924   1.030   0.614   0.201  0.4288  0.2585 -0.3195
 3789TIP3   OH232925   6.146   5.266   7.401 -0.0721 -0.2723 -0.1992
 3789TIP3    H132926   6.076   5.213   7.365  1.7084 -3.0632  0.0980
 3789TIP3    H232927   6.226   5.221   7.374  1.5153  1.2253  1.7066
 3790TIP3   OH232928   1.207   4.337   1.081 -0.3994 -0.6919  0.3553
 3790TIP3    H132929   1.271   4.289   1.029 -1.4997 -0.0246 -1.7572
 3790TIP3    H232930   1.124   4.323   1.035 -1.7408 -1.2079  2.7788
 3791TIP3   OH232931   1.894   2.811   2.673  0.4601  0.2661  0.4013
 3791TIP3    H132932   1.942   2.728   2.664  0.6394  0.5140 -1.1267
 3791TIP3    H232933   1.944   2.860   2.738  1.1292 -0.2862  0.3154
 3792TIP3   OH232934   1.267   3.279   8.336  0.0807 -0.2183  0.2599
 3792TIP3    H132935   1.280   3.307   8.245 -0.5106 -0.5927  0.0517
 3792TIP3    H232936   1.183   3.233   8.335  0.5953 -1.2125  0.7607
 3793TIP3   OH232937   1.386   0.569   1.306 -0.4613  0.0507 -0.3586
 3793TIP3    H132938   1.458   0.565   1.369 -0.7929  0.2278  0.0401
 3793TIP3    H232939   1.338   0.487   1.318 -1.5208  0.8098  0.8462
 3794TIP3   OH232940   6.081   0.615   7.230 -0.2261 -0.3683  0.3531
 3794TIP3    H132941   5.998   0.639   7.189 -1.5972 -0.6871  2.7261
 3794TIP3    H232942   6.128   0.565   7.164 -0.9769  1.5811 -1.7858
 3795TIP3   OH232943   4.689   6.105   2.896  0.1146 -0.2754  0.2885
 3795TIP3    H132944   4.767   6.151   2.926  0.6681 -0.8146 -0.2894
 3795TIP3    H232945   4.721   6.019   2.868 -0.7813 -0.7271  0.6206
 3796TIP3   OH232946   3.904   3.309   8.498 -0.1083 -0.2547  0.1331
 3796TIP3    H132947   3.821   3.264   8.518  0.0495 -0.2652  0.8066
 3796TIP3    H232948   3.905   3.384   8.558 -0.8179  1.2254 -1.6320
 3797TIP3   OH232949   6.582   5.585   7.900  0.2331 -0.0051  0.7003
 3797TIP3    H132950   6.670   5.624   7.902  1.3773 -2.3796  0.0329
 3797TIP3    H232951   6.575   5.544   7.814 -1.2899 -0.4014  0.9776
 3798TIP3   OH232952   5.713   5.469   8.964 -0.4925  0.4237  0.2053
 3798TIP3    H132953   5.739   5.382   8.933 -2.1843  0.9089 -2.8877
 3798TIP3    H232954   5.684   5.454   9.054  0.8089 -1.8802  0.3236
 3799TIP3   OH232955   6.045   2.525   0.815 -0.9490  0.1041 -0.7175
 3799TIP3    H132956   6.107   2.452   0.817 -2.5372 -1.2929 -0.2957
 3799TIP3    H232957   6.073   2.582   0.887 -0.3948 -0.6948 -0.2850
 3800TIP3   OH232958   6.112   2.746   1.780 -0.0855  1.0450 -0.2514
 3800TIP3    H132959   6.077   2.684   1.845 -0.6307  1.1753 -0.4129
 3800TIP3    H232960   6.038   2.803   1.760  0.7949  2.7497  1.0593
 3801TIP3   OH232961   2.447   4.248   0.283  0.1426  0.6103  0.1538
 3801TIP3    H132962   2.514   4.182   0.269 -0.3623  0.1941 -0.3337
 3801TIP3    H232963   2.364   4.201   0.276 -0.2221  1.2591 -0.0151
 3802TIP3   OH232964   5.008   6.434   2.438 -0.7902 -0.0145 -0.7968
 3802TIP3    H132965   5.091   6.480   2.443 -1.0998  0.4024  1.0319
 3802TIP3    H232966   4.947   6.497   2.399 -0.8167  0.5443  0.1352
 3803TIP3   OH232967   3.534   1.168   7.695 -0.1869 -0.2293  0.0464
 3803TIP3    H132968   3.515   1.257   7.727  1.3569 -0.2099  0.9870
 3803TIP3    H232969   3.520   1.174   7.600  0.2436  1.1334  0.0363
 3804TIP3   OH232970   4.605   0.468   8.831  0.1261  0.0427 -0.8780
 3804TIP3    H132971   4.526   0.421   8.859 -1.0318  1.0903 -2.2683
 3804TIP3    H232972   4.585   0.500   8.744  1.4368  1.8534 -0.5684
 3805TIP3   OH232973   4.272   0.198   2.327 -0.6967 -0.2988  0.0831
 3805TIP3    H132974   4.222   0.150   2.262  0.2382 -1.5855  0.2868
 3805TIP3    H232975   4.351   0.227   2.281 -0.1089 -1.0734  0.5739
 3806TIP3   OH232976   4.155   3.596   7.051 -0.2125  0.4100  0.1562
 3806TIP3    H132977   4.097   3.630   7.119  0.5220 -0.6414  1.3601
 3806TIP3    H232978   4.238   3.582   7.095  0.5944  0.6744 -1.2262
 3807TIP3   OH232979   0.218   2.907   1.516  0.3793 -0.1914 -0.0193
 3807TIP3    H132980   0.186   2.839   1.576  0.1513  0.2815  0.4043
 3807TIP3    H232981   0.156   2.905   1.443  0.5405 -0.6355 -0.1468
 3808TIP3   OH232982   4.458   6.374   2.486 -0.1907  0.1712 -0.1513
 3808TIP3    H132983   4.487   6.358   2.576  0.1509 -0.3171 -0.3395
 3808TIP3    H232984   4.536   6.356   2.433 -0.8017 -1.1003 -0.6699
 3809TIP3   OH232985   6.357   5.275   8.957  0.1540  1.0330 -0.1083
 3809TIP3    H132986   6.374   5.325   9.036 -0.7511 -2.3221  2.4730
 3809TIP3    H232987   6.262   5.270   8.951  0.2151  0.9840 -1.2517
 3810TIP3   OH232988   6.136   5.540   7.730 -0.1752 -0.0649  0.3849
 3810TIP3    H132989   6.091   5.624   7.716  1.1747  1.0131  2.1539
 3810TIP3    H232990   6.218   5.550   7.681 -1.2450 -1.5844 -1.8878
 3811TIP3   OH232991   3.972   4.297   8.087  0.0925  0.5190  0.3239
 3811TIP3    H132992   3.913   4.372   8.098  0.6558  0.8814  1.0547
 3811TIP3    H232993   4.032   4.324   8.018 -1.3638 -0.3756 -1.3540
 3812TIP3   OH232994   1.423   2.794   8.054  0.4559 -0.0629 -0.3240
 3812TIP3    H132995   1.455   2.853   8.122  1.6670 -1.7401  0.6376
 3812TIP3    H232996   1.480   2.810   7.979  2.0742 -1.3322  0.5812
 3813TIP3   OH232997   4.364   1.591   8.652  0.2005 -0.7251 -0.7610
 3813TIP3    H132998   4.406   1.608   8.736  3.1713 -0.1178 -2.2405
 3813TIP3    H232999   4.324   1.505   8.663 -0.0449 -0.3886  1.4375
 3814TIP3   OH233000   0.042   5.679   0.506 -0.6893  0.1703 -0.1763
 3814TIP3    H133001   0.010   5.594   0.536  0.3953  0.0726  0.7824
 3814TIP3    H233002   0.025   5.680   0.412 -0.0982 -1.4021 -0.3214
 3815TIP3   OH233003   4.206   0.471   9.043  0.8158  0.2694  0.0940
 3815TIP3    H133004   4.262   0.543   9.014  1.0810 -0.5514 -1.5321
 3815TIP3    H233005   4.254   0.392   9.018  0.5416 -0.5088  1.8737
 3816TIP3   OH233006   2.770   5.163   0.009  0.3189 -0.2248 -0.6020
 3816TIP3    H133007   2.803   5.201   0.091 -0.6108 -0.4983 -0.0782
 3816TIP3    H233008   2.842   5.110  -0.024  0.4252 -0.7971  0.4933
 3817TIP3   OH233009   4.609   1.165   1.533  0.1936  0.4628 -0.0825
 3817TIP3    H133010   4.656   1.133   1.456 -0.6943  2.4848 -1.5421
 3817TIP3    H233011   4.652   1.248   1.555 -0.4861  0.6202  0.7069
 3818TIP3   OH233012   3.144   2.094   7.412  0.2505  0.0284  0.5589
 3818TIP3    H133013   3.135   2.159   7.342  1.5065 -0.7025 -0.3044
 3818TIP3    H233014   3.055   2.061   7.425 -0.0892  0.5699 -0.3028
 3819TIP3   OH233015   3.589   2.849   7.812  0.4370 -0.4999 -0.0844
 3819TIP3    H133016   3.646   2.773   7.827  0.4149 -0.3216  0.9833
 3819TIP3    H233017   3.649   2.918   7.784  0.3382 -1.1580 -2.0870
 3820TIP3   OH233018   3.929   4.777   3.198 -0.2236 -0.2779  0.0547
 3820TIP3    H133019   3.883   4.815   3.124 -0.8938 -0.7519  0.2198
 3820TIP3    H233020   3.880   4.808   3.275 -1.6694 -2.5579  0.1492
 3821TIP3   OH233021   4.422   4.859   0.209 -0.6672 -0.4007  0.0447
 3821TIP3    H133022   4.463   4.884   0.291 -0.1834  0.8027 -0.5330
 3821TIP3    H233023   4.419   4.940   0.158  1.3056 -1.5550 -2.0783
 3822TIP3   OH233024   1.247   4.976   8.365  0.3943  0.0667  0.0994
 3822TIP3    H133025   1.161   4.961   8.325  0.0855 -0.3687  0.8887
 3822TIP3    H233026   1.248   4.918   8.442  1.3067  0.2325  0.2280
 3823TIP3   OH233027   1.940   5.736   3.263 -0.1596  0.0828 -0.4246
 3823TIP3    H133028   1.987   5.794   3.203  1.2994  1.1676  1.6387
 3823TIP3    H233029   1.862   5.786   3.287  0.8897  1.1057  1.0305
 3824TIP3   OH233030   5.701   1.113   1.844 -0.0858  0.1431  0.2495
 3824TIP3    H133031   5.642   1.043   1.872  2.8713 -2.6126  0.1953
 3824TIP3    H233032   5.731   1.086   1.757  2.1112  0.7434  0.7528
 3825TIP3   OH233033   2.346   6.581   8.271  0.8287 -0.4204  0.1912
 3825TIP3    H133034   2.253   6.595   8.256  0.3702 -1.2839  1.9377
 3825TIP3    H233035   2.367   6.635   8.348  1.6562 -0.6023  0.1101
 3826TIP3   OH233036   1.367   1.734   1.097  0.3011  0.2491  0.0118
 3826TIP3    H133037   1.299   1.755   1.160  0.2579  0.2314 -0.0286
 3826TIP3    H233038   1.325   1.744   1.011  0.5393  0.8983 -0.0313
 3827TIP3   OH233039   5.295   0.056   3.287 -0.4331  0.2057  0.2769
 3827TIP3    H133040   5.334   0.141   3.308 -1.5672  0.8530 -0.1407
 3827TIP3    H233041   5.255   0.068   3.201  0.3688 -1.1101 -0.3193
 3828TIP3   OH233042   3.540   0.181   8.011 -0.2256 -0.3148 -0.0220
 3828TIP3    H133043   3.527   0.150   7.921  1.8472  0.4456 -0.6587
 3828TIP3    H233044   3.502   0.269   8.012 -0.4855 -0.4276 -0.0939
 3829TIP3   OH233045   6.233   2.715   0.968  0.4114 -0.2592 -0.3027
 3829TIP3    H133046   6.182   2.785   1.009 -0.6188 -0.5659 -0.9991
 3829TIP3    H233047   6.267   2.754   0.888  0.6596 -0.2727 -0.2046
 3830TIP3   OH233048   3.055   1.842   1.296  0.2864 -0.5511 -0.1194
 3830TIP3    H133049   3.041   1.930   1.261 -0.6603 -1.3064 -1.7651
 3830TIP3    H233050   3.067   1.855   1.390 -0.6618  1.2453 -0.2052
 3831TIP3   OH233051   5.400   3.622   8.739 -0.4503 -0.2371 -0.3614
 3831TIP3    H133052   5.309   3.592   8.742 -0.3216 -0.8161 -1.6549
 3831TIP3    H233053   5.412   3.671   8.821 -0.9567 -2.8071  1.3478
 3832TIP3   OH233054   0.078   3.335   7.816 -0.1132  0.2654 -0.1858
 3832TIP3    H133055   0.172   3.321   7.805  0.4500  2.7332  0.6782
 3832TIP3    H233056   0.051   3.383   7.738 -0.1859  1.2875  0.4427
 3833TIP3   OH233057   1.250   4.438   7.736  0.0344  0.0546  0.4710
 3833TIP3    H133058   1.239   4.369   7.670  2.8620 -0.6611  0.6333
 3833TIP3    H233059   1.213   4.516   7.694  0.5408 -0.6701 -1.4633
 3834TIP3   OH233060   6.306   3.253   0.663  0.3896 -0.3509 -0.3582
 3834TIP3    H133061   6.322   3.336   0.707  1.6359 -0.5035 -0.5063
 3834TIP3    H233062   6.214   3.258   0.636 -0.5144 -0.3433  2.4326
 3835TIP3   OH233063   1.813   3.261   7.565  0.2110 -0.2178 -0.0283
 3835TIP3    H133064   1.749   3.278   7.635  1.7211 -0.0303  1.3520
 3835TIP3    H233065   1.801   3.334   7.504 -0.9753 -0.2595  0.1298
 3836TIP3   OH233066   4.733   4.250   1.735 -0.0787 -0.4944  0.0723
 3836TIP3    H133067   4.670   4.247   1.807 -0.0172  1.7643  0.2994
 3836TIP3    H233068   4.702   4.321   1.679  0.9133 -0.9809 -1.1529
 3837TIP3   OH233069   2.234   2.209   8.133  0.1866 -0.0479 -0.0756
 3837TIP3    H133070   2.229   2.156   8.054 -0.1382 -0.0950 -0.0248
 3837TIP3    H233071   2.309   2.174   8.181  0.5543  0.1620 -0.4930
 3838TIP3   OH233072   3.509   6.723   7.559 -0.5176  0.3668  0.1709
 3838TIP3    H133073   3.500   6.812   7.524 -1.3361  0.5912  0.9030
 3838TIP3    H233074   3.471   6.728   7.647  0.4470 -0.4469  0.6516
 3839TIP3   OH233075   5.798   4.788   1.962 -0.5239  0.3282 -0.0315
 3839TIP3    H133076   5.840   4.863   1.921 -0.0049 -0.0851 -0.2664
 3839TIP3    H233077   5.871   4.731   1.987 -0.8581  0.3071  0.9472
 3840TIP3   OH233078   5.094   1.060   1.273 -0.1695 -0.3863 -0.3198
 3840TIP3    H133079   5.023   1.005   1.240  0.1668 -0.3067 -1.2166
 3840TIP3    H233080   5.174   1.021   1.236  0.2138 -0.2187  0.3186
 3841TIP3   OH233081   5.312   1.476   1.654 -0.0513  0.1466  0.0644
 3841TIP3    H133082   5.391   1.520   1.687 -1.1694  2.4431 -0.0704
 3841TIP3    H233083   5.272   1.438   1.732 -0.6615  2.1849  0.8150
 3842TIP3   OH233084   3.087   2.134   8.108 -0.2452 -0.0900 -0.0899
 3842TIP3    H133085   3.045   2.113   8.025  0.9444  0.9140 -0.9754
 3842TIP3    H233086   3.155   2.068   8.118 -0.5555 -0.3672  0.2321
 3843TIP3   OH233087   4.384   5.707   0.182 -0.1820  0.0540  0.6054
 3843TIP3    H133088   4.446   5.675   0.117  0.6741  0.3243  1.2607
 3843TIP3    H233089   4.329   5.631   0.203  0.1948 -0.3028  0.3093
 3844TIP3   OH233090   4.770   4.835   2.661  0.4395  0.2805 -0.7957
 3844TIP3    H133091   4.753   4.745   2.633  1.8721 -0.2832  0.0324
 3844TIP3    H233092   4.714   4.847   2.738  0.3179  0.0612 -0.8480
 3845TIP3   OH233093   0.156   2.146   0.121  1.1140 -0.1170 -0.0988
 3845TIP3    H133094   0.209   2.069   0.101  0.1236 -0.8247 -0.0868
 3845TIP3    H233095   0.143   2.189   0.037  2.5895  0.6791  0.0430
 3846TIP3   OH233096   3.992   6.390   8.371  0.4987 -0.2769 -0.7981
 3846TIP3    H133097   4.036   6.342   8.441 -1.1525 -0.9462 -0.1650
 3846TIP3    H233098   3.918   6.335   8.347 -0.3419  1.0715 -1.4149
 3847TIP3   OH233099   1.848   4.944   8.257 -0.8414  0.3053  0.6212
 3847TIP3    H133100   1.876   4.937   8.349 -0.0312 -1.0420  0.3014
 3847TIP3    H233101   1.882   4.865   8.216  0.6993  1.8959 -1.3542
 3848TIP3   OH233102   5.535   3.246   2.934 -0.8731  0.0030  0.2912
 3848TIP3    H133103   5.491   3.276   2.855  0.2708  0.4810 -0.1820
 3848TIP3    H233104   5.603   3.186   2.903  0.6276  1.3946  0.7312
 3849TIP3   OH233105   1.573   4.946   1.607  0.3760  0.4400  0.1623
 3849TIP3    H133106   1.635   4.943   1.534  0.0465  0.9464 -0.1501
 3849TIP3    H233107   1.592   5.028   1.652 -0.1724  0.6808 -0.0354
 3850TIP3   OH233108   5.590   4.990   0.125 -0.2228 -0.0784 -0.5714
 3850TIP3    H133109   5.513   5.041   0.150 -0.4202 -0.6805  0.0784
 3850TIP3    H233110   5.568   4.953   0.039 -0.4740  0.1163 -0.5918
 3851TIP3   OH233111   0.021   4.501   2.894 -0.0426 -0.0714 -0.2862
 3851TIP3    H133112  -0.025   4.426   2.858 -1.1890  0.3616  0.1995
 3851TIP3    H233113   0.113   4.487   2.873  0.2153 -3.0364  2.1819
 3852TIP3   OH233114   2.044   1.529   0.539  0.1701 -0.3805  0.1772
 3852TIP3    H133115   2.075   1.620   0.538  0.7257 -0.5731 -0.2480
 3852TIP3    H233116   2.029   1.508   0.447 -1.3111 -0.2747  0.3665
 3853TIP3   OH233117   6.011   1.117   8.346  0.0598 -0.0807  0.0988
 3853TIP3    H133118   6.073   1.189   8.356  0.1505 -0.1342 -0.0643
 3853TIP3    H233119   6.023   1.088   8.255 -1.1833  0.8045 -0.3803
 3854TIP3   OH233120   1.497   5.367   1.361  0.2923 -0.1617 -0.0951
 3854TIP3    H133121   1.576   5.314   1.375  0.4121  0.3274  1.2374
 3854TIP3    H233122   1.520   5.425   1.289  1.0684 -0.1924  0.1137
 3855TIP3   OH233123   1.189   5.937   7.799 -0.5551  0.0800 -0.3870
 3855TIP3    H133124   1.208   5.883   7.723  1.2551 -0.1729  0.1978
 3855TIP3    H233125   1.179   6.026   7.764  0.1387 -0.0524 -0.9324
 3856TIP3   OH233126   4.726   3.047   7.977  0.5189 -0.3992 -0.1889
 3856TIP3    H133127   4.812   3.040   7.935  1.1468 -1.0833  1.1342
 3856TIP3    H233128   4.736   2.999   8.059 -0.5456  1.1311  0.9000
 3857TIP3   OH233129   3.397   3.564   1.053 -0.0714  0.3153 -0.3888
 3857TIP3    H133130   3.334   3.591   0.986 -1.1960 -0.3277  0.3598
 3857TIP3    H233131   3.342   3.537   1.127  1.1348  1.5537  1.0153
 3858TIP3   OH233132   4.538   1.681   0.185  0.4043 -1.0650 -0.2702
 3858TIP3    H133133   4.449   1.711   0.168  0.9263  0.6516 -0.1499
 3858TIP3    H233134   4.589   1.717   0.113  1.2608 -0.7517  0.4863
 3859TIP3   OH233135   5.794   4.483   0.062 -0.0379  0.5029  0.4918
 3859TIP3    H133136   5.830   4.477  -0.026 -0.1476 -0.2932  0.4892
 3859TIP3    H233137   5.736   4.558   0.060 -1.0081 -0.2491 -0.4769
 3860TIP3   OH233138   0.690   2.514   7.318 -0.1500  0.2761  0.2144
 3860TIP3    H133139   0.767   2.538   7.370 -0.1881  1.3034 -0.1688
 3860TIP3    H233140   0.724   2.503   7.229 -0.2290 -0.6198  0.2849
 3861TIP3   OH233141   2.921   4.080   0.714 -0.0985  0.0756 -0.0045
 3861TIP3    H133142   2.944   4.056   0.803  0.2227 -0.4621 -0.2277
 3861TIP3    H233143   2.930   3.999   0.664 -0.3758  0.3459 -0.5054
 3862TIP3   OH233144   2.627   1.601   0.018 -1.0021  0.1825  0.1065
 3862TIP3    H133145   2.679   1.654   0.077 -0.3670 -0.6681  0.3377
 3862TIP3    H233146   2.567   1.553   0.075 -0.5155 -0.4987  0.0570
 3863TIP3   OH233147   1.097   5.342   2.581  0.1455  0.1970 -0.0867
 3863TIP3    H133148   1.017   5.368   2.626 -0.7813 -0.5216 -1.2571
 3863TIP3    H233149   1.161   5.328   2.651 -0.5586  1.3461  0.8355
 3864TIP3   OH233150   1.943   1.409   7.855  0.5733 -0.0455 -0.0747
 3864TIP3    H133151   2.016   1.451   7.901 -0.4069  1.2541  0.3432
 3864TIP3    H233152   1.944   1.449   7.767 -0.0671  0.5127  0.1674
 3865TIP3   OH233153   2.091   6.650   1.333  0.1415  0.3723  0.4935
 3865TIP3    H133154   2.015   6.698   1.301 -0.1841 -0.8047 -0.6260
 3865TIP3    H233155   2.158   6.717   1.347 -0.8955  1.3505  0.8873
 3866TIP3   OH233156   2.100   4.664   2.926 -0.1380  0.4895  0.0731
 3866TIP3    H133157   2.091   4.651   3.020 -0.5054 -0.2286 -0.0523
 3866TIP3    H233158   2.089   4.577   2.889 -1.3033  0.9551 -0.7309
 3867TIP3   OH233159   5.165   4.663   3.275  0.0116 -0.3083 -0.2568
 3867TIP3    H133160   5.091   4.622   3.230  0.1598  0.0551 -0.8406
 3867TIP3    H233161   5.221   4.590   3.301  0.9129 -0.4520 -2.3938
 3868TIP3   OH233162   5.527   2.515   7.077  0.0937 -0.1532 -0.0692
 3868TIP3    H133163   5.475   2.520   7.158 -1.0163 -1.3665 -0.6735
 3868TIP3    H233164   5.465   2.535   7.007  1.2063  1.6082 -0.6226
 3869TIP3   OH233165   5.566   1.201   1.269 -0.1750  0.3595 -0.3687
 3869TIP3    H133166   5.529   1.248   1.343  4.0799  2.9382  0.4599
 3869TIP3    H233167   5.574   1.267   1.200  0.9096 -0.5664 -1.1663
 3870TIP3   OH233168   5.776   6.190   8.965 -0.0365 -0.0859 -0.2863
 3870TIP3    H133169   5.811   6.191   9.054 -0.7059 -0.6313 -0.0056
 3870TIP3    H233170   5.803   6.105   8.929 -0.2362 -0.1014 -0.4034
 3871TIP3   OH233171   5.548   4.004   8.384  0.3652  0.8693  0.4336
 3871TIP3    H133172   5.500   4.022   8.464  0.6187  1.2923  0.4916
 3871TIP3    H233173   5.575   3.912   8.393 -0.7776  0.4944  0.2092
 3872TIP3   OH233174   5.412   1.360   0.043  0.4559 -0.6381 -0.5050
 3872TIP3    H133175   5.410   1.444   0.089 -0.9881 -1.1451  0.4449
 3872TIP3    H233176   5.336   1.363  -0.015 -0.2799 -1.6787  0.3453
 3873TIP3   OH233177   1.554   0.910   1.646  0.2684  0.2512 -0.2214
 3873TIP3    H133178   1.623   0.844   1.637 -0.3685 -1.0595  3.0691
 3873TIP3    H233179   1.600   0.993   1.647  1.3531 -0.2777 -1.9530
 3874TIP3   OH233180   0.492   1.068   8.103  0.1392 -0.5715 -0.0559
 3874TIP3    H133181   0.468   1.012   8.029  0.6792  0.2486 -0.8751
 3874TIP3    H233182   0.414   1.070   8.158 -0.5145 -0.6441 -0.9604
 3875TIP3   OH233183   6.049   5.379   0.404 -0.6319 -0.0119  0.1251
 3875TIP3    H133184   6.062   5.420   0.319  1.1572  2.7063  1.5626
 3875TIP3    H233185   6.076   5.288   0.392  2.6191  1.0278 -1.5206
 3876TIP3   OH233186   2.380   3.274   0.513  0.1318  0.5230  0.1889
 3876TIP3    H133187   2.326   3.276   0.591  0.3712  0.2212  0.3663
 3876TIP3    H233188   2.430   3.356   0.516  0.8148  0.0905  0.8417
 3877TIP3   OH233189   6.670   5.613   8.602  0.0165 -0.4644  0.2679
 3877TIP3    H133190   6.698   5.579   8.518 -1.4054 -2.2685  0.4524
 3877TIP3    H233191   6.743   5.595   8.661  0.3948 -0.6231 -0.2417
 3878TIP3   OH233192   4.639   4.607   1.489  0.6889 -1.6852 -0.0420
 3878TIP3    H133193   4.652   4.608   1.584  0.3503 -0.2086  0.0158
 3878TIP3    H233194   4.579   4.534   1.474 -3.1258  0.7514  1.5167
 3879TIP3   OH233195   1.441   2.048   8.052  0.3114  0.0863  0.2085
 3879TIP3    H133196   1.391   2.118   8.009  2.2300  0.2384 -1.9464
 3879TIP3    H233197   1.522   2.090   8.080  1.5625 -1.2340 -1.2454
 3880TIP3   OH233198   1.055   5.109   8.786  0.1715 -0.4291  0.6392
 3880TIP3    H133199   1.059   5.178   8.720 -2.1687 -0.2372  0.6294
 3880TIP3    H233200   1.080   5.029   8.740 -0.5373 -0.1452 -0.2590
 3881TIP3   OH233201   1.367   0.317   1.005  0.1722 -0.0574  0.0296
 3881TIP3    H133202   1.309   0.255   0.962  1.3608 -1.4377  0.3361
 3881TIP3    H233203   1.417   0.357   0.934  2.5102 -2.7176  0.0137
 3882TIP3   OH233204   4.017   3.681   0.435 -0.6792 -0.2950  0.3120
 3882TIP3    H133205   3.967   3.722   0.364 -0.0812 -0.9516 -0.5133
 3882TIP3    H233206   4.013   3.587   0.415  0.9830 -0.3508  0.1555
 3883TIP3   OH233207   5.979   2.264   8.908 -0.0483  0.5413  0.1235
 3883TIP3    H133208   6.037   2.209   8.855 -0.3720  0.2333  0.0751
 3883TIP3    H233209   5.910   2.290   8.847 -0.5394  0.0098  0.4363
 3884TIP3   OH233210   2.886   4.816   7.819 -0.0354 -0.2396  0.2268
 3884TIP3    H133211   2.825   4.851   7.883 -1.0989  0.3477 -1.0580
 3884TIP3    H233212   2.945   4.888   7.799  0.5475 -0.5401  0.7998
 3885TIP3   OH233213   5.466   2.777   7.803 -0.1674 -0.0397  0.0731
 3885TIP3    H133214   5.483   2.740   7.716 -0.7418  1.4182 -0.6970
 3885TIP3    H233215   5.545   2.759   7.853  0.9527  0.7522 -1.3470
 3886TIP3   OH233216   0.102   3.342   0.028  0.2380 -0.1143 -0.1772
 3886TIP3    H133217   0.059   3.360   0.111  1.6262 -1.3435  0.8805
 3886TIP3    H233218   0.081   3.417  -0.027 -1.2423  0.4316  1.0591
 3887TIP3   OH233219   6.179   3.057   7.563 -0.2385 -0.0742  0.4157
 3887TIP3    H133220   6.203   3.106   7.642 -1.1945 -0.0268  0.6876
 3887TIP3    H233221   6.091   3.024   7.582 -0.5862  0.1636 -0.7402
 3888TIP3   OH233222   3.328   6.661   2.837 -0.1089  0.0242 -0.1784
 3888TIP3    H133223   3.290   6.599   2.899  0.3562  0.8529  0.9957
 3888TIP3    H233224   3.421   6.636   2.832  0.4997  1.6300  1.6986
 3889TIP3   OH233225   0.224   5.532   9.097  0.2463 -0.1378 -0.0462
 3889TIP3    H133226   0.218   5.614   9.049 -1.2397  0.9276  1.7845
 3889TIP3    H233227   0.318   5.518   9.109  0.5315  1.8512  0.4372
 3890TIP3   OH233228   5.443   4.838   0.951 -0.4425  0.7523  0.5171
 3890TIP3    H133229   5.476   4.748   0.954 -2.0105  0.1315  0.4392
 3890TIP3    H233230   5.442   4.866   1.043  0.4410  0.8522  0.5013
 3891TIP3   OH233231   5.775   2.371   2.098  0.2261  0.0932  0.0438
 3891TIP3    H133232   5.813   2.432   2.162 -0.7874  3.2024 -2.0487
 3891TIP3    H233233   5.694   2.341   2.139  0.0233  1.3340  0.5937
 3892TIP3   OH233234   4.257   6.128   1.053 -0.5846  0.2656 -0.4731
 3892TIP3    H133235   4.224   6.176   0.977  0.1565  1.2782 -0.1764
 3892TIP3    H233236   4.351   6.122   1.039 -0.4414  0.4468  0.3396
 3893TIP3   OH233237   4.735   4.218   2.731  0.0299  0.1408 -0.3625
 3893TIP3    H133238   4.643   4.191   2.737  0.1425 -0.1709  0.0364
 3893TIP3    H233239   4.759   4.241   2.820  0.5666 -0.5549 -0.3193
 3894TIP3   OH233240   4.082   3.309   8.819 -0.3200  0.2753 -0.0931
 3894TIP3    H133241   4.154   3.364   8.850 -0.0203 -0.3085  0.2670
 3894TIP3    H233242   4.009   3.329   8.879 -0.1733  0.1876  0.1157
 3895TIP3   OH233243   0.819   5.533   8.964 -0.5047 -0.4526 -0.5672
 3895TIP3    H133244   0.730   5.508   8.940 -1.4265  0.9181  1.2007
 3895TIP3    H233245   0.831   5.621   8.929 -0.9634  0.5529  1.6517
 3896TIP3   OH233246   0.509   5.328   1.840 -0.3519 -0.7376  0.1256
 3896TIP3    H133247   0.486   5.421   1.832  0.5453 -0.6376 -1.8862
 3896TIP3    H233248   0.497   5.309   1.932 -0.5891  1.3790  0.5966
 3897TIP3   OH233249   1.097   1.226   7.727  0.4163  0.4248  0.1493
 3897TIP3    H133250   1.045   1.158   7.768  1.3008  0.0383  0.6593
 3897TIP3    H233251   1.106   1.198   7.636 -2.0759  1.5993 -0.5410
 3898TIP3   OH233252   6.580   5.001   0.291  0.5387 -0.4417  0.0139
 3898TIP3    H133253   6.546   5.001   0.380 -0.5419 -0.9631 -0.3829
 3898TIP3    H233254   6.589   5.094   0.269 -0.7210 -0.2674  0.1210
 3899TIP3   OH233255   3.009   5.525   9.033 -0.3033 -0.1033  0.4890
 3899TIP3    H133256   3.029   5.432   9.037  1.3875  0.1778 -0.2415
 3899TIP3    H233257   3.093   5.566   9.014 -1.0272  1.5720  0.7303
 3900TIP3   OH233258   5.592   2.145   7.383  0.4419  0.5263 -0.2604
 3900TIP3    H133259   5.652   2.210   7.419  0.4775  0.1668  0.3572
 3900TIP3    H233260   5.538   2.193   7.321  0.3416  1.1858  0.3326
 3901TIP3   OH233261   2.764   0.365   2.205 -0.2865 -0.2585  0.1596
 3901TIP3    H133262   2.725   0.361   2.118  0.1641  0.7928 -0.1047
 3901TIP3    H233263   2.793   0.275   2.223 -0.5618 -0.5224 -0.6790
 3902TIP3   OH233264   4.057   0.548   7.351  0.0747 -0.2094 -0.3447
 3902TIP3    H133265   3.964   0.570   7.347  0.1545  0.1070 -0.5342
 3902TIP3    H233266   4.067   0.474   7.292  0.1713  0.6030 -1.3773
 3903TIP3   OH233267   3.583   2.202   8.460  0.1569  0.1017 -0.2199
 3903TIP3    H133268   3.523   2.270   8.490  0.7645  0.4125  0.3098
 3903TIP3    H233269   3.621   2.238   8.380 -0.0682  0.0684 -0.3435
 3904TIP3   OH233270   5.133   2.401   6.649 -0.2896 -0.2375 -0.0502
 3904TIP3    H133271   5.167   2.314   6.668  2.2006 -0.0762 -3.0791
 3904TIP3    H233272   5.185   2.459   6.705 -0.3362 -0.5148  0.2826
 3905TIP3   OH233273   5.768   3.224   6.949  0.3042 -0.4418 -0.3112
 3905TIP3    H133274   5.806   3.286   6.887 -0.1742 -0.8128 -0.9905
 3905TIP3    H233275   5.678   3.254   6.962 -0.2754 -1.5786 -1.4796
 3906TIP3   OH233276   0.007   2.768   0.602 -0.1126  0.1150 -0.5703
 3906TIP3    H133277   0.058   2.807   0.673 -2.7091  0.3353  1.3245
 3906TIP3    H233278  -0.007   2.839   0.539 -2.6690  1.7476  1.6269
 3907TIP3   OH233279   0.730   4.768   8.533  0.1512  0.1358 -0.2604
 3907TIP3    H133280   0.776   4.760   8.616 -1.1020 -0.4602  0.4026
 3907TIP3    H233281   0.773   4.841   8.489  1.4431 -0.1288  0.4930
 3908TIP3   OH233282   0.095   0.223   9.071 -0.1980 -0.0287 -0.1400
 3908TIP3    H133283   0.185   0.190   9.072 -0.2609 -0.1786  0.7508
 3908TIP3    H233284   0.058   0.197   9.155 -0.9263  0.4583 -0.2974
 3909TIP3   OH233285   0.306   4.290   0.520  0.6921  0.3274  0.0945
 3909TIP3    H133286   0.365   4.215   0.528  0.8307  0.5857  1.9537
 3909TIP3    H233287   0.359   4.364   0.549 -0.8262  0.3701  3.2017
 3910TIP3   OH233288   1.744   1.567   8.145  0.2351 -0.2878  0.1326
 3910TIP3    H133289   1.826   1.521   8.123 -0.9170 -2.2992 -0.1869
 3910TIP3    H233290   1.679   1.498   8.151 -1.7390  1.3941 -0.8659
 3911TIP3   OH233291   2.293   4.200   1.243  0.0790  0.0758 -0.2603
 3911TIP3    H133292   2.300   4.230   1.333 -2.1568  0.0247 -0.0246
 3911TIP3    H233293   2.309   4.105   1.248  1.8928  0.3479 -0.2454
 3912TIP3   OH233294   3.345   6.006   8.776  0.5594  0.4033 -0.2097
 3912TIP3    H133295   3.405   5.931   8.766  1.4368  1.1246 -0.5160
 3912TIP3    H233296   3.337   6.041   8.688 -3.0086 -1.6247 -0.8808
 3913TIP3   OH233297   6.249   4.542   6.887 -0.2798 -0.1373  0.1206
 3913TIP3    H133298   6.291   4.475   6.941 -2.4906  0.6027  2.9733
 3913TIP3    H233299   6.171   4.499   6.851  1.2476 -0.6796 -2.8626
 3914TIP3   OH233300   4.998   4.807   8.020 -0.0193  0.5226  0.4195
 3914TIP3    H133301   4.924   4.868   8.017 -0.9838 -0.6275 -0.0989
 3914TIP3    H233302   5.000   4.777   8.111 -0.8068 -0.1521  0.2242
 3915TIP3   OH233303   5.676   6.358   1.630 -0.2490 -0.3485  0.1472
 3915TIP3    H133304   5.722   6.301   1.569 -0.6808 -0.7205  0.1613
 3915TIP3    H233305   5.733   6.362   1.707  1.1712  1.5707 -0.9367
 3916TIP3   OH233306   6.618   6.651   2.235 -0.0318  0.3021 -0.2910
 3916TIP3    H133307   6.551   6.690   2.178  0.3496  2.0129  0.3508
 3916TIP3    H233308   6.595   6.682   2.322  0.6866 -0.4028  0.1546
 3917TIP3   OH233309   2.613   0.916   8.513  0.2424  0.2265 -0.3756
 3917TIP3    H133310   2.523   0.898   8.487  0.1434 -1.3226  0.9015
 3917TIP3    H233311   2.606   0.985   8.579  0.2027  1.5825 -1.7414
 3918TIP3   OH233312   3.500   5.709   0.834  0.2877  0.2659 -0.4920
 3918TIP3    H133313   3.537   5.690   0.748  0.4005  0.0788 -0.4021
 3918TIP3    H233314   3.411   5.741   0.816 -0.3258 -1.4257 -0.5801
 3919TIP3   OH233315   0.990   4.351   8.844  0.0785 -0.1724  0.2901
 3919TIP3    H133316   1.030   4.278   8.892 -0.0114  0.3226  1.1346
 3919TIP3    H233317   0.965   4.414   8.912  0.3137  0.7278 -0.4294
 3920TIP3   OH233318   6.536   0.124   8.713 -0.5279 -0.6529 -0.2613
 3920TIP3    H133319   6.489   0.049   8.749 -1.9409 -0.7785 -2.2071
 3920TIP3    H233320   6.540   0.186   8.786  1.4362 -2.8483  1.6652
 3921TIP3   OH233321   1.259   0.678   7.616  0.0054  0.3584 -0.0160
 3921TIP3    H133322   1.172   0.710   7.593 -0.0004 -0.5204 -1.3166
 3921TIP3    H233323   1.247   0.634   7.701 -0.5448  1.3080  0.4111
 3922TIP3   OH233324   4.151   5.531   0.465  0.0992  0.6180 -0.4857
 3922TIP3    H133325   4.156   5.494   0.377  0.3254 -0.7292  0.0589
 3922TIP3    H233326   4.120   5.458   0.520  0.7682  1.1765  0.6808
 3923TIP3   OH233327   1.002   3.054   1.767  0.0436  0.4110  0.3698
 3923TIP3    H133328   0.918   3.095   1.790 -0.0199  0.8615 -0.5729
 3923TIP3    H233329   0.994   3.038   1.673  1.9264  2.7248 -0.2764
 3924TIP3   OH233330   5.710   0.429   2.265  0.5613  0.1640  0.1716
 3924TIP3    H133331   5.667   0.506   2.227  0.1138  0.6442  1.5962
 3924TIP3    H233332   5.803   0.444   2.250  0.5670  1.5592  1.3828
 3925TIP3   OH233333   6.646   0.793   8.672 -0.2219  0.1028 -0.3312
 3925TIP3    H133334   6.599   0.723   8.717  0.3875  1.0646  1.9250
 3925TIP3    H233335   6.578   0.856   8.648 -0.4576 -0.0501 -0.0664
 3926TIP3   OH233336   2.629   6.403   0.622  0.4551  0.0552  0.1486
 3926TIP3    H133337   2.613   6.311   0.645  0.0601  0.2633  0.7279
 3926TIP3    H233338   2.723   6.407   0.605  0.4026 -0.5507 -0.3373
 3927TIP3   OH233339   1.074   3.157   8.783 -0.2215 -0.0484  0.2188
 3927TIP3    H133340   1.007   3.220   8.810  0.0168  1.2993 -2.0750
 3927TIP3    H233341   1.089   3.103   8.861 -1.2732  1.9811  1.9314
 3928TIP3   OH233342   2.286   0.497   2.407  0.3191 -0.0479  0.0232
 3928TIP3    H133343   2.303   0.495   2.313  2.4577  0.4417  0.3489
 3928TIP3    H233344   2.253   0.409   2.427  1.7393 -0.8477 -0.9092
 3929TIP3   OH233345   3.246   5.315   8.399  0.2519  0.0230 -0.0472
 3929TIP3    H133346   3.247   5.272   8.485 -1.8154  0.7354  0.4045
 3929TIP3    H233347   3.221   5.245   8.338  0.0631 -0.1255  0.1986
 3930TIP3   OH233348   0.773   4.725   1.752 -0.3102 -0.4525  0.3368
 3930TIP3    H133349   0.855   4.750   1.708 -0.4963 -0.0783  0.2042
 3930TIP3    H233350   0.722   4.806   1.756 -0.2379 -0.4557  1.3667
 3931TIP3   OH233351   2.642   3.716   1.761  0.1028  0.2147 -0.6021
 3931TIP3    H133352   2.609   3.640   1.810 -0.9438 -0.4828 -2.2776
 3931TIP3    H233353   2.737   3.706   1.763  0.0189 -0.5578  0.0888
 3932TIP3   OH233354   5.092   2.257   1.899 -0.0363  0.4738  0.2383
 3932TIP3    H133355   5.168   2.313   1.913 -0.7137  1.3351  0.5105
 3932TIP3    H233356   5.074   2.218   1.984 -0.2992  0.7841  0.3257
 3933TIP3   OH233357   0.764   6.647   7.717 -0.5526 -0.7934  0.4749
 3933TIP3    H133358   0.716   6.565   7.704 -1.0448 -0.9696  2.8075
 3933TIP3    H233359   0.797   6.641   7.807 -0.2365  1.3746  0.5620
 3934TIP3   OH233360   0.039   6.190   0.626 -0.0917  0.1815  0.6821
 3934TIP3    H133361   0.108   6.256   0.632 -0.6958  0.7663  1.3169
 3934TIP3    H233362   0.065   6.136   0.552  0.8770  0.5896  0.6982
 3935TIP3   OH233363   5.005   0.683   7.647  0.5321 -0.6185  0.1751
 3935TIP3    H133364   4.933   0.744   7.662  0.2268 -0.9329 -0.0034
 3935TIP3    H233365   5.078   0.739   7.619  0.2422 -0.3405 -0.0415
 3936TIP3   OH233366   1.780   1.020   0.477  0.6028  0.9100  0.2851
 3936TIP3    H133367   1.838   1.047   0.548  0.6580 -0.7140  0.9101
 3936TIP3    H233368   1.836   0.973   0.416  0.0299 -0.6062  0.8538
 3937TIP3   OH233369   3.034   5.041   7.725 -0.2790  0.0480  0.3868
 3937TIP3    H133370   2.985   5.021   7.645  1.8721 -2.7988 -0.3771
 3937TIP3    H233371   3.087   5.118   7.701 -0.0827 -0.4207 -0.7564
 3938TIP3   OH233372   2.361   1.475   7.664  0.6525 -0.5604  0.0248
 3938TIP3    H133373   2.278   1.456   7.620 -1.1211 -0.5996  3.0255
 3938TIP3    H233374   2.407   1.534   7.605 -3.1585  2.4722 -0.3566
 3939TIP3   OH233375   1.153   2.033   0.126 -0.3332 -0.1460  0.2433
 3939TIP3    H133376   1.136   2.034   0.031 -1.4995 -1.0903  0.4223
 3939TIP3    H233377   1.246   2.011   0.133  0.0190  0.9303 -0.6947
 3940TIP3   OH233378   4.651   1.165   0.010 -0.4573 -0.5441 -0.4116
 3940TIP3    H133379   4.694   1.123  -0.064  0.0339  0.5059 -0.7473
 3940TIP3    H233380   4.720   1.173   0.076  0.2869  2.2043 -1.3814
 3941TIP3   OH233381   0.770   3.541   8.033 -0.0167  0.5141 -0.2088
 3941TIP3    H133382   0.777   3.496   8.117 -0.1728  1.3257  0.2467
 3941TIP3    H233383   0.745   3.631   8.055  0.7787  0.9710 -1.0648
 3942TIP3   OH233384   5.544   1.635   2.131 -0.2715  0.0647  0.1157
 3942TIP3    H133385   5.467   1.582   2.112  0.0039  0.1144 -1.2313
 3942TIP3    H233386   5.611   1.571   2.158 -0.2495 -0.1844 -0.4984
 3943TIP3   OH233387   4.565   5.918   2.423 -0.5272  0.0552  0.5649
 3943TIP3    H133388   4.546   5.974   2.498 -1.3353  0.4982  0.0451
 3943TIP3    H233389   4.657   5.895   2.432  0.1879  2.4816  0.1284
 3944TIP3   OH233390   1.391   4.476   0.670 -0.5525  0.3752 -0.0715
 3944TIP3    H133391   1.391   4.419   0.593  2.9459  0.2742 -0.1739
 3944TIP3    H233392   1.413   4.563   0.636  1.6994  0.2059  0.7483
 3945TIP3   OH233393   4.565   6.314   2.202 -0.1060 -0.7614 -0.1939
 3945TIP3    H133394   4.604   6.293   2.117 -1.2101 -2.1041 -0.4013
 3945TIP3    H233395   4.482   6.266   2.203 -0.4373 -0.2134  1.3666
 3946TIP3   OH233396   5.933   4.520   1.769 -0.4126 -0.4517 -0.1235
 3946TIP3    H133397   5.841   4.510   1.793 -0.2708 -2.6365 -0.2456
 3946TIP3    H233398   5.932   4.534   1.674 -0.5937 -3.0286 -0.5744
 3947TIP3   OH233399   6.100   0.315   8.596 -0.1090  0.0906  0.2797
 3947TIP3    H133400   6.183   0.274   8.575 -0.8604 -1.5045  0.2529
 3947TIP3    H233401   6.112   0.407   8.574  1.2658 -0.3115 -0.7854
 3948TIP3   OH233402   6.123   0.904   2.531 -0.0297  0.0913 -0.1783
 3948TIP3    H133403   6.055   0.945   2.478  0.3068  1.4148  0.3747
 3948TIP3    H233404   6.204   0.920   2.483  0.3093  1.5081  0.7963
 3949TIP3   OH233405   2.435   0.473   0.396 -0.2126  0.0088  0.2401
 3949TIP3    H133406   2.521   0.442   0.368 -0.5633 -0.9397  0.1795
 3949TIP3    H233407   2.394   0.504   0.315 -0.2545 -0.3532  0.1184
 3950TIP3   OH233408   2.608   1.329   0.928 -0.3393  0.2745  0.3854
 3950TIP3    H133409   2.640   1.390   0.862  1.6255 -2.1621 -1.1017
 3950TIP3    H233410   2.580   1.384   1.001 -1.0904  3.0031 -1.8091
 3951TIP3   OH233411   2.578   1.282   7.505 -0.4860 -0.2179 -0.1731
 3951TIP3    H133412   2.483   1.292   7.494 -0.3603  1.5598  0.0069
 3951TIP3    H233413   2.601   1.212   7.444 -1.9348 -0.8291 -0.0754
 3952TIP3   OH233414   5.709   1.274   6.658 -0.0812 -0.4304  0.0758
 3952TIP3    H133415   5.672   1.191   6.629 -0.1843 -0.2070 -0.4371
 3952TIP3    H233416   5.803   1.256   6.671 -0.0548 -0.5599 -0.2920
 3953TIP3   OH233417   2.167   3.730   2.429  0.1786  0.2685  0.5448
 3953TIP3    H133418   2.159   3.678   2.349  0.0670  1.0081  0.0732
 3953TIP3    H233419   2.114   3.682   2.493  1.6300 -1.2511  0.6658
 3954TIP3   OH233420   6.534   4.892   8.222  0.6041  0.4685 -0.3209
 3954TIP3    H133421   6.566   4.849   8.301  0.6831  1.3753  0.1479
 3954TIP3    H233422   6.530   4.822   8.157 -2.4855 -1.0598  1.2934
 3955TIP3   OH233423   3.552   0.466   7.667  0.3622  1.2536  0.0333
 3955TIP3    H133424   3.520   0.555   7.653 -0.7117  0.9617  0.5356
 3955TIP3    H233425   3.487   0.426   7.725  0.6822  0.0505 -0.4118
 3956TIP3   OH233426   3.372   0.169   1.794  0.1274 -0.1301  0.1888
 3956TIP3    H133427   3.300   0.108   1.809 -0.1886 -1.3205 -4.6345
 3956TIP3    H233428   3.447   0.128   1.837 -1.0169 -1.4153  1.0485
 3957TIP3   OH233429   6.029   3.918   2.880 -0.7173  0.1551 -0.1291
 3957TIP3    H133430   5.998   3.869   2.804  0.9458  1.6551 -1.8816
 3957TIP3    H233431   6.021   4.010   2.854  1.2364  0.6781  0.9190
 3958TIP3   OH233432   1.163   2.777   0.767  0.1084 -0.3443 -0.6605
 3958TIP3    H133433   1.223   2.851   0.780 -2.5399  1.6271  1.6963
 3958TIP3    H233434   1.086   2.816   0.725 -0.7474 -2.1009 -0.7883
 3959TIP3   OH233435   6.178   1.047   9.076 -0.5859 -0.1632 -0.1329
 3959TIP3    H133436   6.228   0.970   9.102  1.9436  1.5801  0.5554
 3959TIP3    H233437   6.242   1.103   9.032 -1.8945  2.2311  0.8095
 3960TIP3   OH233438   5.263   6.221   8.405  0.2643 -0.3732  0.0502
 3960TIP3    H133439   5.267   6.301   8.457 -1.0436  0.2927 -0.8166
 3960TIP3    H233440   5.355   6.200   8.386  0.6095  1.1987 -0.1160
 3961TIP3   OH233441   4.045   1.670   2.432  0.4502 -0.0826  0.3010
 3961TIP3    H133442   3.959   1.706   2.412  0.3806  0.4682  1.5154
 3961TIP3    H233443   4.101   1.699   2.360 -0.0098  0.9227  0.3395
 3962TIP3   OH233444   1.307   2.261   7.924 -0.1912 -0.1080  0.3077
 3962TIP3    H133445   1.213   2.264   7.907 -0.4016 -2.8687  0.4324
 3962TIP3    H233446   1.344   2.332   7.873 -2.2978  0.7520 -0.1010
 3963TIP3   OH233447   5.064   2.230   8.985  0.2611  0.2567  0.0215
 3963TIP3    H133448   5.076   2.311   8.935  0.0932 -0.4529 -1.2108
 3963TIP3    H233449   4.972   2.232   9.013 -0.1765 -0.2255 -1.3375
 3964TIP3   OH233450   5.916   3.012   7.653  0.3378  0.2741  0.3485
 3964TIP3    H133451   5.897   3.063   7.732 -1.9564  0.1957 -0.0821
 3964TIP3    H233452   5.870   3.059   7.583 -0.0462 -1.1872 -0.4274
 3965TIP3   OH233453   1.391   1.829   6.977  0.1626  0.1366  0.1055
 3965TIP3    H133454   1.457   1.897   6.994  1.2393 -0.5258 -1.2634
 3965TIP3    H233455   1.376   1.789   7.063  0.2876  1.3900  0.7486
 3966TIP3   OH233456   4.285   2.454   0.520 -0.5957 -0.2419  0.5422
 3966TIP3    H133457   4.296   2.549   0.521  1.1790 -0.4033 -0.0120
 3966TIP3    H233458   4.356   2.421   0.575 -1.3510 -1.2419  0.9463
 3967TIP3   OH233459   4.633   4.480   0.523 -0.1063 -0.7518 -0.5496
 3967TIP3    H133460   4.556   4.529   0.549  0.4362 -1.1490  2.0022
 3967TIP3    H233461   4.704   4.544   0.521 -0.0578 -0.8071 -0.6585
 3968TIP3   OH233462   6.680   2.611   1.653  0.4246  0.0155 -0.0467
 3968TIP3    H133463   6.630   2.530   1.644  1.0612 -0.6221  1.8037
 3968TIP3    H233464   6.769   2.588   1.624  0.7253 -0.1053  0.9388
 3969TIP3   OH233465   2.884   0.895   0.068  0.1776  0.4559 -0.6060
 3969TIP3    H133466   2.869   0.957   0.139  0.2623  1.6246 -1.5685
 3969TIP3    H233467   2.973   0.915   0.037  0.2070 -0.1542 -0.9277
 3970TIP3   OH233468   0.912   4.740   8.724  0.1767 -0.0079 -0.4143
 3970TIP3    H133469   0.911   4.701   8.811 -1.4143  0.7126 -0.0769
 3970TIP3    H233470   1.005   4.758   8.707  0.6045 -1.0292  0.7187
 3971TIP3   OH233471   3.483   5.899   1.645 -0.1549 -0.8101 -0.3329
 3971TIP3    H133472   3.549   5.945   1.593  0.0882  0.5152  1.0718
 3971TIP3    H233473   3.399   5.931   1.610  0.0119  0.5017  0.4051
 3972TIP3   OH233474   6.341   6.202   8.600  0.4564 -0.8073  0.7754
 3972TIP3    H133475   6.336   6.233   8.510 -0.3893 -0.2055  1.0114
 3972TIP3    H233476   6.330   6.282   8.653  0.0908 -1.2620  1.3973
 3973TIP3   OH233477   5.439   3.778   0.634 -0.0534 -0.0108 -0.0089
 3973TIP3    H133478   5.462   3.843   0.569  0.2465 -0.7452 -0.6581
 3973TIP3    H233479   5.363   3.733   0.598  0.4089 -0.7469 -0.0968
 3974TIP3   OH233480   2.693   2.821   8.229  0.0530 -0.2293  0.2197
 3974TIP3    H133481   2.669   2.808   8.138 -0.1826 -0.5550  0.3259
 3974TIP3    H233482   2.769   2.879   8.226 -0.3301  0.2572 -0.1483
 3975TIP3   OH233483   6.298   2.524   1.145 -0.0413  0.4653 -0.2183
 3975TIP3    H133484   6.287   2.538   1.051 -1.1727 -2.3506 -0.5729
 3975TIP3    H233485   6.209   2.519   1.179  0.1660 -3.4293  0.1091
 3976TIP3   OH233486   4.898   4.660   0.781  0.5180  0.3545  0.5192
 3976TIP3    H133487   4.909   4.587   0.719  0.6756  1.0718 -0.3239
 3976TIP3    H233488   4.815   4.700   0.754  0.2074  0.2230  1.2687
 3977TIP3   OH233489   0.337   4.403   2.265 -0.2052  0.2712 -0.0749
 3977TIP3    H133490   0.384   4.349   2.329  0.2098  0.5665 -0.1257
 3977TIP3    H233491   0.394   4.479   2.252 -0.5347  0.4625 -0.4047
 3978TIP3   OH233492   1.197   1.464   1.294 -0.6947  0.1070 -0.0649
 3978TIP3    H133493   1.262   1.517   1.341  0.3258  0.3654 -1.6872
 3978TIP3    H233494   1.233   1.375   1.296 -0.2988  0.2368 -0.8992
 3979TIP3   OH233495   6.164   6.291   0.875  0.1334 -0.1121 -0.3694
 3979TIP3    H133496   6.169   6.311   0.969  1.2085  0.6904 -0.5841
 3979TIP3    H233497   6.121   6.368   0.837 -2.4838 -1.4061 -0.2837
 3980TIP3   OH233498   1.632   1.831   8.157  0.1521  0.4627 -0.0816
 3980TIP3    H133499   1.708   1.883   8.181  0.3183  0.1686  0.0258
 3980TIP3    H233500   1.660   1.740   8.168 -0.1524  0.3505 -0.2231
 3981TIP3   OH233501   1.577   6.292   1.619 -0.9927  0.0779 -0.1217
 3981TIP3    H133502   1.630   6.230   1.670 -1.6349 -0.0872  0.3552
 3981TIP3    H233503   1.526   6.237   1.560 -0.0561  0.2829 -1.1640
 3982TIP3   OH233504   0.001   6.013   8.498 -0.3255 -0.1755 -0.1089
 3982TIP3    H133505   0.054   5.938   8.472 -1.1856 -1.3237  1.3289
 3982TIP3    H233506   0.013   6.076   8.427  0.8002 -1.4599 -1.1178
 3983TIP3   OH233507   4.307   3.814   0.599  0.3454  0.5416  0.1755
 3983TIP3    H133508   4.219   3.840   0.626 -0.8780 -2.7901 -0.1796
 3983TIP3    H233509   4.298   3.791   0.506  1.5348 -0.0430  0.1890
 3984TIP3   OH233510   5.456   5.117   2.455 -0.2523  0.0516  0.2272
 3984TIP3    H133511   5.404   5.163   2.390 -2.4954 -0.9193  1.2128
 3984TIP3    H233512   5.540   5.102   2.413 -1.0269  0.9713 -1.7703
 3985TIP3   OH233513   5.277   4.268   1.091 -0.2953  0.1736  0.0414
 3985TIP3    H133514   5.313   4.335   1.150  0.8941 -0.6332  0.2705
 3985TIP3    H233515   5.264   4.313   1.008  1.3285  0.5077 -0.0623
 3986TIP3   OH233516   0.791   4.185   7.944  0.1295  0.2285 -0.0086
 3986TIP3    H133517   0.699   4.181   7.969  0.4687  0.6005  1.3959
 3986TIP3    H233518   0.804   4.275   7.914  0.0803  0.2368 -0.0051
 3987TIP3   OH233519   5.298   0.852   2.903  0.1316 -0.5452 -0.0010
 3987TIP3    H133520   5.236   0.850   2.830 -0.2568 -2.8296  0.3282
 3987TIP3    H233521   5.252   0.897   2.973 -0.7774 -1.3070 -0.0976
 3988TIP3   OH233522   3.991   1.521   0.946  0.3119  0.4173 -0.2783
 3988TIP3    H133523   3.944   1.440   0.925 -1.1184  1.0050  0.5184
 3988TIP3    H233524   4.054   1.495   1.013  1.6361 -0.5087 -1.7967
 3989TIP3   OH233525   5.399   1.600   0.168  0.4165 -0.0145 -0.5517
 3989TIP3    H133526   5.494   1.597   0.181  0.3087  0.8026  0.5986
 3989TIP3    H233527   5.375   1.690   0.190 -0.4041  0.3396 -2.6236
 3990TIP3   OH233528   6.136   6.657   8.703  0.1172 -0.3730 -0.4489
 3990TIP3    H133529   6.080   6.582   8.687 -1.2115  0.7184 -1.1264
 3990TIP3    H233530   6.117   6.682   8.793 -0.8817  0.2663 -0.8129
 3991TIP3   OH233531   2.805   2.177   0.023  0.4764 -0.3604 -0.4511
 3991TIP3    H133532   2.793   2.220  -0.061 -0.3753  1.3812  0.5204
 3991TIP3    H233533   2.866   2.233   0.071 -0.3639 -0.3892  0.7024
 3992TIP3   OH233534   5.495   1.028   0.050 -0.3526 -0.1144 -0.4484
 3992TIP3    H133535   5.486   0.934   0.068  0.7785 -0.4415 -1.4868
 3992TIP3    H233536   5.547   1.061   0.123 -0.5601 -0.3228 -0.2001
 3993TIP3   OH233537   2.712   4.078   7.697 -0.6015  0.3128  0.9807
 3993TIP3    H133538   2.767   4.153   7.721 -0.1616  0.7799 -1.3043
 3993TIP3    H233539   2.775   4.010   7.674 -0.9631  0.4421 -0.4445
 3994TIP3   OH233540   1.877   1.703   0.813 -0.2344  0.1727  0.4464
 3994TIP3    H133541   1.949   1.641   0.825 -0.7544 -0.4600  0.4320
 3994TIP3    H233542   1.799   1.653   0.840 -0.5775  1.0832  1.1567
 3995TIP3   OH233543   5.903   4.942   1.790 -0.4560  0.1615  0.1778
 3995TIP3    H133544   5.877   5.034   1.789 -2.1738 -0.2357  2.0403
 3995TIP3    H233545   5.872   4.907   1.707 -1.3794  0.8743  0.2146
 3996TIP3   OH233546   4.873   4.962   0.703  0.3720 -0.2246 -0.6653
 3996TIP3    H133547   4.865   5.041   0.650 -0.8679 -0.7174 -1.2670
 3996TIP3    H233548   4.962   4.964   0.737  0.3231  1.5034 -0.5392
 3997TIP3   OH233549   2.821   4.732   3.096 -0.2352  0.0866  0.1987
 3997TIP3    H133550   2.906   4.747   3.137  0.2674 -0.2310 -0.7119
 3997TIP3    H233551   2.786   4.820   3.082  0.0635  0.2246  0.3066
 3998TIP3   OH233552   0.324   6.472   2.245  0.6456  0.2021 -0.0442
 3998TIP3    H133553   0.242   6.472   2.196  0.4411  1.8242  0.2378
 3998TIP3    H233554   0.373   6.398   2.209 -0.0204  0.5508 -1.7844
 3999TIP3   OH233555   2.358   6.699   2.928  0.9342  1.1528 -0.5082
 3999TIP3    H133556   2.407   6.652   2.996 -0.2473 -0.2953 -0.6023
 3999TIP3    H233557   2.426   6.738   2.873  1.9645  0.4432  0.2047
 4000TIP3   OH233558   5.756   2.480   1.360 -0.7599 -0.9370 -0.2968
 4000TIP3    H133559   5.796   2.523   1.435  1.2745 -1.6872 -0.8993
 4000TIP3    H233560   5.667   2.516   1.357 -0.2252  0.6619  1.2080
 4001TIP3   OH233561   0.485   1.790   9.009  0.2363  0.8584 -0.3375
 4001TIP3    H133562   0.551   1.791   9.078 -0.4906  3.4160  0.4513
 4001TIP3    H233563   0.504   1.712   8.957  1.8809 -0.1932  1.7222
 4002TIP3   OH233564   2.869   3.961   2.213  0.1103  0.2398 -0.0200
 4002TIP3    H133565   2.836   3.902   2.146 -1.7523  0.2038  0.8700
 4002TIP3    H233566   2.870   3.909   2.293 -0.4186  1.0620  0.5346
 4003TIP3   OH233567   0.742   1.019   0.071 -0.1197 -0.4729  0.4233
 4003TIP3    H133568   0.676   1.079   0.035  1.7899  1.9476  0.7190
 4003TIP3    H233569   0.809   1.013   0.003  1.5757  0.9113  1.8847
 4004TIP3   OH233570   6.618   1.508   8.380 -0.2594 -0.1407 -0.2903
 4004TIP3    H133571   6.578   1.460   8.307  0.2269  0.5948 -1.0631
 4004TIP3    H233572   6.712   1.496   8.368 -0.1819 -0.3305  0.4479
 4005TIP3   OH233573   2.169   0.551   3.336 -0.2580  0.5923 -0.0157
 4005TIP3    H133574   2.118   0.489   3.285  0.6179 -1.1754  1.1369
 4005TIP3    H233575   2.218   0.497   3.398  0.1767  2.4764  1.4072
 4006TIP3   OH233576   1.658   4.029   8.467 -0.0655 -0.2450 -0.0336
 4006TIP3    H133577   1.625   4.084   8.538 -0.9371 -1.0595  0.2000
 4006TIP3    H233578   1.749   4.011   8.490  0.2329  1.0476 -0.0937
 4007TIP3   OH233579   5.672   3.788   8.527 -0.1438  0.0932 -0.5206
 4007TIP3    H133580   5.696   3.840   8.605 -0.0405 -1.0389  0.2264
 4007TIP3    H233581   5.756   3.768   8.485  0.2218 -2.4897  1.2006
 4008TIP3   OH233582   2.261   4.552   2.333  0.6389  0.1543  0.3877
 4008TIP3    H133583   2.302   4.638   2.329  0.2213  0.3378 -0.0075
 4008TIP3    H233584   2.169   4.570   2.352  0.1168 -0.0655 -1.6769
 4009TIP3   OH233585   5.260   4.263   7.787  0.0122  0.3479 -0.0966
 4009TIP3    H133586   5.307   4.262   7.703 -0.1057 -0.0570 -0.1599
 4009TIP3    H233587   5.168   4.266   7.762  0.0013  1.1892  0.0284
 4010TIP3   OH233588   3.866   0.066   2.834 -0.2567  0.3561  0.3859
 4010TIP3    H133589   3.814   0.053   2.755 -0.4179  1.8761  0.2008
 4010TIP3    H233590   3.820   0.017   2.902 -0.3231 -0.6632 -0.3712
 4011TIP3   OH233591   3.753   5.448   0.430  0.1377  0.0421  0.0755
 4011TIP3    H133592   3.829   5.442   0.372  0.0748  0.2045 -0.0265
 4011TIP3    H233593   3.689   5.388   0.392  0.1951 -0.0518  0.1285
 4012TIP3   OH233594   2.762   5.781   1.599  0.5331 -0.2631 -0.5313
 4012TIP3    H133595   2.761   5.839   1.676 -1.9551  1.3859 -1.6781
 4012TIP3    H233596   2.847   5.798   1.558  0.1645  2.1239 -0.4549
 4013TIP3   OH233597   5.346   1.748   8.873 -0.4763 -0.1133  0.3830
 4013TIP3    H133598   5.433   1.748   8.914 -0.2200 -1.3270 -0.1090
 4013TIP3    H233599   5.320   1.840   8.871  0.5731  0.2101  1.0181
 4014TIP3   OH233600   4.119   2.065   7.606 -0.2282  0.0236  0.3844
 4014TIP3    H133601   4.123   1.970   7.616  0.7911  0.1850  1.8097
 4014TIP3    H233602   4.094   2.078   7.515  1.1046 -1.5982 -0.2785
 4015TIP3   OH233603   4.380   4.662   0.562  0.8584 -0.3379 -0.0201
 4015TIP3    H133604   4.319   4.729   0.532  1.8343  0.4995 -0.1905
 4015TIP3    H233605   4.328   4.582   0.567  0.0103  0.1153 -1.2279
 4016TIP3   OH233606   6.429   3.570   8.464 -0.0644  0.1636  0.3000
 4016TIP3    H133607   6.494   3.608   8.522 -0.1340 -0.0289  0.5046
 4016TIP3    H233608   6.345   3.588   8.507 -0.1073 -0.0883  0.3219
 4017TIP3   OH233609   3.563   6.456   7.565  0.2074  0.1618  0.0486
 4017TIP3    H133610   3.596   6.456   7.655 -0.5517 -0.3604  0.3396
 4017TIP3    H233611   3.564   6.548   7.540  0.4047  0.3177  0.6045
 4018TIP3   OH233612   3.889   2.553   1.888  0.0281  0.3753  0.0790
 4018TIP3    H133613   3.830   2.499   1.941 -0.7300  1.8099  0.7497
 4018TIP3    H233614   3.890   2.510   1.802 -2.5521  0.6672 -0.1673
 4019TIP3   OH233615   5.729   4.985   2.471 -0.4295  0.2523 -0.0041
 4019TIP3    H133616   5.704   4.940   2.390  0.2935 -0.3352  0.0850
 4019TIP3    H233617   5.822   5.002   2.460 -0.2675 -0.0920  0.8321
 4020TIP3   OH233618   0.522   0.415   7.664 -0.2830 -0.2986  0.3979
 4020TIP3    H133619   0.493   0.382   7.579  2.4931  0.1452 -0.8220
 4020TIP3    H233620   0.600   0.362   7.685  0.4206  1.1289  1.5399
 4021TIP3   OH233621   0.329   2.279   8.765  0.2107  0.0588 -0.5211
 4021TIP3    H133622   0.387   2.350   8.788  0.3900  0.2091 -1.3945
 4021TIP3    H233623   0.358   2.205   8.818  0.6826  0.3517 -0.3720
 4022TIP3   OH233624   0.639   4.450   2.720 -0.1138 -0.3154  0.3878
 4022TIP3    H133625   0.677   4.495   2.795  0.7780 -0.5178  0.0730
 4022TIP3    H233626   0.677   4.362   2.723 -0.8644 -0.6496  0.2816
 4023TIP3   OH233627   5.224   6.116   8.799 -0.1820 -0.3591  0.0113
 4023TIP3    H133628   5.143   6.107   8.749 -0.1765 -1.4194  0.1674
 4023TIP3    H233629   5.224   6.208   8.827 -0.9308 -0.1400 -0.6519
 4024TIP3   OH233630   1.070   6.212   1.996 -0.4458  0.1151 -0.0769
 4024TIP3    H133631   1.077   6.135   2.052  0.7014  0.2127 -0.0614
 4024TIP3    H233632   1.110   6.185   1.913  0.7305  0.9283  0.2018
 4025TIP3   OH233633   1.785   3.928   0.041 -0.4392  0.4413  0.3059
 4025TIP3    H133634   1.839   4.005   0.023 -0.1137  0.1750  0.1214
 4025TIP3    H233635   1.795   3.913   0.135  2.0810 -1.2515 -0.1441
 4026TIP3   OH233636   3.542   0.126   0.520  0.5622  0.1690  0.2605
 4026TIP3    H133637   3.501   0.175   0.449  0.0296 -0.1608  0.3392
 4026TIP3    H233638   3.522   0.176   0.599 -0.6664 -0.5897  0.4425
 4027TIP3   OH233639   3.021   4.071   0.980  0.1647  0.2936  0.2392
 4027TIP3    H133640   2.975   4.116   1.051 -0.5651 -0.4935  0.2822
 4027TIP3    H233641   3.069   4.001   1.022 -1.2273 -0.9351 -0.1339
 4028TIP3   OH233642   4.576   3.198   6.791 -0.2679 -0.2504  0.1515
 4028TIP3    H133643   4.572   3.278   6.842 -1.9052 -0.2900  0.1219
 4028TIP3    H233644   4.545   3.129   6.850 -0.3598 -0.6081 -0.3003
 4029TIP3   OH233645   5.386   4.052   1.913  0.8694 -0.2013  0.2436
 4029TIP3    H133646   5.412   3.990   1.981 -0.1649 -0.6210  0.2834
 4029TIP3    H233647   5.337   3.999   1.850 -0.5498  0.6571  0.5806
 4030TIP3   OH233648   0.165   5.163   7.668 -0.2994 -0.4059  0.2959
 4030TIP3    H133649   0.192   5.182   7.757  1.5056 -0.9228 -0.1140
 4030TIP3    H233650   0.176   5.069   7.658  1.2007 -0.1455 -0.9612
 4031TIP3   OH233651   5.981   5.234   8.130 -0.1543 -0.7775  0.0985
 4031TIP3    H133652   5.915   5.291   8.169  0.1520 -0.5220  0.2418
 4031TIP3    H233653   6.013   5.282   8.054  1.5056  0.1303  1.3059
 4032TIP3   OH233654   0.207   6.476   0.474 -0.2580 -0.0322  0.2492
 4032TIP3    H133655   0.273   6.409   0.457 -0.4942  0.1184 -1.5051
 4032TIP3    H233656   0.158   6.482   0.392 -2.4122 -0.0886  1.4518
 4033TIP3   OH233657   0.213   4.473   1.815  0.1882 -0.1024 -0.3294
 4033TIP3    H133658   0.197   4.415   1.741  0.6372 -0.4427 -0.1645
 4033TIP3    H233659   0.130   4.519   1.828 -0.8072 -2.1101  0.7786
 4034TIP3   OH233660   4.544   0.618   0.410  0.5705  0.5032  0.2178
 4034TIP3    H133661   4.463   0.615   0.359  0.0409  0.0902  1.0460
 4034TIP3    H233662   4.610   0.653   0.351  0.8478 -3.1633 -1.9596
 4035TIP3   OH233663   5.372   6.052   8.043 -0.2130 -0.0049  0.2734
 4035TIP3    H133664   5.380   6.145   8.064  0.0635 -0.1587  0.8637
 4035TIP3    H233665   5.444   6.036   7.981 -0.9080  0.4012 -0.6714
 4036TIP3   OH233666   3.754   2.807   2.363 -0.0421  0.0386  0.5763
 4036TIP3    H133667   3.845   2.780   2.374 -0.3070 -0.6544  1.1540
 4036TIP3    H233668   3.718   2.748   2.298 -0.0611  0.3556  0.2974
 4037TIP3   OH233669   6.393   1.244   0.125  0.2698  0.0276 -0.5279
 4037TIP3    H133670   6.318   1.297   0.097  1.5175  0.9227 -2.4367
 4037TIP3    H233671   6.410   1.272   0.215  0.6871  2.7388 -1.3532
 4038TIP3   OH233672   6.373   0.471   2.142  0.4348 -0.2457 -0.4909
 4038TIP3    H133673   6.418   0.387   2.129 -1.0420 -0.9604 -1.2034
 4038TIP3    H233674   6.300   0.468   2.081  1.0344  2.1006 -1.3980
 4039TIP3   OH233675   0.959   3.490   1.280  0.3174 -0.1485 -0.9152
 4039TIP3    H133676   1.045   3.532   1.279  0.0623  0.3992 -0.5883
 4039TIP3    H233677   0.947   3.458   1.190  0.3910  0.7596 -1.2629
 4040TIP3   OH233678   2.157   0.169   8.075  0.1684  0.3642 -0.0401
 4040TIP3    H133679   2.062   0.171   8.068 -0.0613 -2.4548  1.1324
 4040TIP3    H233680   2.175   0.180   8.168  1.0238  1.0621 -0.2717
 4041TIP3   OH233681   6.670   6.246   8.318  0.1070 -0.2138 -0.3486
 4041TIP3    H133682   6.750   6.292   8.345  0.7750 -2.0802  1.0689
 4041TIP3    H233683   6.610   6.316   8.292  1.7544  1.3154 -0.2387
 4042TIP3   OH233684   2.596   5.732   8.554  0.5584  0.2880 -0.2148
 4042TIP3    H133685   2.643   5.649   8.555  0.9860  0.5283  0.5010
 4042TIP3    H233686   2.522   5.718   8.613  1.7710  1.0227  1.6054
 4043TIP3   OH233687   0.822   5.706   0.846  0.7096 -0.1976  0.1095
 4043TIP3    H133688   0.798   5.641   0.780 -1.5644  0.0008  0.6544
 4043TIP3    H233689   0.846   5.654   0.923 -0.9753 -0.4666  0.5023
 4044TIP3   OH233690   2.442   2.533   7.309  0.1002 -0.0838 -0.6843
 4044TIP3    H133691   2.456   2.471   7.237 -0.4622  1.6081 -2.3214
 4044TIP3    H233692   2.348   2.531   7.325  0.2595 -0.7217  0.3224
 4045TIP3   OH233693   2.763   0.006   8.576 -0.5030  0.0404 -0.0217
 4045TIP3    H133694   2.782  -0.085   8.554  1.7339  0.5341 -0.3385
 4045TIP3    H233695   2.818   0.057   8.517 -0.7844  1.5820  0.9896
 4046TIP3   OH233696   2.504   3.094   0.875 -0.3409  0.8453 -0.0529
 4046TIP3    H133697   2.552   3.101   0.793  2.0834  1.3848  1.3314
 4046TIP3    H233698   2.503   3.000   0.894  0.3384  0.8478 -0.0003
 4047TIP3   OH233699   1.971   4.167   0.672  0.1124  0.5023 -0.2557
 4047TIP3    H133700   2.024   4.166   0.752 -2.6063  0.0658  1.6993
 4047TIP3    H233701   1.930   4.253   0.671  0.0382  0.4679 -1.1441
 4048TIP3   OH233702   2.990   3.678   6.874  0.0150  0.4700  0.8516
 4048TIP3    H133703   2.971   3.586   6.895 -2.2153 -0.0306 -2.5988
 4048TIP3    H233704   2.931   3.728   6.930 -1.5961 -0.4686  0.0597
 4049TIP3   OH233705   5.860   4.907   7.990 -0.6954 -0.1401  0.0016
 4049TIP3    H133706   5.890   4.926   7.901  0.4032 -0.2483  0.3420
 4049TIP3    H233707   5.809   4.826   7.982 -1.9097  0.6636 -0.7696
 4050TIP3   OH233708   0.841   4.796   8.064 -0.0302 -0.3649  0.0211
 4050TIP3    H133709   0.857   4.891   8.062 -0.2909 -0.2790  1.1382
 4050TIP3    H233710   0.763   4.783   8.011  0.0395  0.0326 -0.1853
 4051TIP3   OH233711   2.405   2.809   2.327 -0.2265  0.4942  0.8054
 4051TIP3    H133712   2.378   2.730   2.280  1.9463  0.4644 -0.5205
 4051TIP3    H233713   2.484   2.783   2.373  1.2163  2.1690 -0.6180
 4052TIP3   OH233714   5.729   2.899   2.511 -0.3056  0.4529  0.6198
 4052TIP3    H133715   5.809   2.847   2.502 -0.1535  0.5338  1.4268
 4052TIP3    H233716   5.668   2.842   2.557 -0.8769  0.2240 -0.4138
 4053TIP3   OH233717   6.203   0.954   2.241 -0.1582 -0.2097 -0.5267
 4053TIP3    H133718   6.264   1.023   2.215  1.6508 -0.9005  1.5076
 4053TIP3    H233719   6.252   0.903   2.306 -1.8666 -2.6592 -1.0268
 4054TIP3   OH233720   1.517   3.685   1.426 -0.2687  0.1403  0.2498
 4054TIP3    H133721   1.611   3.680   1.408 -0.0376 -2.9453  1.7087
 4054TIP3    H233722   1.475   3.644   1.350  0.0233 -3.0570  1.6342
 4055TIP3   OH233723   5.043   4.897   2.893 -0.4830  0.2166 -0.3404
 4055TIP3    H133724   5.109   4.860   2.951 -0.2665  1.0451 -0.0467
 4055TIP3    H233725   4.983   4.943   2.951 -2.5575 -2.2355 -0.3576
 4056TIP3   OH233726   0.809   1.958   8.232  0.5204 -0.1989 -0.2672
 4056TIP3    H133727   0.764   1.980   8.150  0.1004  1.2620  0.3305
 4056TIP3    H233728   0.804   1.862   8.236 -1.3371 -0.1821 -0.9071
 4057TIP3   OH233729   1.477   6.373   0.909 -0.0043 -0.3665  0.2327
 4057TIP3    H133730   1.560   6.416   0.888 -0.4396  0.2355 -0.2544
 4057TIP3    H233731   1.473   6.375   1.005  0.4580 -0.2444  0.2535
 4058TIP3   OH233732   2.172   3.531   9.052  0.2610  0.3670 -0.3990
 4058TIP3    H133733   2.115   3.577   8.991  0.4563 -0.1373 -0.9691
 4058TIP3    H233734   2.253   3.515   9.003  0.2556 -0.4428 -0.1712
 4059TIP3   OH233735   3.553   1.254   2.194 -0.0614  0.2134  0.5576
 4059TIP3    H133736   3.601   1.257   2.276 -0.1479 -0.8388  0.6535
 4059TIP3    H233737   3.464   1.230   2.218 -0.3935  1.0959  0.2685
 4060TIP3   OH233738   4.230   0.794   0.798  0.2401 -0.3694 -0.4859
 4060TIP3    H133739   4.238   0.829   0.709  0.5516  0.1677 -0.2543
 4060TIP3    H233740   4.270   0.707   0.794 -2.0623 -1.4598 -1.4832
 4061TIP3   OH233741   1.019   6.121   8.523 -0.0561  0.2189  0.2094
 4061TIP3    H133742   0.931   6.137   8.558  0.0402  2.4864 -0.4249
 4061TIP3    H233743   1.006   6.058   8.453 -0.7052 -1.8544  2.0853
 4062TIP3   OH233744   1.169   6.022   8.093 -0.3668 -0.0020 -0.4875
 4062TIP3    H133745   1.152   6.034   7.999 -0.2819  0.0717 -0.4941
 4062TIP3    H233746   1.095   6.064   8.136  0.0659  0.8068 -0.5036
 4063TIP3   OH233747   1.885   2.106   0.346  0.6346  0.0546 -0.3437
 4063TIP3    H133748   1.859   2.030   0.293  0.3692  0.4262 -0.7505
 4063TIP3    H233749   1.928   2.165   0.284 -0.2651  0.7902 -0.3006
 4064TIP3   OH233750   5.789   2.053   0.496 -0.4083  0.1774  0.8146
 4064TIP3    H133751   5.813   2.030   0.405 -0.5038 -0.7676  1.0150
 4064TIP3    H233752   5.872   2.080   0.536  0.0125 -1.2786  0.9772
 4065TIP3   OH233753   6.069   5.892   2.048 -0.5688  0.5434  0.5176
 4065TIP3    H133754   6.138   5.957   2.035 -0.2965  0.0797 -0.4042
 4065TIP3    H233755   6.111   5.823   2.100 -0.5355  0.5699  0.5259
 4066TIP3   OH233756   3.809   2.006   0.906 -0.1655 -0.5674  0.0775
 4066TIP3    H133757   3.792   1.980   0.816  2.2912  1.7278 -1.1979
 4066TIP3    H233758   3.893   1.966   0.927  1.2890  2.0510 -0.2257
 4067TIP3   OH233759   1.756   4.221   1.712 -0.5321  0.3529 -0.2925
 4067TIP3    H133760   1.779   4.132   1.684 -1.3658  0.0601 -0.0732
 4067TIP3    H233761   1.663   4.216   1.735 -0.1109  0.7924  1.7139
 4068TIP3   OH233762   0.342   0.576   1.002  0.7541 -0.1218  0.1739
 4068TIP3    H133763   0.363   0.643   1.067  1.7914  0.0852 -0.3612
 4068TIP3    H233764   0.411   0.511   1.011 -0.1727 -1.0743  0.6025
 4069TIP3   OH233765   6.381   1.640   8.094 -0.1117 -0.2747 -0.7585
 4069TIP3    H133766   6.287   1.659   8.090 -0.1313 -0.4696 -1.2893
 4069TIP3    H233767   6.420   1.722   8.125 -0.5058 -0.3680  0.0216
 4070TIP3   OH233768   6.262   1.711   0.470 -0.6045  0.3506 -0.2704
 4070TIP3    H133769   6.199   1.756   0.526 -2.5283 -1.6706 -0.6535
 4070TIP3    H233770   6.224   1.717   0.382 -0.4282 -1.0976 -0.4778
 4071TIP3   OH233771   3.970   3.451   1.757 -0.4903  0.2138  0.2723
 4071TIP3    H133772   4.031   3.394   1.711 -1.1159 -0.2406 -0.0107
 4071TIP3    H233773   4.026   3.511   1.807  0.2496 -2.2095  2.6133
 4072TIP3   OH233774   6.707   5.123   2.664  0.2708  0.2311 -0.3316
 4072TIP3    H133775   6.649   5.111   2.740  1.6484  1.6063  1.0088
 4072TIP3    H233776   6.790   5.084   2.690  1.1650  1.8908 -0.5727
 4073TIP3   OH233777   2.794   5.704   0.610 -0.0551  0.5568  0.0992
 4073TIP3    H133778   2.736   5.629   0.625 -2.7129  2.3811 -0.5012
 4073TIP3    H233779   2.791   5.719   0.516  1.2465  0.8619  0.0833
 4074TIP3   OH233780   2.854   4.221   8.605 -0.0399  0.2534  0.1851
 4074TIP3    H133781   2.762   4.226   8.578  0.1831 -0.6855 -0.8475
 4074TIP3    H233782   2.896   4.293   8.559 -0.5569  1.9568  2.2030
 4075TIP3   OH233783   2.533   1.658   7.508  0.3985 -0.0286 -0.3154
 4075TIP3    H133784   2.578   1.595   7.565  1.0975 -0.2323 -1.0717
 4075TIP3    H233785   2.557   1.743   7.543  0.4772 -0.1588 -0.0504
 4076TIP3   OH233786   0.864   1.697   8.799  0.0794 -0.8212  0.4538
 4076TIP3    H133787   0.957   1.685   8.781 -0.1423 -1.3189 -0.4312
 4076TIP3    H233788   0.862   1.746   8.881  1.1238 -0.5360  0.3343
 4077TIP3   OH233789   1.474   6.123   3.224 -0.0826  0.6051 -0.6549
 4077TIP3    H133790   1.521   6.180   3.285  1.7806  1.4024 -2.6855
 4077TIP3    H233791   1.482   6.167   3.139 -3.8037  0.2956 -1.3271
 4078TIP3   OH233792   0.807   1.357   8.901 -0.3898 -0.4561  0.2695
 4078TIP3    H133793   0.757   1.438   8.896 -0.1075 -0.2912  0.0982
 4078TIP3    H233794   0.786   1.311   8.820 -0.2029 -0.3487  0.1583
 4079TIP3   OH233795   1.857   3.963   0.326 -0.0824 -0.3564  0.3485
 4079TIP3    H133796   1.947   3.953   0.296 -0.0841  0.2754  0.1142
 4079TIP3    H233797   1.838   4.057   0.317 -0.6051 -0.4007  0.8411
 4080TIP3   OH233798   5.249   5.352   2.591  0.1149 -0.3027  0.3244
 4080TIP3    H133799   5.219   5.309   2.511 -1.1322  2.6156 -0.9090
 4080TIP3    H233800   5.337   5.383   2.571 -0.1992  0.4332  0.0629
 4081TIP3   OH233801   0.395   5.740   8.049 -0.1474 -0.3995  0.2702
 4081TIP3    H133802   0.359   5.821   8.013 -0.9971 -0.9275 -0.1051
 4081TIP3    H233803   0.456   5.708   7.982  0.1657 -0.0927  0.4064
 4082TIP3   OH233804   6.574   1.278   8.516 -0.3812  0.7803 -0.2981
 4082TIP3    H133805   6.593   1.361   8.471  2.8083  0.5698  0.4166
 4082TIP3    H233806   6.589   1.297   8.608  1.5022 -0.7705 -0.2182
 4083TIP3   OH233807   2.270   2.215   8.965  0.2028  0.8663  0.2440
 4083TIP3    H133808   2.319   2.222   8.883 -0.0552  0.7356  0.0771
 4083TIP3    H233809   2.240   2.124   8.968  1.1848  0.5567  1.0450
 4084TIP3   OH233810   6.571   0.813   0.631  0.4623 -0.3177  0.2979
 4084TIP3    H133811   6.566   0.768   0.716 -0.2872 -1.1883 -0.1943
 4084TIP3    H233812   6.643   0.875   0.642  0.3286 -0.3579  1.5990
 4085TIP3   OH233813   6.503   3.185   0.432 -0.2990 -0.0585 -0.2530
 4085TIP3    H133814   6.485   3.216   0.520  2.6815 -0.0781  0.4802
 4085TIP3    H233815   6.463   3.250   0.374 -1.7808  0.2677  1.0816
 4086TIP3   OH233816   5.751   3.101   2.810 -0.3414 -0.1352  0.2379
 4086TIP3    H133817   5.704   3.036   2.758 -1.3742 -0.3972  1.4414
 4086TIP3    H233818   5.843   3.090   2.786 -0.8623  0.4793 -2.2731
 4087TIP3   OH233819   0.984   3.208   2.614  0.5764  0.2672  1.3590
 4087TIP3    H133820   1.073   3.236   2.596  0.5383  0.1298  0.9491
 4087TIP3    H233821   0.966   3.140   2.549 -0.6389  1.8897 -0.1272
 4088TIP3   OH233822   2.105   5.655   2.528 -0.2043  0.0975  0.4226
 4088TIP3    H133823   2.084   5.700   2.610  0.2235  1.3019 -0.1131
 4088TIP3    H233824   2.162   5.583   2.554  0.8072  1.1011  1.0883
 4089TIP3   OH233825   0.474   5.597   0.615 -0.7802 -0.3213  0.0285
 4089TIP3    H133826   0.404   5.541   0.584 -1.2865 -0.8752  2.0177
 4089TIP3    H233827   0.458   5.682   0.573 -2.5955 -0.4625  0.3465
 4090TIP3   OH233828   0.727   5.000   7.477  0.1449 -0.6000  0.3899
 4090TIP3    H133829   0.639   5.022   7.448  1.1334 -0.0102 -2.5087
 4090TIP3    H233830   0.781   5.071   7.445  1.6053 -0.4486  2.9628
 4091TIP3   OH233831   2.385   3.135   1.130 -0.1364 -0.2317 -0.3939
 4091TIP3    H133832   2.407   3.091   1.048 -0.8635 -0.3021 -0.5559
 4091TIP3    H233833   2.372   3.227   1.106 -2.3336 -0.5858 -0.7429
 4092TIP3   OH233834   4.461   6.567   1.496 -0.0989  0.2896  0.3523
 4092TIP3    H133835   4.480   6.529   1.410  2.6543 -1.0065  1.4200
 4092TIP3    H233836   4.450   6.492   1.554 -1.2177  1.1492  1.3023
 4093TIP3   OH233837   1.806   4.259   2.749 -0.8683  0.0536  0.3967
 4093TIP3    H133838   1.878   4.197   2.766 -0.8712 -0.2108 -0.5020
 4093TIP3    H233839   1.746   4.247   2.823  0.0772  0.3969  1.2572
 4094TIP3   OH233840   2.786   5.943   1.814  0.1747 -0.0260 -0.2278
 4094TIP3    H133841   2.720   6.007   1.841 -1.6526 -1.7042 -0.4980
 4094TIP3    H233842   2.811   5.899   1.896  0.1535 -0.1108 -0.2668
 4095TIP3   OH233843   6.043   3.826   1.030 -0.0663 -0.0724  0.0340
 4095TIP3    H133844   6.015   3.886   1.100  1.1653  1.2864 -0.5812
 4095TIP3    H233845   6.027   3.739   1.066 -0.3497  0.5965  1.6450
 4096TIP3   OH233846   4.536   2.143   7.662  0.2532  0.4738 -0.0795
 4096TIP3    H133847   4.587   2.117   7.585 -0.4762  0.4029 -0.5596
 4096TIP3    H233848   4.518   2.060   7.708  1.0253  0.5617  0.3897
 4097TIP3   OH233849   1.371   2.213   1.562 -0.1548  0.0864 -1.3672
 4097TIP3    H133850   1.377   2.121   1.535  0.0014  0.3059 -2.0942
 4097TIP3    H233851   1.347   2.260   1.482  2.6576  1.0734 -1.7452
 4098TIP3   OH233852   4.773   3.815   1.337 -0.3787  0.9581 -0.1000
 4098TIP3    H133853   4.841   3.882   1.346  1.5127 -0.6627 -1.4244
 4098TIP3    H233854   4.790   3.753   1.408  0.4567 -0.1391 -1.1972
 4099TIP3   OH233855   3.652   0.655   1.738 -0.3584  0.0428  0.3667
 4099TIP3    H133856   3.558   0.657   1.718 -0.3006  0.6023  0.1370
 4099TIP3    H233857   3.674   0.561   1.739 -1.0977 -0.1371  1.3009
 4100TIP3   OH233858   4.087   2.327   8.894 -0.5157 -0.2183  0.2427
 4100TIP3    H133859   4.106   2.410   8.852  0.4533  0.5792  2.1419
 4100TIP3    H233860   4.038   2.277   8.828  2.1065  0.3527 -2.3258
 4101TIP3   OH233861   5.884   5.851   0.444 -0.3801 -0.1958 -0.2500
 4101TIP3    H133862   5.962   5.851   0.500  0.0428  0.3262 -0.8128
 4101TIP3    H233863   5.817   5.806   0.495  0.8087 -2.3499 -0.4819
 4102TIP3   OH233864   4.070   6.641   1.231 -0.6690 -0.1735  0.2160
 4102TIP3    H133865   4.137   6.577   1.210  2.7832  3.3310 -0.5904
 4102TIP3    H233866   4.067   6.644   1.326 -1.3859 -1.8653  0.2812
 4103TIP3   OH233867   2.510   2.839   0.890 -0.5883 -0.2147  0.0668
 4103TIP3    H133868   2.472   2.809   0.973  0.6617 -3.1239 -0.2945
 4103TIP3    H233869   2.583   2.779   0.875 -1.1399 -0.1747 -3.4440
 4104TIP3   OH233870   2.458   0.473   2.661 -0.2472  0.3096 -0.3597
 4104TIP3    H133871   2.485   0.383   2.677 -0.0785  0.1045 -1.6380
 4104TIP3    H233872   2.420   0.471   2.573 -2.4037  1.0306  0.4919
 4105TIP3   OH233873   3.280   0.999   0.852 -0.0772  0.0150 -0.4686
 4105TIP3    H133874   3.313   0.949   0.926  2.1944  0.5705 -1.0386
 4105TIP3    H233875   3.221   1.063   0.892  0.9509  0.1835  0.8675
 4106TIP3   OH233876   5.673   6.432   8.805  0.4296 -0.0232 -0.5315
 4106TIP3    H133877   5.691   6.366   8.872  2.6687 -0.5384 -1.5305
 4106TIP3    H233878   5.655   6.382   8.726 -0.2462  0.5687 -0.7575
 4107TIP3   OH233879   5.025   5.228   2.054 -0.2050  0.0379 -0.1777
 4107TIP3    H133880   4.950   5.212   2.110 -1.1586 -0.6577 -1.6038
 4107TIP3    H233881   4.990   5.275   1.978  1.3391  2.5585  0.5264
 4108TIP3   OH233882   2.896   2.040   7.476 -0.4696  0.0092 -0.5105
 4108TIP3    H133883   2.852   2.125   7.470  0.9303  0.7283 -0.9998
 4108TIP3    H233884   2.825   1.978   7.491 -1.6910  1.0785 -1.5814
 4109TIP3   OH233885   1.355   1.936   7.834  0.2638 -0.4135 -0.0986
 4109TIP3    H133886   1.388   1.987   7.909 -2.1073 -0.4556  1.0483
 4109TIP3    H233887   1.265   1.915   7.857 -0.0577 -1.7614 -2.3302
 4110TIP3   OH233888   2.517   2.223   2.018  1.0014 -0.3952  0.1457
 4110TIP3    H133889   2.504   2.179   2.102  0.7805  2.8177  1.9725
 4110TIP3    H233890   2.448   2.189   1.962  0.8676 -2.3112  1.3987
 4111TIP3   OH233891   3.718   1.970   7.666  0.1978 -0.2209  0.7165
 4111TIP3    H133892   3.749   2.013   7.745  1.5766  0.3031 -0.0810
 4111TIP3    H233893   3.682   2.040   7.612 -1.3189 -0.6591  1.1100
 4112TIP3   OH233894   5.299   0.544   2.151  0.1417  0.1162 -0.4595
 4112TIP3    H133895   5.262   0.459   2.172 -0.3277  1.1027  3.7352
 4112TIP3    H233896   5.374   0.553   2.211 -0.1194  2.7701 -0.3775
 4113TIP3   OH233897   0.755   6.032   1.789  0.5300 -0.1479  0.0940
 4113TIP3    H133898   0.661   6.016   1.801  0.5656  0.7924  1.9250
 4113TIP3    H233899   0.797   5.953   1.823  0.4413  0.0964  0.7799
 4114TIP3   OH233900   3.710   3.634   1.979 -0.0010  0.1105  0.3769
 4114TIP3    H133901   3.638   3.573   1.991  0.1486 -0.3054 -0.7693
 4114TIP3    H233902   3.684   3.711   2.030 -1.8246  0.4275 -0.9374
 4115TIP3   OH233903   4.268   5.736   0.591 -0.2383  0.1887 -0.2599
 4115TIP3    H133904   4.270   5.690   0.675  2.2263  0.3427 -0.1495
 4115TIP3    H233905   4.246   5.668   0.528  3.0199 -1.2835 -0.0571
 4116TIP3   OH233906   0.572   5.913   8.803 -0.7328 -0.4866 -0.1320
 4116TIP3    H133907   0.575   5.867   8.887 -0.7843  0.2469  0.2818
 4116TIP3    H233908   0.651   5.885   8.757 -0.1864 -0.1493  0.5706
 4117TIP3   OH233909   6.553   4.708   8.009 -0.5932  0.1278 -0.0928
 4117TIP3    H133910   6.514   4.729   7.924  1.7302 -0.3875 -1.3475
 4117TIP3    H233911   6.535   4.614   8.021 -1.5355  0.3491  0.3708
 4118TIP3   OH233912   3.533   1.783   8.906  0.3724 -0.8583  0.6562
 4118TIP3    H133913   3.501   1.831   8.983 -0.7954 -3.3644  1.8288
 4118TIP3    H233914   3.501   1.835   8.831 -0.7522  0.2336  1.8371
 4119TIP3   OH233915   4.475   5.941   8.376 -0.0396 -0.3332 -0.5958
 4119TIP3    H133916   4.407   6.008   8.381 -0.2704 -0.6120  0.1282
 4119TIP3    H233917   4.552   5.987   8.342  0.2467  0.6588  1.2743
 4120TIP3   OH233918   3.776   2.649   9.059  0.1567 -0.0533  0.2651
 4120TIP3    H133919   3.698   2.606   9.093 -0.5596  0.6367 -0.4691
 4120TIP3    H233920   3.784   2.730   9.108 -0.4140  0.5550 -0.6261
 4121TIP3   OH233921   5.527   4.038   0.925  0.4778  0.0836 -0.0157
 4121TIP3    H133922   5.585   4.107   0.957 -2.3395  2.4192  0.4676
 4121TIP3    H233923   5.479   4.079   0.853 -1.8918 -1.0306  0.8259
 4122TIP3   OH233924   1.412   1.837   8.458  0.4311 -0.1770 -0.1179
 4122TIP3    H133925   1.340   1.774   8.467  1.1664 -0.8159  1.8973
 4122TIP3    H233926   1.397   1.900   8.528  0.4783  1.1416 -1.2569
 4123TIP3   OH233927   4.464   0.912   1.801 -0.5035 -0.2157  0.6212
 4123TIP3    H133928   4.492   0.821   1.795 -2.3770 -1.0080  2.3847
 4123TIP3    H233929   4.371   0.910   1.776 -0.0728  1.6249 -1.4338
 4124TIP3   OH233930   2.461   6.140   8.546  0.3716  0.0893  0.0447
 4124TIP3    H133931   2.446   6.101   8.632 -0.8855  2.5438  1.0263
 4124TIP3    H233932   2.373   6.156   8.511  0.8637 -0.3569 -1.4927
 4125TIP3   OH233933   1.417   0.909   7.021 -0.5529 -0.8218  0.9375
 4125TIP3    H133934   1.322   0.912   7.013 -0.4581 -0.4113 -0.2976
 4125TIP3    H233935   1.449   0.966   6.950  0.5941 -0.2133  1.9055
 4126TIP3   OH233936   4.940   4.354   2.425 -0.0055 -0.0355  0.2981
 4126TIP3    H133937   4.949   4.323   2.334 -1.4957 -0.1593  0.1658
 4126TIP3    H233938   5.019   4.322   2.469 -0.4342 -2.1360 -0.3568
 4127TIP3   OH233939   1.106   3.913   2.047  0.1973  0.3268 -0.2122
 4127TIP3    H133940   1.135   3.998   2.014 -1.3174  0.4109 -1.4064
 4127TIP3    H233941   1.126   3.851   1.976  1.5173 -0.4001  0.7421
 4128TIP3   OH233942   5.352   2.751   8.932  0.0248  0.8339  0.4101
 4128TIP3    H133943   5.329   2.814   8.863 -1.5475 -1.7294 -1.6038
 4128TIP3    H233944   5.423   2.699   8.894 -0.4288 -0.2180  0.9592
 4129TIP3   OH233945   3.910   2.097   6.954  0.3870 -0.6654 -0.1483
 4129TIP3    H133946   3.927   2.006   6.979  1.4585 -0.1043  1.3183
 4129TIP3    H233947   3.997   2.137   6.949 -0.0321  0.1312 -1.4422
 4130TIP3   OH233948   0.397   6.677   7.008  0.9585  0.2918  0.2042
 4130TIP3    H133949   0.460   6.722   7.065  1.1797 -0.0305  0.2168
 4130TIP3    H233950   0.403   6.722   6.924  0.9917  0.4520  0.2931
 4131TIP3   OH233951   6.269   6.306   8.323 -0.2380 -0.6024  0.4728
 4131TIP3    H133952   6.251   6.394   8.290  1.8282 -0.4324 -0.3688
 4131TIP3    H233953   6.188   6.258   8.310 -0.9207  0.7547 -0.5023
 4132TIP3   OH233954   6.380   2.044   7.899 -0.2024 -0.1727  0.2248
 4132TIP3    H133955   6.427   2.095   7.965  1.6844 -0.4865 -0.8081
 4132TIP3    H233956   6.362   2.106   7.828  2.2647 -0.8388 -1.1182
 4133TIP3   OH233957   0.562   4.404   0.530 -0.1350 -0.0934 -0.3766
 4133TIP3    H133958   0.554   4.498   0.545 -0.0283 -0.0639 -0.4975
 4133TIP3    H233959   0.587   4.367   0.615  0.2996  0.0476 -0.4395
 4134TIP3   OH233960   5.233   0.828   7.580  0.0491 -0.2368  0.3024
 4134TIP3    H133961   5.302   0.877   7.536 -1.1351  0.7393 -0.5056
 4134TIP3    H233962   5.252   0.837   7.674  0.4069  0.9200  0.1211
 4135TIP3   OH233963   5.292   6.087   0.147 -0.7468 -0.1696 -0.1848
 4135TIP3    H133964   5.318   6.176   0.173 -0.6007 -0.6290  1.3599
 4135TIP3    H233965   5.206   6.075   0.187 -0.1702 -1.1938  0.8136
 4136TIP3   OH233966   6.470   5.751   8.515 -0.2813  0.0698 -0.2529
 4136TIP3    H133967   6.512   5.837   8.515  1.8777 -0.9172 -0.0400
 4136TIP3    H233968   6.537   5.691   8.547 -1.7629 -1.6961 -0.2712
 4137TIP3   OH233969   3.618   2.873   1.627  0.4408 -0.2786 -0.2326
 4137TIP3    H133970   3.622   2.825   1.710 -0.1855 -0.8884 -0.5402
 4137TIP3    H233971   3.660   2.957   1.645 -0.0905 -0.2311  0.8203
 4138TIP3   OH233972   1.519   6.317   7.638 -0.5143  0.1717  0.3778
 4138TIP3    H133973   1.523   6.336   7.732 -1.3604 -0.0423  0.4683
 4138TIP3    H233974   1.437   6.357   7.609 -1.0217 -1.0437  0.0451
 4139TIP3   OH233975   2.427   4.477   8.247 -0.6637  0.0038  0.2108
 4139TIP3    H133976   2.449   4.467   8.339  1.8769 -0.3046 -0.3397
 4139TIP3    H233977   2.424   4.387   8.214 -0.7415  0.1423 -0.1634
 4140TIP3   OH233978   5.237   1.891   0.656 -0.8443  0.1107  0.1195
 4140TIP3    H133979   5.254   1.853   0.569 -0.2403  0.6287  0.0000
 4140TIP3    H233980   5.324   1.905   0.693 -1.0989 -0.1274  0.8282
 4141TIP3   OH233981   3.925   5.076   0.482 -0.1271 -0.2321  0.4616
 4141TIP3    H133982   3.920   5.013   0.410  0.4044 -0.9792  1.0572
 4141TIP3    H233983   3.894   5.027   0.558  1.0295 -0.0211  1.0874
 4142TIP3   OH233984   5.579   6.258   6.795 -0.0451 -0.6998 -0.3357
 4142TIP3    H133985   5.549   6.195   6.728 -1.3249 -0.8882  0.3884
 4142TIP3    H233986   5.652   6.213   6.839 -0.0263 -1.0947 -0.7578
 4143TIP3   OH233987   6.321   5.252   1.645 -0.5961  0.3488  0.4813
 4143TIP3    H133988   6.230   5.272   1.624 -0.0712  0.5141 -1.8234
 4143TIP3    H233989   6.371   5.323   1.605  0.7068 -0.9620 -0.2877
 4144TIP3   OH233990   4.770   4.436   9.087 -0.3599  0.0461 -0.4254
 4144TIP3    H133991   4.825   4.513   9.098  1.0308 -0.6445 -2.1876
 4144TIP3    H233992   4.785   4.407   8.997 -1.6930 -1.6383 -0.1718
 4145TIP3   OH233993   0.636   5.941   2.065  0.2470 -0.4350  0.4077
 4145TIP3    H133994   0.544   5.953   2.043  0.8171  2.8397 -0.7348
 4145TIP3    H233995   0.647   5.986   2.149  0.9462 -0.0209  0.1069
 4146TIP3   OH233996   2.128   5.244   2.403  0.1331 -0.9453 -0.1045
 4146TIP3    H133997   2.068   5.265   2.475  0.7143 -0.3645  0.2204
 4146TIP3    H233998   2.111   5.153   2.383  0.8973 -1.5254  1.6819
 4147TIP3   OH233999   0.194   0.686   2.133  0.3320 -0.1262  0.4631
 4147TIP3    H134000   0.195   0.592   2.113 -1.0713  0.0365 -0.5742
 4147TIP3    H234001   0.283   0.716   2.115  0.0113 -0.6477 -2.5920
 4148TIP3   OH234002   0.600   2.416   0.663 -0.7682  0.7935 -0.3876
 4148TIP3    H134003   0.641   2.501   0.673 -0.9541  0.8068  0.3746
 4148TIP3    H234004   0.518   2.423   0.713 -0.2626 -0.1706  0.6076
 4149TIP3   OH234005   1.404   1.332   2.206 -0.4171 -0.2507  0.0116
 4149TIP3    H134006   1.414   1.408   2.262  1.5604 -0.2012 -0.3374
 4149TIP3    H234007   1.413   1.257   2.264 -1.9740 -0.2607  0.2904
 4150TIP3   OH234008   1.383   5.703   1.068  0.3744  0.1995  0.9634
 4150TIP3    H134009   1.327   5.753   1.009  0.0876 -0.9264  0.2696
 4150TIP3    H234010   1.391   5.759   1.145 -1.5750  0.4590  1.0250
 4151TIP3   OH234011   6.322   2.539   0.298 -0.2079  0.0570 -0.7162
 4151TIP3    H134012   6.332   2.452   0.337 -0.6839  1.0606  1.8870
 4151TIP3    H234013   6.392   2.591   0.337 -1.0917  1.2856 -0.7045
 4152TIP3   OH234014   4.168   2.600   6.788 -0.2526 -0.0901 -0.3925
 4152TIP3    H134015   4.161   2.662   6.715 -1.7467  1.9697  1.3601
 4152TIP3    H234016   4.093   2.542   6.777  0.0122 -0.3365 -0.9378
 4153TIP3   OH234017   3.760   6.499   0.948  0.4309  0.2791  0.0990
 4153TIP3    H134018   3.775   6.431   0.883 -0.9293  0.8268 -0.8359
 4153TIP3    H234019   3.730   6.452   1.026  2.5064 -0.4232  0.5610
 4154TIP3   OH234020   1.881   0.856   3.193 -0.7281  0.3862  0.1650
 4154TIP3    H134021   1.796   0.865   3.151 -0.6364 -0.7180 -0.2903
 4154TIP3    H234022   1.876   0.773   3.241  0.7418 -0.7274 -1.4929
 4155TIP3   OH234023   3.512   3.301   0.906 -0.2167  0.0424 -0.1536
 4155TIP3    H134024   3.591   3.339   0.946 -0.2579 -0.6889  0.6485
 4155TIP3    H234025   3.440   3.351   0.944 -0.2022  0.0213 -0.0985
 4156TIP3   OH234026   1.716   3.364   0.892  0.1066 -0.4529 -0.3737
 4156TIP3    H134027   1.745   3.321   0.973 -2.4661 -2.6393 -0.5009
 4156TIP3    H234028   1.673   3.295   0.842 -1.6815  1.6736 -1.9463
 4157TIP3   OH234029   1.745   1.170   1.106  0.7691 -0.1835 -0.1400
 4157TIP3    H134030   1.748   1.201   1.015 -1.1608 -0.9880 -0.5344
 4157TIP3    H234031   1.677   1.225   1.147  0.1358 -1.2146  0.2226
 4158TIP3   OH234032   1.007   6.649   6.991  0.3795  0.1194  0.3774
 4158TIP3    H134033   0.954   6.569   6.984  1.6074 -0.6974  0.1168
 4158TIP3    H234034   0.960   6.703   7.055 -1.0896 -0.3000 -0.2856
 4159TIP3   OH234035   5.324   0.880   1.477  0.0362 -0.1239  0.4116
 4159TIP3    H134036   5.383   0.932   1.532  2.6095 -1.2286 -1.1236
 4159TIP3    H234037   5.351   0.901   1.388 -3.0023  0.4593 -0.4745
 4160TIP3   OH234038   5.834   6.702   8.924 -0.0369 -0.3278 -0.1340
 4160TIP3    H134039   5.835   6.710   8.829 -0.2315  1.9562 -0.0014
 4160TIP3    H234040   5.742   6.708   8.948 -0.1844 -2.6783  0.1504
 4161TIP3   OH234041   0.487   2.743   9.038  0.3017 -0.2652 -0.1094
 4161TIP3    H134042   0.563   2.800   9.050 -0.4882  1.1518 -1.5121
 4161TIP3    H234043   0.524   2.655   9.031  1.5647 -0.0087  2.1199
 4162TIP3   OH234044   0.662   1.266   7.490  0.3442  0.3131  0.2362
 4162TIP3    H134045   0.713   1.317   7.428 -1.6051 -0.1973 -1.9383
 4162TIP3    H234046   0.578   1.311   7.495  0.0906 -0.2742  1.6877
 4163TIP3   OH234047   5.748   0.250   2.719 -0.0384 -0.0128 -0.1117
 4163TIP3    H134048   5.756   0.203   2.803 -0.4696  1.3087  0.6997
 4163TIP3    H234049   5.655   0.271   2.712 -0.0883 -0.5546 -1.1860
 4164TIP3   OH234050   5.928   1.417   0.023 -0.3757 -0.1945  0.2812
 4164TIP3    H134051   5.857   1.369  -0.019  0.0285 -1.3041  0.8158
 4164TIP3    H234052   5.996   1.351   0.038 -0.5461  0.0852  2.7852
 4165TIP3   OH234053   2.779   4.859   8.061 -0.0977 -0.0185  0.4190
 4165TIP3    H134054   2.741   4.947   8.052  0.4008  0.1502 -0.1064
 4165TIP3    H234055   2.851   4.870   8.124 -0.7105 -0.2733  1.1726
 4166TIP3   OH234056   6.579   1.854   7.734  0.4582  0.5817 -0.1687
 4166TIP3    H134057   6.510   1.797   7.767  0.6845 -1.0858 -2.3875
 4166TIP3    H234058   6.536   1.913   7.673  0.5719  1.4716  0.5785
 4167TIP3   OH234059   0.344   4.929   8.123  0.0109  0.3424 -0.3424
 4167TIP3    H134060   0.306   4.852   8.081 -0.3142 -0.4891  1.4214
 4167TIP3    H234061   0.269   4.977   8.157  0.2914  0.8390 -0.4137
 4168TIP3   OH234062   3.163   4.725   1.909  0.2888 -0.0500 -0.0322
 4168TIP3    H134063   3.131   4.722   1.819 -0.0370  2.1146 -0.0293
 4168TIP3    H234064   3.085   4.716   1.964  0.2867  0.3416  0.0268
 4169TIP3   OH234065   0.846   0.305   7.626 -0.4875  0.2287  0.1641
 4169TIP3    H134066   0.829   0.238   7.692  1.8756  0.1029  0.7228
 4169TIP3    H234067   0.817   0.266   7.543 -2.8335  0.1204  0.9822
 4170TIP3   OH234068   2.190   4.178   0.183  0.0109 -0.5534  0.2193
 4170TIP3    H134069   2.144   4.256   0.215 -1.6817 -1.4963  0.2284
 4170TIP3    H234070   2.124   4.132   0.131  1.4778 -1.1396 -1.2093
 4171TIP3   OH234071   4.946   5.459   8.993  0.0334 -0.0066  0.1051
 4171TIP3    H134072   5.031   5.430   9.025 -0.1904  1.1003  1.8517
 4171TIP3    H234073   4.946   5.554   9.007 -1.5795 -0.0235  0.4208
 4172TIP3   OH234074   0.725   1.419   1.287  0.0044  0.1037 -0.1741
 4172TIP3    H134075   0.757   1.354   1.350  0.3838  1.5839  1.2279
 4172TIP3    H234076   0.744   1.381   1.202  0.3630 -1.5464  0.6015
 4173TIP3   OH234077   1.748   2.461   7.382  0.2089  0.0323 -0.0113
 4173TIP3    H134078   1.825   2.491   7.332  0.6967  2.0260  1.7725
 4173TIP3    H234079   1.784   2.400   7.447  0.5645  1.7782  1.5301
 4174TIP3   OH234080   6.291   4.396   0.336 -0.1178  0.3584  0.1861
 4174TIP3    H134081   6.204   4.394   0.295 -0.6001 -0.6214  1.2150
 4174TIP3    H234082   6.333   4.316   0.306  0.5278  0.9137 -0.4499
 4175TIP3   OH234083   1.604   4.299   0.446  0.1017  0.0164 -0.1771
 4175TIP3    H134084   1.559   4.348   0.377  0.9770 -2.2878 -2.6013
 4175TIP3    H234085   1.550   4.221   0.459  0.8181 -0.3849  0.5224
 4176TIP3   OH234086   3.571   5.997   2.156 -0.3685  0.0718  0.5356
 4176TIP3    H134087   3.512   6.020   2.084 -1.0858  0.2031  1.1506
 4176TIP3    H234088   3.541   5.912   2.186  1.5507 -1.2303 -0.9656
 4177TIP3   OH234089   5.564   6.280   2.070  0.2779  0.1192 -0.2861
 4177TIP3    H134090   5.542   6.210   2.009 -0.1501 -0.8028  0.8772
 4177TIP3    H234091   5.638   6.246   2.120  0.1099  0.5130  0.2467
 4178TIP3   OH234092   1.906   5.154   0.858  0.5763  0.0244 -0.2913
 4178TIP3    H134093   1.912   5.194   0.771  0.7500  0.1819 -0.2075
 4178TIP3    H234094   1.971   5.083   0.857 -0.8459 -1.3345 -1.0022
 4179TIP3   OH234095   1.036   0.962   7.796 -0.4132 -0.4534  0.2004
 4179TIP3    H134096   0.969   0.900   7.826 -0.7446 -0.0153  0.3784
 4179TIP3    H234097   1.094   0.973   7.872 -1.0510  0.3836  0.5869
 4180TIP3   OH234098   4.923   3.281   8.965  0.2037 -0.2606  0.1377
 4180TIP3    H134099   4.914   3.256   9.058 -2.2593  1.4789  0.4668
 4180TIP3    H234100   4.969   3.365   8.967 -2.5783  1.4126  0.1883
 4181TIP3   OH234101   5.685   4.925   0.461  0.1679 -0.0037 -0.3910
 4181TIP3    H134102   5.726   4.840   0.479  0.5201  0.1802 -0.3189
 4181TIP3    H234103   5.712   4.947   0.372 -1.1096 -0.6419 -0.9704
 4182TIP3   OH234104   2.857   6.472   8.582  0.0115 -0.1262 -0.1089
 4182TIP3    H134105   2.938   6.490   8.535  0.3067 -1.3408 -0.0909
 4182TIP3    H234106   2.860   6.379   8.602  0.7366  0.5509  3.8612
 4183TIP3   OH234107   1.381   4.050   8.773 -0.2880  0.1303 -0.0438
 4183TIP3    H134108   1.288   4.072   8.774 -0.9552 -2.3920  0.5981
 4183TIP3    H234109   1.391   3.994   8.696  0.3049 -0.9711  0.8010
 4184TIP3   OH234110   3.373   1.213   1.804  0.0124  0.3530 -0.4723
 4184TIP3    H134111   3.340   1.285   1.857  0.4137 -1.3340  2.2462
 4184TIP3    H234112   3.300   1.151   1.798  0.3540 -0.0174 -0.9207
 4185TIP3   OH234113   6.637   3.214   2.665  0.5322  0.0368  0.0895
 4185TIP3    H134114   6.604   3.303   2.681 -0.0858 -0.1956  0.1315
 4185TIP3    H234115   6.690   3.194   2.743  1.7726  0.8625 -0.5139
 4186TIP3   OH234116   4.227   0.432   0.566 -0.2672 -0.2037 -0.2171
 4186TIP3    H134117   4.249   0.443   0.473 -0.8852 -1.4841 -0.5355
 4186TIP3    H234118   4.311   0.433   0.611  0.1695 -1.1090 -0.9749
 4187TIP3   OH234119   2.482   2.487   2.184  0.1914  0.0790  0.4202
 4187TIP3    H134120   2.447   2.428   2.250 -1.8696  1.1037  0.3306
 4187TIP3    H234121   2.426   2.473   2.107  0.1840  1.5098  0.1292
 4188TIP3   OH234122   3.768   2.794   7.477 -0.7996 -0.2132  0.5292
 4188TIP3    H134123   3.862   2.805   7.461 -0.3268 -0.8050  2.5073
 4188TIP3    H234124   3.728   2.875   7.447  0.0809 -0.6340 -1.9750
 4189TIP3   OH234125   0.387   1.136   1.431  0.0954 -0.1801 -0.8916
 4189TIP3    H134126   0.388   1.231   1.419  0.3659 -0.0118  0.3543
 4189TIP3    H234127   0.296   1.110   1.416 -0.1185  0.3731 -0.5517
 4190TIP3   OH234128   2.803   6.537   7.529  0.0743  0.0783  0.2193
 4190TIP3    H134129   2.878   6.496   7.484 -0.3175  0.1433 -0.5194
 4190TIP3    H234130   2.740   6.554   7.459 -1.0925 -0.9661  0.9829
 4191TIP3   OH234131   0.896   4.463   1.665  0.6807 -0.1959  0.3408
 4191TIP3    H134132   0.860   4.550   1.686 -1.4288 -0.4214 -1.8680
 4191TIP3    H234133   0.980   4.481   1.625 -0.2299  0.9843 -1.1563
 4192TIP3   OH234134   2.998   1.120   1.991 -0.1823  0.2621  0.2698
 4192TIP3    H134135   2.906   1.135   2.012 -0.2356  1.0448 -0.4569
 4192TIP3    H234136   3.045   1.192   2.034  0.1756 -0.4487  1.1188
 4193TIP3   OH234137   1.736   6.406   0.800  0.1228  0.3061 -0.3621
 4193TIP3    H134138   1.765   6.321   0.833 -1.0243  0.7813  2.0712
 4193TIP3    H234139   1.796   6.469   0.839 -1.0328  0.8630  0.5662
 4194TIP3   OH234140   3.409   3.655   0.517  0.2602 -0.1255 -0.0538
 4194TIP3    H134141   3.431   3.562   0.528 -0.8315 -0.4579 -0.5843
 4194TIP3    H234142   3.340   3.671   0.581 -0.0055  0.1563 -0.4124
 4195TIP3   OH234143   1.374   4.318   3.012  0.2438  0.3319 -0.7329
 4195TIP3    H134144   1.336   4.367   2.939  0.3841  1.2643 -0.2027
 4195TIP3    H234145   1.331   4.233   3.011 -3.3493  1.9302  1.0110
 4196TIP3   OH234146   1.135   1.472   1.989 -0.1801 -0.3607 -0.1533
 4196TIP3    H134147   1.176   1.400   2.038 -0.8622  0.7406  2.1654
 4196TIP3    H234148   1.188   1.479   1.910  2.4195 -0.8208  1.4171
 4197TIP3   OH234149   2.866   3.532   8.418  0.4556  0.0194  0.0704
 4197TIP3    H134150   2.863   3.445   8.459  1.1684  0.0935  0.2884
 4197TIP3    H234151   2.837   3.517   8.328 -0.7545 -0.2076  0.4822
 4198TIP3   OH234152   1.313   5.279   2.758 -0.1438 -0.2624  0.0316
 4198TIP3    H134153   1.332   5.185   2.760  3.3433  0.2156 -2.0806
 4198TIP3    H234154   1.309   5.305   2.850  1.4543 -2.0760  0.6686
 4199TIP3   OH234155   1.663   3.683   1.738 -0.0982 -0.0572 -0.1846
 4199TIP3    H134156   1.728   3.615   1.721 -0.7338 -0.3256 -1.6494
 4199TIP3    H234157   1.580   3.637   1.741 -0.2148  0.1823  2.3911
 4200TIP3   OH234158   1.263   3.818   9.082  0.0015 -0.0348 -0.4852
 4200TIP3    H134159   1.316   3.898   9.083 -0.3133  0.1977 -1.4269
 4200TIP3    H234160   1.281   3.777   9.166  0.9833  0.4912 -0.4188
 4201TIP3   OH234161   3.330   0.531   0.695 -0.0484 -0.0930  0.1005
 4201TIP3    H134162   3.237   0.540   0.674 -0.2835 -1.5901  0.4108
 4201TIP3    H234163   3.333   0.533   0.791  0.3161  0.5356  0.0807
 4202TIP3   OH234164   4.449   4.102   9.045  0.6969 -0.2159 -0.0588
 4202TIP3    H134165   4.403   4.075   8.965  1.7893 -1.4142 -0.3127
 4202TIP3    H234166   4.382   4.144   9.098 -0.2645 -0.2480 -1.2068
 4203TIP3   OH234167   1.797   2.720   0.194  0.4540  0.4170  0.3365
 4203TIP3    H134168   1.708   2.687   0.208  0.4713  0.2074 -0.0303
 4203TIP3    H234169   1.828   2.744   0.281  0.3468 -0.3082  0.5832
 4204TIP3   OH234170   4.512   0.518   1.674 -0.3823 -0.0264 -0.2487
 4204TIP3    H134171   4.430   0.566   1.661 -0.1536 -0.1452 -2.6339
 4204TIP3    H234172   4.565   0.576   1.727 -1.4758  0.7109  0.0753
 4205TIP3   OH234173   3.099   3.143   1.076  0.5076  0.4407  0.6683
 4205TIP3    H134174   3.114   3.162   1.168  2.2778 -1.3036  0.8122
 4205TIP3    H234175   3.031   3.076   1.076  0.1394  0.8109  0.6613
 4206TIP3   OH234176   2.794   6.323   0.933 -0.0632  0.3533  0.0909
 4206TIP3    H134177   2.860   6.383   0.898  0.4528 -0.6131 -0.6214
 4206TIP3    H234178   2.810   6.240   0.887 -4.6693  1.1749 -3.8093
 4207TIP3   OH234179   1.122   3.654   0.927 -0.0999 -0.1179  0.3636
 4207TIP3    H134180   1.069   3.701   0.863  1.4182  0.5220 -0.4756
 4207TIP3    H234181   1.078   3.570   0.938 -2.1533  0.9560  0.9174
 4208TIP3   OH234182   5.885   0.283   1.534  0.2194  0.5703 -0.1635
 4208TIP3    H134183   5.802   0.326   1.515  0.5134  0.3057 -2.2374
 4208TIP3    H234184   5.860   0.203   1.581 -0.7592  0.3388 -1.0314
 4209TIP3   OH234185   5.829   3.696   1.189  0.1736  0.3283  0.5818
 4209TIP3    H134186   5.824   3.607   1.154  0.9611  0.0398  1.1982
 4209TIP3    H234187   5.777   3.748   1.128  1.3804 -0.1901 -0.9328
 4210TIP3   OH234188   4.308   0.574   0.925  0.4654 -0.6561 -0.3406
 4210TIP3    H134189   4.369   0.549   0.994  2.6353 -2.1753 -2.6367
 4210TIP3    H234190   4.256   0.495   0.908  0.9196 -0.7625 -1.3370
 4211TIP3   OH234191   3.750   6.192   2.240  0.2429 -0.2224 -0.1942
 4211TIP3    H134192   3.686   6.128   2.208 -0.7022  0.4527  0.2992
 4211TIP3    H234193   3.777   6.159   2.325  0.0428 -0.1636 -0.1076
 4212TIP3   OH234194   6.578   3.354   9.005 -0.0770 -0.2774  0.0944
 4212TIP3    H134195   6.621   3.281   9.050  0.9041 -0.0013 -0.3670
 4212TIP3    H234196   6.592   3.336   8.912  0.9506  0.9242 -0.0171
 4213TIP3   OH234197   3.423   0.165   2.529 -0.2659 -0.6675 -0.1695
 4213TIP3    H134198   3.414   0.240   2.471  2.4639  0.2456  0.4256
 4213TIP3    H234199   3.394   0.197   2.615 -0.4009 -0.7430 -0.1857
 4214TIP3   OH234200   3.483   3.153   7.667  0.2155 -0.7237 -0.3939
 4214TIP3    H134201   3.412   3.190   7.615 -0.2313 -0.2649  0.5183
 4214TIP3    H234202   3.441   3.124   7.748  0.6503 -2.7249 -0.8293
 4215TIP3   OH234203   3.245   4.235   7.904  0.8232  0.2101  0.9221
 4215TIP3    H134204   3.325   4.205   7.861  0.0402  0.5966 -0.9280
 4215TIP3    H234205   3.209   4.156   7.944  1.3127 -0.3035  0.3712
 4216TIP3   OH234206   1.988   6.381   2.380  0.2777 -0.5758 -0.4158
 4216TIP3    H134207   2.054   6.441   2.345  0.9112 -0.5068  0.8306
 4216TIP3    H234208   1.985   6.401   2.474 -0.6588 -1.3956 -0.2550
 4217TIP3   OH234209   0.517   5.413   3.338 -0.0749 -0.4577 -0.1472
 4217TIP3    H134210   0.580   5.482   3.320 -2.2635  1.1752 -2.1313
 4217TIP3    H234211   0.485   5.387   3.252 -3.7488  0.4743  0.7627
 4218TIP3   OH234212   5.169   1.417   9.046  0.0511  0.8825 -0.4180
 4218TIP3    H134213   5.184   1.473   8.970 -1.2043  1.4804 -0.2515
 4218TIP3    H234214   5.077   1.392   9.040  0.5657 -1.2089 -0.4809
 4219TIP3   OH234215   4.582   5.829   3.009 -0.0871  0.2617 -0.2763
 4219TIP3    H134216   4.576   5.922   3.032 -1.0480 -0.2890  1.9015
 4219TIP3    H234217   4.652   5.826   2.943  0.1873  2.4719 -0.1799
 4220TIP3   OH234218   3.092   2.684   0.298  0.1908 -0.1724  0.0776
 4220TIP3    H134219   3.162   2.668   0.361  0.3788 -2.0625 -0.5353
 4220TIP3    H234220   3.112   2.624   0.226 -2.1158 -0.8615 -0.0519
 4221TIP3   OH234221   3.971   5.780   8.439  0.9647  0.5249  0.0893
 4221TIP3    H134222   3.942   5.783   8.530  0.2541  2.3060 -0.1514
 4221TIP3    H234223   3.913   5.716   8.398 -0.4762  1.6029  0.3496
 4222TIP3   OH234224   3.064   4.136   0.289  0.2328  0.2172  0.4330
 4222TIP3    H134225   3.055   4.053   0.336  3.3622  0.0129  0.8318
 4222TIP3    H234226   3.142   4.176   0.326 -0.9409  3.1997 -0.0522
 4223TIP3   OH234227   3.999   1.396   2.523 -0.2456 -0.0545 -0.2125
 4223TIP3    H134228   4.013   1.490   2.514 -1.0430 -0.0536 -1.8284
 4223TIP3    H234229   3.914   1.388   2.567  0.5467 -0.0498  1.3802
 4224TIP3   OH234230   3.960   2.240   7.749  0.0581 -0.2783 -0.2629
 4224TIP3    H134231   3.995   2.310   7.693 -0.4281  0.4902  0.3560
 4224TIP3    H234232   4.026   2.172   7.748  0.9497  0.5659 -0.1973
 4225TIP3   OH234233   4.358   6.272   8.737  0.0287 -0.1964 -0.2562
 4225TIP3    H134234   4.376   6.366   8.740 -0.2203 -0.1599  0.1230
 4225TIP3    H234235   4.356   6.245   8.829 -2.8107 -0.0102 -0.1656
 4226TIP3   OH234236   5.294   1.759   1.299 -0.3599  0.7575  0.3710
 4226TIP3    H134237   5.198   1.756   1.307 -0.3260  1.5852  1.1305
 4226TIP3    H234238   5.309   1.790   1.210 -0.7487 -2.5793 -1.0474
 4227TIP3   OH234239   5.026   6.579   0.672 -0.3070  0.3956 -0.2628
 4227TIP3    H134240   5.117   6.607   0.686  0.1009 -0.7956 -0.4107
 4227TIP3    H234241   4.976   6.624   0.740  0.7908 -0.9432  1.5073
 4228TIP3   OH234242   1.387   6.047   1.922  0.1167  0.2155  0.0067
 4228TIP3    H134243   1.444   5.986   1.875  0.9101  2.8916 -2.8782
 4228TIP3    H234244   1.304   6.043   1.875 -0.8212 -0.6535  1.6299
 4229TIP3   OH234245   0.051   4.517   2.191 -0.1779  0.6284  0.7652
 4229TIP3    H134246   0.093   4.537   2.274  2.3413  3.7256 -1.0234
 4229TIP3    H234247   0.103   4.447   2.153 -2.5403 -2.2834  2.4329
 4230TIP3   OH234248   4.810   6.486   0.501  0.5534  0.3386 -0.5210
 4230TIP3    H134249   4.751   6.560   0.488 -2.7725 -2.2853 -1.7180
 4230TIP3    H234250   4.868   6.514   0.572 -0.5070  4.0082 -0.9008
 4231TIP3   OH234251   2.689   3.339   8.622 -0.1804 -0.7335 -0.0639
 4231TIP3    H134252   2.716   3.305   8.707  2.0140  0.0137 -0.3975
 4231TIP3    H234253   2.635   3.415   8.642 -0.8406 -1.3753  0.6478
 4232TIP3   OH234254   2.346   2.239   7.767  0.0298  0.1449 -0.5352
 4232TIP3    H134255   2.392   2.272   7.690 -2.5801  1.1981 -1.7685
 4232TIP3    H234256   2.360   2.306   7.834 -0.7392  1.0849 -1.2991
 4233TIP3   OH234257   6.294   1.314   8.307 -0.0552  0.3770  0.4322
 4233TIP3    H134258   6.326   1.377   8.373 -0.6323  0.7517  0.3579
 4233TIP3    H234259   6.355   1.324   8.234  0.5487  0.0081  0.8758
 4234TIP3   OH234260   5.180   2.578   7.495  0.2423  0.1792  0.0043
 4234TIP3    H134261   5.164   2.556   7.587  1.4211 -1.4529 -0.1421
 4234TIP3    H234262   5.097   2.561   7.451  0.5064 -2.2099  0.2710
 4235TIP3   OH234263   5.956   3.904   8.645 -0.2262 -0.0246  0.0364
 4235TIP3    H134264   5.882   3.953   8.681 -0.4724 -0.3847  0.0249
 4235TIP3    H234265   5.947   3.914   8.550  0.7084  1.3448  0.0732
 4236TIP3   OH234266   3.563   4.443   0.796 -0.0647 -0.5112 -0.3373
 4236TIP3    H134267   3.524   4.457   0.882  1.4107 -0.3656  0.3536
 4236TIP3    H234268   3.595   4.353   0.798 -0.2758 -0.5987 -0.8369
 4237TIP3   OH234269   1.980   0.471   8.181 -0.0627  0.1002  0.2704
 4237TIP3    H134270   1.976   0.565   8.164 -1.0193  0.3098  1.4537
 4237TIP3    H234271   2.023   0.464   8.266 -0.9881 -0.4410  0.7074
 4238TIP3   OH234272   2.710   5.379   7.788  0.0138  0.5203 -0.3091
 4238TIP3    H134273   2.675   5.355   7.702  1.6964 -0.5768 -0.7246
 4238TIP3    H234274   2.804   5.393   7.773  0.1407  1.4567  1.1395
 4239TIP3   OH234275   4.534   4.994   1.203 -0.1833 -0.1505 -0.0212
 4239TIP3    H134276   4.504   5.082   1.222 -1.2686 -0.4411 -0.2883
 4239TIP3    H234277   4.629   5.002   1.194 -0.1093  0.7357  1.2544
 4240TIP3   OH234278   6.434   6.080   8.308  0.3308  0.7256  0.4113
 4240TIP3    H134279   6.516   6.128   8.299  0.5595  0.4958  1.2330
 4240TIP3    H234280   6.366   6.147   8.312  0.6154  0.9778  1.2013
 4241TIP3   OH234281   0.260   3.638   0.818 -0.0951  0.1547  0.3568
 4241TIP3    H134282   0.318   3.562   0.812  0.5539  0.7158 -0.8487
 4241TIP3    H234283   0.275   3.686   0.736 -0.2318  1.7596  1.2400
 4242TIP3   OH234284   3.530   6.325   0.414  0.5016  0.4357  0.0311
 4242TIP3    H134285   3.550   6.415   0.441  1.5556  0.7183 -1.6221
 4242TIP3    H234286   3.521   6.329   0.319 -2.8268 -0.5940  0.1576
 4243TIP3   OH234287   3.077   5.838   8.508 -0.3224  0.4040  0.9206
 4243TIP3    H134288   3.093   5.853   8.601  2.3831  1.8342  0.3124
 4243TIP3    H234289   2.989   5.872   8.494 -0.6882  0.4058  2.8753
 4244TIP3   OH234290   4.856   1.319   2.159 -0.8036 -0.5589  0.5847
 4244TIP3    H134291   4.899   1.398   2.192 -0.1264 -1.6783  2.5112
 4244TIP3    H234292   4.765   1.328   2.185 -0.6617 -0.5431  1.0845
 4245TIP3   OH234293   5.186   5.348   3.341  0.6108  0.5211  0.5663
 4245TIP3    H134294   5.244   5.419   3.368  0.1281  1.3955 -0.6219
 4245TIP3    H234295   5.223   5.316   3.259  1.1264 -0.9949  1.3487
 4246TIP3   OH234296   4.645   4.130   1.453 -0.1387 -0.1275 -0.4431
 4246TIP3    H134297   4.599   4.145   1.370 -2.0207 -0.3118  0.5138
 4246TIP3    H234298   4.629   4.038   1.473 -0.3930  0.1197  0.5252
 4247TIP3   OH234299   2.769   1.690   0.523 -0.5796 -0.1185  0.0227
 4247TIP3    H134300   2.818   1.630   0.467  2.8026  0.3276  2.2087
 4247TIP3    H234301   2.787   1.777   0.487 -1.7175 -0.0591 -0.4588
 4248TIP3   OH234302   2.761   5.199   8.508 -0.0237 -0.1869 -0.2024
 4248TIP3    H134303   2.732   5.219   8.597  2.2172  1.1870  0.2880
 4248TIP3    H234304   2.825   5.129   8.518 -0.7093 -0.9583 -0.9273
 4249TIP3   OH234305   3.783   0.178   2.371  0.3450  0.4975 -0.2465
 4249TIP3    H134306   3.723   0.185   2.445 -0.5905 -0.6657 -0.8721
 4249TIP3    H234307   3.865   0.147   2.409 -0.7006 -2.0531  0.0808
 4250TIP3   OH234308   5.037   6.594   0.019  0.2733 -0.2437  0.5938
 4250TIP3    H134309   5.028   6.558  -0.069 -0.2692 -1.0827  0.9863
 4250TIP3    H234310   5.106   6.660   0.011  0.4208 -0.5124 -0.3993
 4251TIP3   OH234311   4.830   6.506   1.389 -0.3305 -0.5429 -0.4681
 4251TIP3    H134312   4.801   6.553   1.467 -0.4068 -0.5195 -0.5104
 4251TIP3    H234313   4.874   6.572   1.336  0.1451 -0.6630 -0.2252
 4252TIP3   OH234314   2.350   2.650   8.912  0.2140 -0.7163 -0.3757
 4252TIP3    H134315   2.340   2.744   8.922 -0.9693 -0.8723  0.0843
 4252TIP3    H234316   2.419   2.626   8.975  2.2783  0.1270 -2.1738
 4253TIP3   OH234317   1.659   3.324   7.797 -0.2852  0.1546  0.6742
 4253TIP3    H134318   1.590   3.381   7.764 -0.4578  0.5404  1.6574
 4253TIP3    H234319   1.618   3.238   7.805 -0.0967 -0.0646 -0.5632
 4254TIP3   OH234320   1.339   1.300   0.333 -0.2448  0.6098 -0.6005
 4254TIP3    H134321   1.319   1.271   0.422  1.0715 -2.0028 -1.0651
 4254TIP3    H234322   1.258   1.343   0.304 -0.7946  1.2956  1.7153
 4255TIP3   OH234323   3.683   3.120   8.530 -0.0138  0.0521 -0.8336
 4255TIP3    H134324   3.723   3.039   8.563 -1.0256  0.0415  0.4667
 4255TIP3    H234325   3.623   3.090   8.462 -1.5360 -0.5198  0.6852
 4256TIP3   OH234326   3.106   4.002   7.117 -0.0887  0.9662  0.0765
 4256TIP3    H134327   3.073   4.083   7.077 -0.6898  0.8705  0.3681
 4256TIP3    H234328   3.199   4.000   7.095  0.2299  2.4068  1.1934
 4257TIP3   OH234329   0.269   4.002   8.549  0.2129  0.3207  0.0084
 4257TIP3    H134330   0.360   4.029   8.553  0.4645 -0.2186 -1.4080
 4257TIP3    H234331   0.260   3.938   8.619  1.2058 -0.3519 -0.4524
 4258TIP3   OH234332   6.276   4.480   7.978  0.7549  0.8588  0.1425
 4258TIP3    H134333   6.243   4.559   8.022  0.7747  0.8903  0.1003
 4258TIP3    H234334   6.231   4.479   7.893  1.3958  1.2842 -0.2074
 4259TIP3   OH234335   6.114   1.264   0.135  0.0523  0.5967 -1.0501
 4259TIP3    H134336   6.161   1.196   0.087  1.6461  0.1870  0.9261
 4259TIP3    H234337   6.088   1.222   0.217 -0.5936  1.8452 -0.5813
 4260TIP3   OH234338   2.544   5.445   1.139 -0.6461  0.2046  0.0145
 4260TIP3    H134339   2.538   5.392   1.059 -0.0751  2.8761 -1.9429
 4260TIP3    H234340   2.638   5.456   1.154 -0.7551  0.2539  0.7086
 4261TIP3   OH234341   1.267   1.807   7.511  0.1399 -0.3810  0.0089
 4261TIP3    H134342   1.330   1.841   7.448 -0.0549  0.7984  0.4243
 4261TIP3    H234343   1.204   1.878   7.524 -2.0358 -1.9395 -1.3310
 4262TIP3   OH234344   3.970   1.785   1.053 -0.2977 -0.2371  0.4870
 4262TIP3    H134345   3.891   1.764   1.102 -0.5419 -1.7349 -0.4860
 4262TIP3    H234346   3.991   1.704   1.006  1.5481  0.2817  0.3641
 4263TIP3   OH234347   0.707   0.134   8.539  0.0641 -0.6413  0.3249
 4263TIP3    H134348   0.774   0.067   8.553  0.2715 -1.1736 -2.5908
 4263TIP3    H234349   0.754   0.217   8.545  1.1048 -1.0118 -1.7026
 4264TIP3   OH234350   2.441   3.699   8.104 -0.3083 -0.1216  0.1564
 4264TIP3    H134351   2.372   3.658   8.156 -1.8245  1.7005 -0.3242
 4264TIP3    H234352   2.522   3.674   8.149 -1.4449 -0.0122  2.4060
 4265TIP3   OH234353   6.138   4.772   1.736 -0.0462 -0.1028  0.1454
 4265TIP3    H134354   6.065   4.832   1.724  0.1645 -0.1234 -1.4165
 4265TIP3    H234355   6.098   4.685   1.740 -0.5572  0.0820  4.2294
 4266TIP3   OH234356   1.364   4.332   7.272 -0.3005 -0.1416  0.0284
 4266TIP3    H134357   1.429   4.267   7.298 -0.6493 -0.2210  0.7360
 4266TIP3    H234358   1.371   4.336   7.177  0.3559 -0.5476  0.0512
 4267TIP3   OH234359   4.269   2.299   0.797 -0.1284  0.1407  0.0440
 4267TIP3    H134360   4.180   2.287   0.765  0.1906 -2.3006 -0.0517
 4267TIP3    H234361   4.269   2.258   0.883  0.4535  1.8307  0.8982
 4268TIP3   OH234362   2.219   4.648   0.056  0.3062  0.0315 -0.0142
 4268TIP3    H134363   2.294   4.599   0.021  0.5750  0.5511 -0.1776
 4268TIP3    H234364   2.232   4.646   0.151  1.9748  2.3193 -0.1235
 4269TIP3   OH234365   0.081   1.260   7.220  0.0039  0.3879  0.2815
 4269TIP3    H134366   0.094   1.166   7.205 -2.8636 -0.2758  1.1494
 4269TIP3    H234367   0.153   1.303   7.174  1.6639 -2.2454  0.2366
 4270TIP3   OH234368   1.447   5.321   0.301  0.2772 -0.1285  0.2334
 4270TIP3    H134369   1.485   5.234   0.294 -1.3810 -1.4463  4.4357
 4270TIP3    H234370   1.361   5.313   0.260  0.4744 -0.1728 -0.1785
 4271TIP3   OH234371   0.445   0.899   1.555  0.3165 -0.2866  0.1852
 4271TIP3    H134372   0.434   0.984   1.513 -0.0278 -0.2984  0.2549
 4271TIP3    H234373   0.361   0.880   1.595  1.2337  0.7848  2.8770
 4272TIP3   OH234374   1.816   1.798   1.161 -0.1305  0.4180 -0.1610
 4272TIP3    H134375   1.834   1.891   1.175  1.1797  0.0999  0.3938
 4272TIP3    H234376   1.886   1.769   1.103 -0.4298 -0.2767 -0.1772
 4273TIP3   OH234377   2.188   1.363   8.604 -0.1806  0.0165  0.3561
 4273TIP3    H134378   2.257   1.322   8.552 -0.6867  0.4106 -0.6539
 4273TIP3    H234379   2.120   1.295   8.612 -0.0517 -0.0839  0.6136
 4274TIP3   OH234380   2.109   3.015   1.975  0.2832 -0.3328  0.2047
 4274TIP3    H134381   2.115   3.041   2.067 -1.0618  0.5985  0.0555
 4274TIP3    H234382   2.158   3.082   1.928  1.2826 -1.0108  0.2564
 4275TIP3   OH234383   5.503   4.081   0.105 -0.1542 -0.6080  0.4607
 4275TIP3    H134384   5.415   4.117   0.095 -0.5303 -1.9132 -1.6736
 4275TIP3    H234385   5.488   3.991   0.134  0.6592  0.0516  3.1909
 4276TIP3   OH234386   2.149   6.362   3.164  0.0448 -0.2321  0.1958
 4276TIP3    H134387   2.184   6.365   3.075  1.1400  1.5472  0.6403
 4276TIP3    H234388   2.095   6.440   3.172 -1.1886 -1.1000  0.6833
 4277TIP3   OH234389   3.685   0.199   1.419  0.5500  0.1332  0.6956
 4277TIP3    H134390   3.619   0.248   1.466  0.2321  0.6639 -0.2811
 4277TIP3    H234391   3.763   0.254   1.422  0.3779  0.4102  0.1537
 4278TIP3   OH234392   5.791   0.035   1.662 -0.1341 -0.3776 -0.7509
 4278TIP3    H134393   5.863  -0.024   1.638 -0.1849 -0.1194 -1.5658
 4278TIP3    H234394   5.794   0.038   1.757  0.3390 -1.1132 -0.7324
 4279TIP3   OH234395   1.997   1.108   8.076 -0.0347 -0.4535 -0.4069
 4279TIP3    H134396   2.051   1.151   8.143 -1.2035 -0.3419  0.5033
 4279TIP3    H234397   1.936   1.054   8.125 -1.5614  0.3637 -1.2986
 4280TIP3   OH234398   4.452   3.444   1.798 -0.3584 -0.4056 -0.1351
 4280TIP3    H134399   4.491   3.360   1.822  0.7858  0.2104  0.2475
 4280TIP3    H234400   4.375   3.452   1.853 -0.3883 -1.1352 -0.0668
 4281TIP3   OH234401   3.788   2.869   0.363 -0.2331  0.0075  0.5523
 4281TIP3    H134402   3.853   2.801   0.380  1.2188  1.5614  1.4864
 4281TIP3    H234403   3.839   2.948   0.344 -1.8561  1.0115  0.1233
 4282TIP3   OH234404   3.351   2.550   0.418  0.3962 -0.3199 -0.2458
 4282TIP3    H134405   3.428   2.606   0.410 -0.6409  0.9397 -1.7645
 4282TIP3    H234406   3.350   2.498   0.338 -0.6111  0.0325 -0.4743
 4283TIP3   OH234407   5.837   5.503   2.274 -0.4693  0.1907 -0.1990
 4283TIP3    H134408   5.900   5.432   2.264 -0.5970  0.1737 -0.9479
 4283TIP3    H234409   5.756   5.461   2.301  0.0973  0.3186  1.8342
 4284TIP3   OH234410   1.732   3.463   2.097  0.0231 -0.1113  0.0235
 4284TIP3    H134411   1.734   3.559   2.089  0.0640  0.1325  2.3138
 4284TIP3    H234412   1.642   3.439   2.075  0.1806  0.3498 -1.2222
 4285TIP3   OH234413   5.991   6.078   1.863  0.2044 -0.1818  0.5629
 4285TIP3    H134414   5.995   5.986   1.889  1.7634 -0.9242 -1.9373
 4285TIP3    H234415   5.903   6.089   1.827  0.6098 -1.2935 -0.8688
 4286TIP3   OH234416   3.221   6.460   2.273 -0.0585  0.8627 -0.1557
 4286TIP3    H134417   3.283   6.399   2.233  0.7923  2.0075 -0.5979
 4286TIP3    H234418   3.271   6.504   2.342 -1.0249  0.1694  1.0352
 4287TIP3   OH234419   5.675   1.639   7.957  0.0536 -0.4235  0.2706
 4287TIP3    H134420   5.737   1.588   8.007  0.6040  0.0541  0.0819
 4287TIP3    H234421   5.687   1.729   7.987 -0.7652 -0.3698  0.4596
 4288TIP3   OH234422   5.826   4.679   0.452 -0.1264 -0.6222 -0.2291
 4288TIP3    H134423   5.906   4.694   0.400 -0.2497 -0.6764 -0.4381
 4288TIP3    H234424   5.768   4.630   0.393 -0.9920  0.9172 -0.7201
 4289TIP3   OH234425   1.014   6.502   1.714 -0.3036 -0.3255 -0.6493
 4289TIP3    H134426   1.003   6.407   1.712  1.6226 -0.5812 -1.0132
 4289TIP3    H234427   1.023   6.528   1.623  0.5302 -0.0014 -0.4877
 4290TIP3   OH234428   1.165   5.007   0.841 -0.1249  0.2459 -0.1532
 4290TIP3    H134429   1.189   5.093   0.808 -0.7583 -0.1686 -1.8525
 4290TIP3    H234430   1.246   4.956   0.837 -0.0635  0.3703 -0.5188
 4291TIP3   OH234431   4.045   1.173   1.475 -0.6024 -0.0166  0.2458
 4291TIP3    H134432   4.047   1.169   1.380  1.6761 -0.9091  0.2705
 4291TIP3    H234433   4.129   1.135   1.503 -0.8475  0.9675  2.5793
 4292TIP3   OH234434   5.538   1.324   1.772 -0.3455  1.0723 -0.5435
 4292TIP3    H134435   5.626   1.292   1.796 -0.5537  1.6669  1.1600
 4292TIP3    H234436   5.494   1.335   1.856 -2.5502 -0.4888 -1.4137
 4293TIP3   OH234437   2.343   2.111   3.002 -0.1216 -0.2530 -0.3743
 4293TIP3    H134438   2.320   2.108   3.095 -0.8631  0.2734 -0.5304
 4293TIP3    H234439   2.351   2.205   2.983  0.3147 -0.3702 -0.7759
 4294TIP3   OH234440   3.205   3.895   0.715 -0.6226  0.2681 -0.5879
 4294TIP3    H134441   3.187   3.874   0.624  1.4397 -0.8785 -0.7891
 4294TIP3    H234442   3.212   3.991   0.716 -1.4770  0.3553 -1.4487
 4295TIP3   OH234443   2.520   1.463   0.272 -0.3208 -0.3684  0.1522
 4295TIP3    H134444   2.561   1.387   0.313  0.7916  0.8112  1.3060
 4295TIP3    H234445   2.483   1.513   0.345 -0.1498  0.7164 -0.4823
 4296TIP3   OH234446   1.205   1.659   8.447 -0.1791 -0.6674 -0.2325
 4296TIP3    H134447   1.144   1.727   8.475 -0.2860 -0.4141 -1.0341
 4296TIP3    H234448   1.196   1.657   8.352  1.8227  0.1292 -0.4976
 4297TIP3   OH234449   2.334   3.782   0.446  0.3284  0.4687  0.6220
 4297TIP3    H134450   2.340   3.766   0.540  1.0936  1.8037  0.8181
 4297TIP3    H234451   2.289   3.704   0.412  1.4511 -0.7804  1.8517
 4298TIP3   OH234452   0.326   6.238   8.667 -0.2198 -0.6471  0.3513
 4298TIP3    H134453   0.354   6.157   8.625 -1.0602 -1.1836  0.8025
 4298TIP3    H234454   0.354   6.229   8.758 -0.1096 -0.3246  0.3504
 4299TIP3   OH234455   2.808   2.321   7.458 -0.5184  0.9342  0.0236
 4299TIP3    H134456   2.739   2.330   7.392 -1.0525 -0.9833  0.2540
 4299TIP3    H234457   2.882   2.371   7.422 -0.4045 -0.9242 -2.6039
 4300TIP3   OH234458   0.882   2.345   7.100 -0.2830 -0.2044 -0.2750
 4300TIP3    H134459   0.902   2.267   7.047  0.0130  0.6800 -1.5246
 4300TIP3    H234460   0.945   2.410   7.070  0.3307  0.1541  1.6680
 4301TIP3   OH234461   6.436   5.797   1.632 -0.4315  0.1233 -0.0869
 4301TIP3    H134462   6.450   5.720   1.577  0.1627 -0.6536  1.0921
 4301TIP3    H234463   6.378   5.767   1.702  0.5712  0.4379  0.9336
 4302TIP3   OH234464   1.973   0.998   2.073 -0.1563 -0.6372  0.3520
 4302TIP3    H134465   1.919   0.926   2.106  1.0025 -0.9313  1.7115
 4302TIP3    H234466   2.001   1.045   2.152 -1.1059  1.5069 -0.5069
 4303TIP3   OH234467   1.782   2.127   2.029 -0.4099  0.5329 -0.0628
 4303TIP3    H134468   1.839   2.089   2.096 -0.7511  2.6157  1.5053
 4303TIP3    H234469   1.704   2.071   2.029  0.1384 -0.2491  0.3453
 4304TIP3   OH234470   1.954   1.671   1.387  0.0580 -0.1090 -0.3422
 4304TIP3    H134471   1.921   1.687   1.299  2.4876 -0.7573 -1.4455
 4304TIP3    H234472   2.018   1.741   1.402 -0.8812  0.4746  1.2802
 4305TIP3   OH234473   6.667   4.870   0.651 -0.1560 -0.3662 -0.1913
 4305TIP3    H134474   6.661   4.810   0.577  1.3315 -2.1501  1.0255
 4305TIP3    H234475   6.761   4.882   0.665 -0.3914  2.4421 -0.4668
 4306TIP3   OH234476   1.867   1.517   2.582  0.1158  0.0494  0.1713
 4306TIP3    H134477   1.854   1.611   2.592 -0.0009  0.2348 -1.4777
 4306TIP3    H234478   1.786   1.486   2.540  0.7669 -0.5199 -0.6911
 4307TIP3   OH234479   0.626   5.553   2.502 -0.0671 -0.2456 -0.0052
 4307TIP3    H134480   0.554   5.606   2.467 -0.0078  0.6944  1.2404
 4307TIP3    H234481   0.583   5.484   2.552 -0.1195 -0.8502 -0.8507
 4308TIP3   OH234482   0.427   1.976   1.236  0.8032  0.1900  0.5865
 4308TIP3    H134483   0.507   2.027   1.248  0.9151 -0.0167  0.7166
 4308TIP3    H234484   0.452   1.886   1.257  0.9911 -0.1861 -1.1567
 4309TIP3   OH234485   3.530   0.665   1.244 -0.1989  0.1287 -0.0049
 4309TIP3    H134486   3.565   0.582   1.211 -3.4180 -1.3625 -0.1072
 4309TIP3    H234487   3.600   0.702   1.298  1.1485 -2.9743  0.5631
 4310TIP3   OH234488   2.190   3.568   7.869 -0.0501  0.2525  0.1159
 4310TIP3    H134489   2.163   3.482   7.836 -1.7176  0.6792  0.2770
 4310TIP3    H234490   2.159   3.569   7.959 -0.2766  1.1221  0.0295
 4311TIP3   OH234491   5.826   3.437   0.604  0.1496 -0.0756  0.0286
 4311TIP3    H134492   5.810   3.465   0.514 -2.7081  0.1081  0.4817
 4311TIP3    H234493   5.791   3.509   0.658  0.4214 -0.8400  1.2582
 4312TIP3   OH234494   0.871   5.491   8.569  0.5908  0.8746  0.0560
 4312TIP3    H134495   0.804   5.500   8.501  0.6608 -0.2387 -0.1789
 4312TIP3    H234496   0.834   5.427   8.630  1.1189  0.8334  0.3332
 4313TIP3   OH234497   1.542   4.120   7.945  0.2621  0.3962 -0.4047
 4313TIP3    H134498   1.574   4.125   8.035 -1.7315 -0.5306  0.4140
 4313TIP3    H234499   1.514   4.209   7.925  1.4301  0.7824 -0.4299
 4314TIP3   OH234500   2.605   4.035   2.476  0.4973  0.0123  0.4447
 4314TIP3    H134501   2.552   3.956   2.493 -0.4995  0.5047 -0.2754
 4314TIP3    H234502   2.688   4.018   2.521 -0.0284 -1.0676  1.0546
 4315TIP3   OH234503   4.991   2.613   7.988 -0.0091 -0.0691  0.2297
 4315TIP3    H134504   5.038   2.680   8.037 -0.8835  0.4975  0.3124
 4315TIP3    H234505   4.974   2.543   8.051 -1.2349  0.7094  0.7830
 4316TIP3   OH234506   3.359   2.815   1.771  0.1375 -0.3028 -0.3104
 4316TIP3    H134507   3.333   2.890   1.719  0.8695 -0.5283 -1.0192
 4316TIP3    H234508   3.449   2.834   1.799 -0.3676 -0.0029  1.2232
 4317TIP3   OH234509   5.406   2.083   7.584  1.0020  0.5542  0.3955
 4317TIP3    H134510   5.460   2.124   7.517  0.9959  1.8195  1.1441
 4317TIP3    H234511   5.343   2.029   7.535  0.5826  1.9504 -0.6480
 4318TIP3   OH234512   2.470   0.208   8.171 -0.0482 -0.5217 -0.0700
 4318TIP3    H134513   2.462   0.295   8.132  0.5727 -0.9144 -1.1140
 4318TIP3    H234514   2.381   0.187   8.201 -0.0685  0.7528  0.8678
 4319TIP3   OH234515   3.826   4.374   8.399 -0.0838 -0.1747  0.5972
 4319TIP3    H134516   3.750   4.379   8.457 -1.4304 -0.6725 -1.0512
 4319TIP3    H234517   3.812   4.294   8.349  1.8267 -0.5527  0.6165
 4320TIP3   OH234518   2.197   2.618   2.032 -0.0854 -1.0047 -0.1619
 4320TIP3    H134519   2.168   2.582   1.948  1.1843 -1.8073 -0.2829
 4320TIP3    H234520   2.292   2.627   2.022 -0.0656  0.0029  0.7870
 4321TIP3   OH234521   5.375   3.027   8.778 -0.1140 -0.2341  0.1367
 4321TIP3    H134522   5.283   3.040   8.800 -0.4599 -1.0986 -0.7705
 4321TIP3    H234523   5.422   3.078   8.844 -1.2239 -0.0118  0.7827
 4322TIP3   OH234524   3.064   4.738   8.420 -0.1632 -0.6910  0.0128
 4322TIP3    H134525   3.048   4.732   8.326 -1.7294  0.7598  0.1169
 4322TIP3    H234526   3.131   4.673   8.438  1.3437  0.0676 -2.3686
 4323TIP3   OH234527   4.338   0.690   8.954  0.1946 -0.2556 -0.1282
 4323TIP3    H134528   4.351   0.745   8.877 -1.7391  1.9017  0.9697
 4323TIP3    H234529   4.396   0.728   9.020 -1.2959  0.6778  0.6942
 4324TIP3   OH234530   1.488   2.901   0.675  0.2586 -0.1688 -0.7656
 4324TIP3    H134531   1.553   2.889   0.605  0.6644  0.0348 -0.4326
 4324TIP3    H234532   1.508   2.830   0.737 -0.0778 -0.3286 -0.8407
 4325TIP3   OH234533   1.106   0.167   1.083  0.1401  0.3169  0.2326
 4325TIP3    H134534   1.094   0.084   1.038  0.0509 -0.2035  1.1892
 4325TIP3    H234535   1.097   0.233   1.015 -0.1810 -0.4393 -0.4675
 4326TIP3   OH234536   6.564   4.695   7.002  0.7743  0.9388 -0.3622
 4326TIP3    H134537   6.629   4.625   6.999  1.9703  1.8605  1.4770
 4326TIP3    H234538   6.616   4.775   7.017 -0.6392  2.0122 -0.9727
 4327TIP3   OH234539   0.636   4.239   1.959  0.1757  0.3287  0.5016
 4327TIP3    H134540   0.548   4.201   1.957  0.8976 -1.4230 -0.8521
 4327TIP3    H234541   0.625   4.330   1.934 -1.3689  0.4437  1.4926
 4328TIP3   OH234542   0.490   0.247   8.331 -0.0725 -0.2985  0.2783
 4328TIP3    H134543   0.466   0.275   8.419 -0.3119  2.4119 -0.5449
 4328TIP3    H234544   0.586   0.254   8.329 -0.1245  0.4988  0.1042
 4329TIP3   OH234545   3.481   6.462   8.640 -0.2426 -0.3315 -0.0545
 4329TIP3    H134546   3.396   6.478   8.681 -0.6882 -1.0464 -0.6851
 4329TIP3    H234547   3.536   6.431   8.712 -0.9401 -1.3112  0.0748
 4330TIP3   OH234548   4.764   3.579   9.020 -0.0498  0.2487  0.1449
 4330TIP3    H134549   4.790   3.536   9.102  0.7392 -0.0289 -0.2324
 4330TIP3    H234550   4.814   3.660   9.019 -0.1242  0.2914 -0.0173
 4331TIP3   OH234551   3.809   6.371   0.327  0.0212 -0.1151  0.0486
 4331TIP3    H134552   3.876   6.333   0.384 -1.1399 -0.6116  1.1248
 4331TIP3    H234553   3.747   6.413   0.386 -1.3928 -0.9240 -0.7814
 4332TIP3   OH234554   2.012   4.031   8.883 -0.8882  0.0724 -0.2682
 4332TIP3    H134555   1.946   3.965   8.902 -1.1260 -0.1128 -1.6396
 4332TIP3    H234556   2.019   4.082   8.964 -0.4418 -1.8300  0.9406
 4333TIP3   OH234557   3.162   2.001   0.145  0.2329  0.0146 -0.1350
 4333TIP3    H134558   3.181   2.022   0.237 -1.0028 -1.0998  0.4089
 4333TIP3    H234559   3.192   2.078   0.097 -0.3864  1.2441  1.3503
 4334TIP3   OH234560   4.515   5.281   2.616 -0.2278  0.2550 -0.1655
 4334TIP3    H134561   4.557   5.316   2.694  0.4065 -0.3264 -0.2351
 4334TIP3    H234562   4.496   5.357   2.562  0.9975  0.5155 -0.2531
 4335TIP3   OH234563   4.323   2.079   0.489  0.2848  0.2099  0.2680
 4335TIP3    H134564   4.252   2.132   0.522 -0.3654 -1.3281  1.4793
 4335TIP3    H234565   4.370   2.050   0.567  0.7835 -0.7365 -0.3588
 4336TIP3   OH234566   5.306   0.893   8.198  0.4733 -0.2356 -0.3209
 4336TIP3    H134567   5.291   0.810   8.154 -1.0194 -0.7530  1.0353
 4336TIP3    H234568   5.250   0.955   8.151 -1.1091 -0.7820  0.7367
 4337TIP3   OH234569   3.778   4.810   1.937  0.1162  0.0807  0.3214
 4337TIP3    H134570   3.690   4.789   1.968 -0.1200 -0.8891 -0.9453
 4337TIP3    H234571   3.830   4.732   1.955  0.5358  0.3814  0.4179
 4338TIP3   OH234572   1.201   0.162   8.938 -0.0925  0.0433  0.5404
 4338TIP3    H134573   1.290   0.168   8.903 -0.6986  2.4685 -0.7447
 4338TIP3    H234574   1.165   0.083   8.898  1.4789 -1.0672  1.2011
 4339TIP3   OH234575   3.267   5.234   7.678  0.2613 -0.2741 -0.4945
 4339TIP3    H134576   3.358   5.222   7.651  0.8614  3.4838 -0.7220
 4339TIP3    H234577   3.273   5.255   7.771 -0.3234  0.3115 -0.5848
 4340TIP3   OH234578   0.340   5.868   1.076  0.4429  0.5316 -0.0114
 4340TIP3    H134579   0.344   5.920   0.996  0.4500  1.1233  0.3723
 4340TIP3    H234580   0.385   5.786   1.053  3.8462  2.0887  0.4320
 4341TIP3   OH234581   2.796   2.118   2.188  0.9173 -0.4787 -0.3610
 4341TIP3    H134582   2.774   2.131   2.096  1.7065 -0.8195 -0.6092
 4341TIP3    H234583   2.726   2.064   2.222  0.5679 -0.2689 -0.7360
 4342TIP3   OH234584   5.200   0.531   7.524 -0.6725  0.5810  0.4163
 4342TIP3    H134585   5.169   0.564   7.440  1.5011  0.8051 -0.3668
 4342TIP3    H234586   5.135   0.562   7.588 -2.5769  0.0697 -1.1843
 4343TIP3   OH234587   1.832   3.795   8.921 -0.3384  0.3960 -0.4740
 4343TIP3    H134588   1.813   3.852   8.995 -0.4776 -0.1916 -0.0411
 4343TIP3    H234589   1.783   3.714   8.940 -2.0392  0.9427 -2.2166
 4344TIP3   OH234590   4.450   0.303   0.689 -0.0935  0.3578 -0.1044
 4344TIP3    H134591   4.513   0.371   0.665 -1.4077  1.8531  0.3956
 4344TIP3    H234592   4.467   0.286   0.782 -1.1085  1.6374  0.3594
 4345TIP3   OH234593   4.713   0.904   0.728  0.0953  0.1761  0.0940
 4345TIP3    H134594   4.647   0.970   0.707  0.1849  0.3824  0.4657
 4345TIP3    H234595   4.665   0.835   0.773 -0.1830 -0.4774 -1.1593
 4346TIP3   OH234596   5.871   3.464   7.918  0.2719 -0.1907 -0.1298
 4346TIP3    H134597   5.861   3.505   8.004 -1.5400  0.8915 -0.7968
 4346TIP3    H234598   5.955   3.495   7.886 -0.7238  2.5885 -0.3060
 4347TIP3   OH234599   1.520   5.505   8.815 -0.4053 -0.6052 -0.8924
 4347TIP3    H134600   1.455   5.463   8.760 -1.6051 -1.0389  0.7628
 4347TIP3    H234601   1.503   5.470   8.903 -0.3111  2.0209  0.2437
 4348TIP3   OH234602   2.398   2.180   0.472 -0.4007  0.2563 -0.5251
 4348TIP3    H134603   2.386   2.146   0.383 -0.9621 -2.5333  0.5073
 4348TIP3    H234604   2.315   2.222   0.493 -1.0618 -0.9617 -0.6094
 4349TIP3   OH234605   0.461   0.478   8.159  0.3334  0.2284 -0.5619
 4349TIP3    H134606   0.400   0.416   8.200 -0.3383 -1.6081 -3.9965
 4349TIP3    H234607   0.418   0.563   8.168 -1.0972 -0.5167  0.0137
 4350TIP3   OH234608   4.979   1.844   0.184  0.6898  0.1535 -0.3428
 4350TIP3    H134609   4.974   1.888   0.099 -0.9025  0.1407 -0.2680
 4350TIP3    H234610   4.892   1.851   0.221  1.1309 -0.6215  0.9207
 4351TIP3   OH234611   4.892   2.634   0.684  0.1587  0.7454 -0.4082
 4351TIP3    H134612   4.822   2.619   0.747 -0.0649  1.3800 -0.5046
 4351TIP3    H234613   4.945   2.703   0.723  1.3198 -0.4032  0.1375
 4352TIP3   OH234614   2.882   1.111   1.378  0.1743  0.2679  0.1150
 4352TIP3    H134615   2.859   1.019   1.369 -0.0432  0.2839  0.4649
 4352TIP3    H234616   2.830   1.141   1.453 -0.6747  0.9688 -0.7227
 4353TIP3   OH234617   2.944   1.706   1.977 -0.1260 -0.1297 -0.1638
 4353TIP3    H134618   2.943   1.791   2.020 -0.9931  0.3047 -1.0039
 4353TIP3    H234619   2.873   1.710   1.913  2.0276 -0.1620 -2.7451
 4354TIP3   OH234620   4.353   3.387   8.928 -0.5481 -0.4316  0.2554
 4354TIP3    H134621   4.346   3.291   8.930  1.3944 -0.5856  0.5800
 4354TIP3    H234622   4.414   3.405   8.857  0.8004  0.4475  1.5961
 4355TIP3   OH234623   3.603   2.132   1.379 -0.3728 -0.4545  0.5439
 4355TIP3    H134624   3.672   2.097   1.435 -1.4786 -1.6700  1.2032
 4355TIP3    H234625   3.647   2.198   1.325  0.8043  0.5393  2.6016
 4356TIP3   OH234626   6.155   5.594   1.315  0.3944  0.5249 -0.7472
 4356TIP3    H134627   6.077   5.614   1.263 -1.4340 -3.0310  0.3382
 4356TIP3    H234628   6.130   5.614   1.405  1.2613  0.7187 -0.5456
 4357TIP3   OH234629   2.252   3.089   0.379  0.1896  0.0029  0.0039
 4357TIP3    H134630   2.305   3.152   0.428 -0.3846 -0.9083  1.8670
 4357TIP3    H234631   2.180   3.141   0.343  0.7461  0.7326 -0.0663
 4358TIP3   OH234632   4.328   2.884   1.425 -0.3537  0.2200  0.2474
 4358TIP3    H134633   4.286   2.812   1.474  0.6852 -0.8974 -0.4538
 4358TIP3    H234634   4.272   2.896   1.348  1.7174 -2.9834 -2.0281
 4359TIP3   OH234635   5.481   0.017   0.437  0.6689 -0.2925 -0.3265
 4359TIP3    H134636   5.542   0.014   0.511 -1.4914  0.8364  1.6213
 4359TIP3    H234637   5.477   0.110   0.412 -0.5114 -0.2774 -0.1524
 4360TIP3   OH234638   4.733   3.667   8.275 -0.0740  0.8637 -0.0128
 4360TIP3    H134639   4.817   3.668   8.228 -0.5391  0.2531 -0.8882
 4360TIP3    H234640   4.680   3.733   8.232 -0.3625  0.5895 -0.0848
 4361TIP3   OH234641   5.837   1.006   0.470  0.1653  0.0899 -1.0377
 4361TIP3    H134642   5.925   1.021   0.437  0.7403 -1.8302 -0.5343
 4361TIP3    H234643   5.836   0.913   0.494 -1.5779  0.3723  0.2136
 4362TIP3   OH234644   2.354   0.575   0.855  0.3554 -0.7670 -0.5342
 4362TIP3    H134645   2.355   0.592   0.760 -0.2920  0.7790 -0.3111
 4362TIP3    H234646   2.263   0.592   0.880  0.7085 -0.3140  0.4894
 4363TIP3   OH234647   5.158   5.284   7.617 -0.2045 -0.7828 -0.1912
 4363TIP3    H134648   5.228   5.298   7.554 -0.1283  0.4559  0.1510
 4363TIP3    H234649   5.080   5.319   7.574 -0.0498  0.5997  0.5931
 4364TIP3   OH234650   5.528   0.982   8.438 -0.3233 -0.0536  0.2083
 4364TIP3    H134651   5.511   0.900   8.484 -2.0947  0.2220  0.1037
 4364TIP3    H234652   5.530   1.048   8.506  0.3137 -0.0652  0.2075
 4365TIP3   OH234653   2.158   6.428   1.995  0.2448  0.1424  0.1726
 4365TIP3    H134654   2.249   6.443   2.021  0.5941 -1.3477 -0.0763
 4365TIP3    H234655   2.149   6.332   1.994 -1.2415  0.2619 -0.1009
 4366TIP3   OH234656   3.423   3.190   7.240  0.1467  0.2017 -0.2639
 4366TIP3    H134657   3.440   3.166   7.149  0.3324  1.1357 -0.4848
 4366TIP3    H234658   3.502   3.237   7.268 -0.3926  0.9604  0.0055
 4367TIP3   OH234659   2.069   4.244   0.914 -0.0193 -0.9009 -0.0216
 4367TIP3    H134660   2.160   4.270   0.930 -0.0295 -1.7888  1.5833
 4367TIP3    H234661   2.019   4.290   0.980 -0.6831 -0.9145 -0.5050
 4368TIP3   OH234662   4.752   5.986   1.683  0.0903  0.4484  0.0640
 4368TIP3    H134663   4.801   6.063   1.653  3.2361 -0.8121  1.4986
 4368TIP3    H234664   4.771   5.981   1.777 -0.1710 -1.9380  0.0445
 4369TIP3   OH234665   1.263   1.250   1.805  0.3134 -0.6929 -0.0935
 4369TIP3    H134666   1.189   1.252   1.744  0.7009  0.4298 -0.5357
 4369TIP3    H234667   1.340   1.254   1.749  0.7130 -1.2110  0.4057
 4370TIP3   OH234668   3.480   5.810   8.655 -0.2392 -0.1840  0.2563
 4370TIP3    H134669   3.430   5.733   8.630 -1.1253  0.5871 -0.3982
 4370TIP3    H234670   3.557   5.809   8.598 -0.1945 -0.6322  0.3237
 4371TIP3   OH234671   5.209   5.377   9.106 -0.0740 -0.0061  0.4628
 4371TIP3    H134672   5.255   5.363   9.189  0.0355 -0.8538  0.2759
 4371TIP3    H234673   5.265   5.437   9.057  0.5258 -0.5348  0.4858
 4372TIP3   OH234674   3.282   4.255   8.471  0.0063 -0.1643  0.5180
 4372TIP3    H134675   3.256   4.168   8.500 -0.4663 -0.3489 -0.4483
 4372TIP3    H234676   3.221   4.314   8.515 -0.3103 -0.3899  0.3777
 4373TIP3   OH234677   1.198   0.791   3.398  0.5975  0.2190  0.0807
 4373TIP3    H134678   1.191   0.762   3.307 -0.5929  0.1527  0.1853
 4373TIP3    H234679   1.223   0.712   3.446 -0.8977 -0.2585  0.1100
 4374TIP3   OH234680   4.569   5.605   1.469 -0.5068  0.2139  0.3637
 4374TIP3    H134681   4.620   5.613   1.549 -0.3328 -0.4092  0.3161
 4374TIP3    H234682   4.512   5.529   1.484  0.9073 -1.1467 -0.8477
 4375TIP3   OH234683   4.273   3.893   7.462  0.0735 -0.7820 -0.2034
 4375TIP3    H134684   4.301   3.920   7.375 -0.4923 -2.2858 -0.8886
 4375TIP3    H234685   4.223   3.967   7.496  1.2659  0.2611 -0.6733
 4376TIP3   OH234686   5.812   1.158   7.195  0.7484 -0.4003  0.7160
 4376TIP3    H134687   5.802   1.100   7.119  1.7208 -1.9815  1.7317
 4376TIP3    H234688   5.732   1.143   7.246  0.6516 -0.2623  0.6053
 4377TIP3   OH234689   3.600   2.561   1.017 -0.4434  0.3050  0.2911
 4377TIP3    H134690   3.524   2.547   0.960 -0.5791 -1.4397  0.8341
 4377TIP3    H234691   3.562   2.573   1.104 -0.1192 -0.6569  0.5798
 4378TIP3   OH234692   6.251   4.353   8.311 -0.0539  0.8282  0.3161
 4378TIP3    H134693   6.177   4.411   8.293  0.8962  1.5335 -1.5533
 4378TIP3    H234694   6.325   4.411   8.327  0.6864  0.1665 -0.5852
 4379TIP3   OH234695   6.121   4.664   8.853 -0.0073  0.2627 -0.2252
 4379TIP3    H134696   6.090   4.747   8.816  0.7849 -0.3328 -2.4266
 4379TIP3    H234697   6.187   4.690   8.918 -1.9081  1.3914  1.3458
 4380TIP3   OH234698   2.830   6.705   1.534  0.1731  0.3825  0.5466
 4380TIP3    H134699   2.885   6.627   1.542  0.4715  0.6283  0.9323
 4380TIP3    H234700   2.751   6.675   1.490  1.7495  0.5352 -2.7321
 4381TIP3   OH234701   6.099   5.138   2.981  0.7343 -0.5766  0.1079
 4381TIP3    H134702   6.042   5.068   2.951  0.3642  0.0208 -0.6297
 4381TIP3    H234703   6.164   5.095   3.036 -0.5055 -1.2598  1.1073
 4382TIP3   OH234704   6.455   5.909   2.513 -0.1953  0.1310 -0.5987
 4382TIP3    H134705   6.425   5.974   2.577  1.1954  1.1546 -0.9470
 4382TIP3    H234706   6.431   5.825   2.552  1.3461  0.6786  1.7062
 4383TIP3   OH234707   5.807   6.682   1.976  0.1455 -0.5072 -0.3945
 4383TIP3    H134708   5.823   6.616   2.044 -0.0460  0.7226  0.8820
 4383TIP3    H234709   5.827   6.765   2.018  0.1608  0.2882 -1.9080
 4384TIP3   OH234710   2.053   5.629   8.053  0.5990  0.0073 -0.1826
 4384TIP3    H134711   2.033   5.610   8.144  0.0708 -0.6980 -0.4381
 4384TIP3    H234712   1.992   5.698   8.028 -0.8262 -1.3637 -0.6387
 4385TIP3   OH234713   0.076   2.024   1.815  0.2311  0.0076 -0.6316
 4385TIP3    H134714   0.024   2.043   1.893  1.4375  0.1433  0.1601
 4385TIP3    H234715   0.126   2.103   1.798  0.5303 -0.2744 -1.1094
 4386TIP3   OH234716   5.526   3.436   1.791  0.2419  0.4202 -0.3123
 4386TIP3    H134717   5.526   3.462   1.883  0.1704 -2.0644  0.4687
 4386TIP3    H234718   5.618   3.434   1.766  0.2305  1.6630 -0.4918
 4387TIP3   OH234719   5.774   5.414   3.157  0.6208 -0.9298  0.9616
 4387TIP3    H134720   5.762   5.509   3.168  1.0218 -0.6222 -0.8318
 4387TIP3    H234721   5.867   5.405   3.135 -0.0050 -1.3257 -1.9684
 4388TIP3   OH234722   3.909   0.291   1.731 -0.5528 -0.3298  0.1483
 4388TIP3    H134723   3.934   0.316   1.642 -1.2059  1.3255  0.4071
 4388TIP3    H234724   3.819   0.322   1.741 -0.5787 -0.7212  1.3138
 4389TIP3   OH234725   5.892   2.643   2.747 -0.6309  0.6048 -0.5637
 4389TIP3    H134726   5.973   2.612   2.787 -1.2054 -0.8532 -0.4796
 4389TIP3    H234727   5.921   2.687   2.667  0.1716 -1.9214 -1.7791
 4390TIP3   OH234728   5.985   3.424   1.306 -0.4000 -0.1149 -0.2807
 4390TIP3    H134729   5.951   3.338   1.280 -3.5883  0.7287  0.7004
 4390TIP3    H234730   5.992   3.472   1.223 -0.2764 -0.7524 -0.6520
 4391TIP3   OH234731   1.583   3.673   9.041  0.3157 -0.6627  0.1649
 4391TIP3    H134732   1.515   3.630   8.988 -0.5385  1.6224 -0.7610
 4391TIP3    H234733   1.561   3.766   9.036  3.6748  0.2445 -0.4129
 4392TIP3   OH234734   1.582   5.150   1.918  0.3732 -0.3558  0.2556
 4392TIP3    H134735   1.593   5.221   1.981 -1.7038  0.7142 -0.4568
 4392TIP3    H234736   1.526   5.087   1.963  1.0253 -0.8524  0.3767
 4393TIP3   OH234737   3.084   1.625   0.790  0.4220 -0.4245  0.6367
 4393TIP3    H134738   3.082   1.720   0.805  0.5499 -0.7012  2.7970
 4393TIP3    H234739   3.169   1.609   0.748  0.0355  0.4912 -0.5392
 4394TIP3   OH234740   2.607   6.560   1.445  0.2410 -0.1340  0.1827
 4394TIP3    H134741   2.601   6.522   1.533  0.4182 -1.3472 -0.2976
 4394TIP3    H234742   2.607   6.484   1.387 -0.9972  0.6871 -0.9372
 4395TIP3   OH234743   6.685   4.444   1.425  0.5169 -0.5325 -0.4513
 4395TIP3    H134744   6.605   4.393   1.436  0.8883 -1.4005 -1.5399
 4395TIP3    H234745   6.749   4.400   1.481  0.1807  0.3264  0.6338
 4396TIP3   OH234746   5.482   3.711   0.134  0.0880  0.5597  0.0738
 4396TIP3    H134747   5.507   3.797   0.168 -2.0621  0.4120  2.3043
 4396TIP3    H234748   5.537   3.649   0.183 -1.1067  0.4998  1.3937
 4397TIP3   OH234749   5.715   1.234   9.010  0.1119  0.0169  0.2204
 4397TIP3    H134750   5.674   1.158   9.052  0.3863 -0.3307 -0.1299
 4397TIP3    H234751   5.647   1.301   9.011 -0.6105 -0.6734 -0.6966
 4398TIP3   OH234752   4.515   1.934   1.342  0.1347 -0.0770 -0.0867
 4398TIP3    H134753   4.497   2.022   1.311 -1.1028  0.0499  0.8952
 4398TIP3    H234754   4.551   1.945   1.430 -2.1433 -0.5524  0.9829
 4399TIP3   OH234755   1.218   1.539   1.747 -0.3042  0.0175  0.3067
 4399TIP3    H134756   1.155   1.486   1.698 -0.1202 -0.3083  0.4249
 4399TIP3    H234757   1.290   1.553   1.687 -0.7926  0.9884 -0.0782
 4400TIP3   OH234758   2.840   3.036   0.994  0.0086 -0.7270 -0.4405
 4400TIP3    H134759   2.793   2.956   1.015  0.3532 -0.1899  2.8957
 4400TIP3    H234760   2.889   3.016   0.914 -0.8516 -3.4014 -0.3708
 4401TIP3   OH234761   1.447   6.624   7.721 -0.1580 -0.4508  0.0091
 4401TIP3    H134762   1.371   6.630   7.664 -0.7105  0.1266  0.7889
 4401TIP3    H234763   1.494   6.706   7.709 -0.8953  0.1770  1.2133
 4402TIP3   OH234764   3.340   6.140   2.668 -0.3325  0.1545 -0.3714
 4402TIP3    H134765   3.278   6.210   2.646 -0.0350  0.5935  0.1685
 4402TIP3    H234766   3.425   6.173   2.637 -0.2584 -0.1521 -0.4974
 4403TIP3   OH234767   3.989   3.753   7.812  0.1091 -0.4674 -0.1306
 4403TIP3    H134768   4.054   3.704   7.862  2.2931  0.5217 -1.8428
 4403TIP3    H234769   3.981   3.837   7.857 -0.7268 -0.9167  0.5973
 4404TIP3   OH234770   3.801   3.534   1.240  0.5541  0.3565  0.0252
 4404TIP3    H134771   3.739   3.492   1.300  0.7534  0.0321  0.0060
 4404TIP3    H234772   3.887   3.512   1.275  0.6820 -0.1128 -0.5529
 4405TIP3   OH234773   1.802   2.705   1.398  0.7688 -0.2013 -0.1418
 4405TIP3    H134774   1.785   2.791   1.437 -1.3202 -0.9438  0.7291
 4405TIP3    H234775   1.886   2.678   1.436  0.7367  0.8187  0.7118
 4406TIP3   OH234776   3.037   4.400   0.963  0.1844 -0.2625  0.2526
 4406TIP3    H134777   3.112   4.352   0.928  0.1351 -0.2975  0.1971
 4406TIP3    H234778   3.051   4.490   0.933  0.5460 -0.1373  0.7809
 4407TIP3   OH234779   6.558   5.868   0.012 -0.5967 -0.0300  0.5502
 4407TIP3    H134780   6.610   5.933  -0.035 -1.2286  0.9180  1.1289
 4407TIP3    H234781   6.573   5.786  -0.035  0.7947  0.3835  0.2525
 4408TIP3   OH234782   5.473   4.594   2.073  0.4152  0.1418  0.1645
 4408TIP3    H134783   5.458   4.520   2.131  2.3363  0.7651  1.5578
 4408TIP3    H234784   5.435   4.669   2.119 -0.6373  0.2192 -0.7799
 4409TIP3   OH234785   6.631   6.135   8.708 -0.1711  0.2330 -0.2150
 4409TIP3    H134786   6.630   6.096   8.620  0.5563 -1.3450  0.4401
 4409TIP3    H234787   6.540   6.157   8.726 -0.1904  1.7470 -1.8215
 4410TIP3   OH234788   3.574   4.359   8.561 -1.1751  0.0722 -0.7027
 4410TIP3    H134789   3.578   4.355   8.657 -2.3707  0.7507 -0.6091
 4410TIP3    H234790   3.483   4.383   8.541 -0.4572  2.1194 -1.9135
 4411TIP3   OH234791   2.841   2.259   8.260 -0.2666  0.4298  0.0008
 4411TIP3    H134792   2.868   2.344   8.225  2.4456  1.1324  3.2577
 4411TIP3    H234793   2.905   2.197   8.224  2.0547  1.0312  2.7862
 4412TIP3   OH234794   0.702   4.187   2.698 -0.3675  0.3112 -0.3588
 4412TIP3    H134795   0.758   4.178   2.621 -0.4387  0.9633 -0.4917
 4412TIP3    H234796   0.646   4.110   2.697 -1.6528  1.2073 -1.9983
 4413TIP3   OH234797   0.842   0.318   1.838  0.3714  0.2465  0.4693
 4413TIP3    H134798   0.937   0.320   1.828  0.3856 -1.2607  0.0967
 4413TIP3    H234799   0.808   0.351   1.756  0.5797 -0.5457  0.0529
 4414TIP3   OH234800   2.324   1.340   7.923 -0.1075  0.1104 -0.5960
 4414TIP3    H134801   2.396   1.403   7.923 -0.7901  1.0203  2.0564
 4414TIP3    H234802   2.273   1.361   7.845 -0.8088  3.4963  0.6367
 4415TIP3   OH234803   2.254   5.869   0.989 -0.3270  0.3423 -0.1417
 4415TIP3    H134804   2.204   5.922   0.927 -1.7599 -1.1792 -0.3646
 4415TIP3    H234805   2.273   5.788   0.940  0.6802  0.1196  0.5947
 4416TIP3   OH234806   2.232   4.758   1.767 -0.3112  0.2305 -0.4020
 4416TIP3    H134807   2.172   4.685   1.752  0.7791 -0.5707 -1.0487
 4416TIP3    H234808   2.268   4.778   1.680 -0.5719  1.5377 -0.2343
 4417TIP3   OH234809   4.930   3.719   7.617 -0.0207 -0.1092  0.2378
 4417TIP3    H134810   4.936   3.814   7.623  0.3041  0.0737 -1.9423
 4417TIP3    H234811   4.837   3.701   7.603 -0.6751 -0.4764  4.1045
 4418TIP3   OH234812   6.574   1.636   0.261 -0.0235 -0.1165 -0.1838
 4418TIP3    H134813   6.645   1.663   0.319 -0.9530 -1.5590  1.7435
 4418TIP3    H234814   6.581   1.695   0.186  1.9608  1.0732  0.8332
 4419TIP3   OH234815   6.495   3.258   1.766  0.2784  0.2388  0.0580
 4419TIP3    H134816   6.439   3.256   1.688  1.2176  1.5607 -0.6773
 4419TIP3    H234817   6.480   3.344   1.804 -0.4300 -0.5240  1.5615
 4420TIP3   OH234818   1.913   2.026   2.248  0.3113  0.4027  0.0303
 4420TIP3    H134819   1.824   2.018   2.283  0.6498  0.2343  0.8620
 4420TIP3    H234820   1.965   2.057   2.321  0.8239  1.1236 -0.6300
 4421TIP3   OH234821   1.453   5.441   0.524  0.0449  0.3989 -0.6697
 4421TIP3    H134822   1.448   5.379   0.451  0.0068  1.2070 -1.3641
 4421TIP3    H234823   1.391   5.510   0.502 -1.6613 -0.4424  1.2179
 4422TIP3   OH234824   1.156   2.538   8.276 -1.0087  0.6127  0.0711
 4422TIP3    H134825   1.203   2.528   8.193  0.6419 -0.7593  1.1054
 4422TIP3    H234826   1.217   2.584   8.333 -0.8134 -1.3344  1.5042
 4423TIP3   OH234827   2.539   1.202   7.807 -0.0155 -0.1339  0.4608
 4423TIP3    H134828   2.545   1.116   7.767  0.6675 -0.0554  0.3876
 4423TIP3    H234829   2.455   1.237   7.777  0.1915 -0.3362 -0.3726
 4424TIP3   OH234830   0.918   4.892   0.052 -0.2930  0.2018 -0.1344
 4424TIP3    H134831   0.956   4.966   0.006  0.5004 -1.5772 -2.5493
 4424TIP3    H234832   0.930   4.818  -0.007 -1.9064 -1.6961  1.7330
 4425TIP3   OH234833   1.771   6.017   1.704 -0.1780  0.2217  0.0331
 4425TIP3    H134834   1.800   5.930   1.678  1.5940  1.3034 -1.9456
 4425TIP3    H234835   1.836   6.046   1.768 -0.3002  0.3956  0.0795
 4426TIP3   OH234836   2.080   1.278   0.344 -0.1365 -0.1830 -0.5064
 4426TIP3    H134837   1.985   1.287   0.336  0.0147  0.1978 -2.4687
 4426TIP3    H234838   2.099   1.192   0.308  0.2415 -0.4799  0.3666
 4427TIP3   OH234839   1.932   4.152   0.001  0.4429 -0.3005  0.4040
 4427TIP3    H134840   1.919   4.188   0.088 -0.6146 -1.4745  0.7633
 4427TIP3    H234841   1.884   4.212  -0.057 -0.4141 -0.5266  0.8639
 4428TIP3   OH234842   0.119   3.118   0.908 -0.2144  0.5049  0.3930
 4428TIP3    H134843   0.052   3.113   0.976  2.7815 -1.9411  3.5588
 4428TIP3    H234844   0.160   3.204   0.920 -1.1933  1.0338  0.0371
 4429TIP3   OH234845   1.975   6.263   8.137  0.4435 -0.0064 -0.1381
 4429TIP3    H134846   1.944   6.192   8.081 -1.9781  1.1792 -0.4468
 4429TIP3    H234847   1.895   6.302   8.172  1.7895  1.1444  1.8496
 4430TIP3   OH234848   0.108   2.418   2.047  0.0183 -0.3281 -0.4567
 4430TIP3    H134849   0.063   2.358   2.106  1.2101 -0.1585  0.6797
 4430TIP3    H234850   0.173   2.461   2.102  0.4192  0.6711 -1.6617
 4431TIP3   OH234851   0.917   0.980   8.962  0.4924 -0.2094 -0.1607
 4431TIP3    H134852   0.924   1.049   8.896  1.1119 -0.4214 -0.3226
 4431TIP3    H234853   1.004   0.976   9.003  1.0494 -2.1018 -1.3844
 4432TIP3   OH234854   1.558   5.829   8.082 -0.7250 -0.3932  0.1532
 4432TIP3    H134855   1.549   5.854   7.991 -0.5640 -1.2707 -0.1116
 4432TIP3    H234856   1.511   5.746   8.090 -1.4317  0.0735  1.0552
 4433TIP3   OH234857   4.303   5.005   1.866  0.2743  0.1088  0.1053
 4433TIP3    H134858   4.355   5.068   1.917 -0.5805  0.3705  0.6807
 4433TIP3    H234859   4.218   5.047   1.854  0.5720  0.2244 -1.9369
 4434TIP3   OH234860   1.205   2.497   8.815 -0.8481 -0.6192 -0.1674
 4434TIP3    H134861   1.216   2.586   8.781 -0.6504 -0.2753  0.7420
 4434TIP3    H234862   1.215   2.440   8.739 -0.7414  0.1298 -0.7244
 4435TIP3   OH234863   3.452   2.794   8.538  0.0639 -0.1891 -0.3388
 4435TIP3    H134864   3.431   2.816   8.629 -1.0523 -0.3754 -0.5329
 4435TIP3    H234865   3.543   2.765   8.541  1.0396  2.6113  0.2168
 4436TIP3   OH234866   5.340   1.842   2.329  0.1975 -0.0110  0.2622
 4436TIP3    H134867   5.312   1.766   2.379  0.5880 -1.0832 -1.1193
 4436TIP3    H234868   5.267   1.904   2.337  0.0876 -0.2878  1.8066
 4437TIP3   OH234869   3.524   0.548   8.038  0.1444  0.5166 -0.5470
 4437TIP3    H134870   3.496   0.502   7.959  2.1033 -2.8453  0.5074
 4437TIP3    H234871   3.610   0.583   8.016  0.7406 -0.5140  0.0495
 4438TIP3   OH234872   5.866   3.476   7.201  0.2591  0.8373  0.4590
 4438TIP3    H134873   5.925   3.402   7.184  1.1519  1.9336 -1.5098
 4438TIP3    H234874   5.780   3.435   7.211  0.7807 -0.5128 -0.2125
 4439TIP3   OH234875   6.013   0.743   0.623 -0.1674  0.8334  0.3474
 4439TIP3    H134876   6.016   0.704   0.710 -1.2069  0.2119  0.1207
 4439TIP3    H234877   5.940   0.700   0.580  1.1164  0.1815 -1.2925
 4440TIP3   OH234878   3.372   2.560   1.279  0.1771  0.1452  0.2571
 4440TIP3    H134879   3.279   2.581   1.263  0.6562  1.6434 -0.8351
 4440TIP3    H234880   3.388   2.482   1.226  0.0274  1.0868 -1.2370
 4441TIP3   OH234881   4.957   6.422   1.667  0.0457 -0.0136  0.8497
 4441TIP3    H134882   4.919   6.347   1.621 -0.6080  0.1972  1.0301
 4441TIP3    H234883   4.989   6.479   1.596  0.1383 -0.2544  0.6973
 4442TIP3   OH234884   1.699   1.079   8.453  0.0710 -0.0845 -0.1301
 4442TIP3    H134885   1.698   1.008   8.389  0.2231  0.9820 -1.3666
 4442TIP3    H234886   1.792   1.098   8.467  0.0298  0.5389 -0.6147
 4443TIP3   OH234887   0.592   6.210   0.617 -0.0260 -0.2494 -0.0087
 4443TIP3    H134888   0.544   6.292   0.628  1.2159  0.2505  2.1493
 4443TIP3    H234889   0.578   6.163   0.698 -0.2871 -1.9926 -1.0159
 4444TIP3   OH234890   5.590   4.525   0.951 -0.4243 -0.3951  0.1233
 4444TIP3    H134891   5.625   4.436   0.945  0.1495 -0.1972  0.3798
 4444TIP3    H234892   5.526   4.531   0.880 -0.4916 -1.0187  0.1237
 4445TIP3   OH234893   1.494   1.647   1.987  0.4996 -0.4050  0.5258
 4445TIP3    H134894   1.430   1.620   1.921  0.9231  2.4838 -1.2099
 4445TIP3    H234895   1.579   1.627   1.948  0.8274  2.9783 -0.8049
 4446TIP3   OH234896   1.370   5.104   9.084 -0.2175  0.2700 -0.5117
 4446TIP3    H134897   1.361   5.199   9.092  2.2443  0.6512 -1.4322
 4446TIP3    H234898   1.358   5.087   8.990 -2.4548 -0.6344 -0.1246
 4447TIP3   OH234899   4.988   4.929   1.929 -0.3902  0.4149  0.0912
 4447TIP3    H134900   4.990   5.023   1.943 -0.4990  0.4151  0.1097
 4447TIP3    H234901   5.042   4.914   1.852 -0.2605  0.4775  0.1697
 4448TIP3   OH234902   6.348   5.626   8.288  0.6053  0.5421 -0.2980
 4448TIP3    H134903   6.411   5.695   8.266  0.7251  0.0207 -1.6984
 4448TIP3    H234904   6.332   5.637   8.382  1.8360  1.4631 -0.1709
 4449TIP3   OH234905   4.562   2.437   6.877 -0.4059 -0.4216  0.5537
 4449TIP3    H134906   4.624   2.425   6.805 -0.9755  0.9452 -0.2105
 4449TIP3    H234907   4.504   2.361   6.873 -0.4126 -0.3724 -0.4283
 4450TIP3   OH234908   4.993   4.300   2.156 -0.7120  0.0561  0.0966
 4450TIP3    H134909   4.972   4.282   2.064 -0.9653 -0.6213  0.2763
 4450TIP3    H234910   5.042   4.382   2.154  1.0557 -0.9654 -0.8442
 4451TIP3   OH234911   1.718   1.902   8.539 -0.3972  0.1929  0.3328
 4451TIP3    H134912   1.644   1.949   8.503  1.2158  1.1871 -1.9145
 4451TIP3    H234913   1.727   1.825   8.484 -2.6598 -2.7504  3.6205
 4452TIP3   OH234914   5.278   5.822   7.648  0.2603 -0.2079  0.0813
 4452TIP3    H134915   5.329   5.854   7.574 -1.6684 -0.1390 -1.3114
 4452TIP3    H234916   5.309   5.732   7.661  0.5212 -0.2881 -0.9673
 4453TIP3   OH234917   6.582   3.071   1.531 -0.1707 -0.1405 -0.4146
 4453TIP3    H134918   6.512   3.133   1.512  0.4796  1.3538  1.7097
 4453TIP3    H234919   6.537   2.995   1.569 -0.7045  0.4270  0.0995
 4454TIP3   OH234920   5.937   3.413   8.344 -0.0020  0.4052  0.1434
 4454TIP3    H134921   5.982   3.433   8.426 -0.5965  1.2288  0.2698
 4454TIP3    H234922   5.871   3.348   8.368 -1.5685  2.1326  0.7515
 4455TIP3   OH234923   6.552   3.315   8.684 -1.0644 -0.5521 -0.2727
 4455TIP3    H134924   6.625   3.257   8.707 -1.8835 -0.9491  1.4987
 4455TIP3    H234925   6.526   3.287   8.596 -0.2541 -1.6291 -0.1914
 4456TIP3   OH234926   0.318   3.101   0.324  0.8405 -0.2541 -0.3703
 4456TIP3    H134927   0.234   3.144   0.310  1.1388 -0.1822 -2.2770
 4456TIP3    H234928   0.311   3.019   0.274  1.4735 -0.8493  0.4801
 4457TIP3   OH234929   5.297   2.174   2.867 -0.3033 -0.0570  0.2708
 4457TIP3    H134930   5.290   2.251   2.923 -0.2674 -0.5036  0.9007
 4457TIP3    H234931   5.207   2.147   2.850 -0.3117 -0.0088  0.2396
 4458TIP3   OH234932   6.468   5.509   0.747 -0.1920  0.0285 -0.1401
 4458TIP3    H134933   6.416   5.463   0.682  0.9559  0.0268 -1.0781
 4458TIP3    H234934   6.538   5.448   0.770 -1.1187 -0.3814  1.8842
 4459TIP3   OH234935   5.264   5.451   1.224  0.2525 -0.1748 -0.7281
 4459TIP3    H134936   5.245   5.366   1.263 -0.2786  0.2818  0.0314
 4459TIP3    H234937   5.355   5.445   1.194  1.2555 -0.0148  2.0372
 4460TIP3   OH234938   2.496   0.878   0.046 -0.1364  0.4798  0.3126
 4460TIP3    H134939   2.489   0.875   0.141  1.5137  0.1967  0.4588
 4460TIP3    H234940   2.536   0.795   0.022 -3.2642 -0.7934 -0.9793
 4461TIP3   OH234941   6.385   4.736   2.512 -0.4751 -0.1048  0.1411
 4461TIP3    H134942   6.390   4.686   2.594  2.6590 -0.7089 -0.2914
 4461TIP3    H234943   6.477   4.751   2.488 -1.3149  0.9893 -2.7161
 4462TIP3   OH234944   4.569   4.222   0.748 -0.6231  0.3612  0.2049
 4462TIP3    H134945   4.604   4.210   0.837  0.5252  0.9137 -0.1568
 4462TIP3    H234946   4.642   4.260   0.699 -0.7634 -1.2705 -1.3478
 4463TIP3   OH234947   2.286   0.141   7.760 -0.0091  0.2672  0.0157
 4463TIP3    H134948   2.279   0.071   7.695  0.7602 -0.1628  0.3803
 4463TIP3    H234949   2.304   0.219   7.709  0.2190  0.0005 -0.3194
 4464TIP3   OH234950   0.709   3.169   2.563 -0.0449 -0.3776  0.2425
 4464TIP3    H134951   0.668   3.085   2.583 -0.3718  0.0383  1.4059
 4464TIP3    H234952   0.785   3.173   2.620  0.3447 -0.1616 -0.2847
 4465TIP3   OH234953   3.237   0.230   2.284 -0.1093 -0.1724 -0.3924
 4465TIP3    H134954   3.181   0.198   2.355 -1.8337  4.0527  0.4468
 4465TIP3    H234955   3.200   0.190   2.205 -3.6489  1.3333  0.2848
 4466TIP3   OH234956   2.246   4.013   9.083  0.2651 -0.7298 -0.3685
 4466TIP3    H134957   2.240   4.026   8.989  1.3352  0.0978 -0.3373
 4466TIP3    H234958   2.272   4.098   9.118  0.8610 -1.2771  0.5704
 4467TIP3   OH234959   5.929   5.260   8.760 -0.3122  0.0439 -0.3944
 4467TIP3    H134960   5.897   5.326   8.698  0.7414 -0.2740 -1.3235
 4467TIP3    H234961   5.891   5.177   8.728  0.9083 -0.2472 -1.1597
 4468TIP3   OH234962   2.562   2.741   7.969  0.1198  0.3956  0.0102
 4468TIP3    H134963   2.475   2.776   7.953 -1.6863 -1.5996  4.0139
 4468TIP3    H234964   2.584   2.693   7.889 -2.6441  0.5763 -0.9540
 4469TIP3   OH234965   0.486   4.474   0.029  0.1106  0.9511 -0.3075
 4469TIP3    H134966   0.531   4.488   0.113  1.8868  1.0974 -1.2250
 4469TIP3    H234967   0.528   4.535  -0.031 -0.0879 -0.1818 -1.6561
 4470TIP3   OH234968   6.565   2.591   8.123 -0.0702  0.2125  0.8690
 4470TIP3    H134969   6.641   2.532   8.116  0.7004  1.2575 -0.0959
 4470TIP3    H234970   6.532   2.577   8.211 -0.3665 -2.1781  0.4483
 4471TIP3   OH234971   1.698   4.533   1.477 -0.1754 -0.1597  0.0456
 4471TIP3    H134972   1.696   4.438   1.471 -0.1767 -0.0986 -1.5245
 4471TIP3    H234973   1.790   4.556   1.485 -0.2284 -0.3078  1.2041
 4472TIP3   OH234974   5.611   2.430   1.782 -0.6715  0.2403  0.0950
 4472TIP3    H134975   5.547   2.479   1.730  0.8186 -0.2406 -2.3379
 4472TIP3    H234976   5.679   2.405   1.719  1.8670  0.5900  2.5266
 4473TIP3   OH234977   3.627   5.256   1.181 -0.6673 -0.2136 -0.0487
 4473TIP3    H134978   3.549   5.306   1.205 -0.3090  0.5480 -0.4341
 4473TIP3    H234979   3.681   5.257   1.260  0.4751  2.2249 -0.7682
 4474TIP3   OH234980   2.400   0.705   6.998  0.9216 -0.3124  0.0314
 4474TIP3    H134981   2.378   0.618   7.033 -0.0878  0.0830  0.4087
 4474TIP3    H234982   2.326   0.728   6.942  1.2317  0.2572 -0.1509
 4475TIP3   OH234983   1.232   0.201   2.640  0.7998  0.5979 -0.3845
 4475TIP3    H134984   1.220   0.174   2.731  0.7622 -0.5989 -0.7359
 4475TIP3    H234985   1.167   0.270   2.627  0.6306  0.5982  0.4132
 4476TIP3   OH234986   3.556   4.248   7.361  0.5748  0.3610 -0.7397
 4476TIP3    H134987   3.506   4.181   7.407  1.0156  0.3763 -0.2348
 4476TIP3    H234988   3.527   4.241   7.270  0.6682 -0.5622 -0.7087
 4477TIP3   OH234989   6.103   6.709   2.098  0.0539 -0.7204  0.5276
 4477TIP3    H134990   6.087   6.629   2.148 -1.1557 -0.4932  0.5315
 4477TIP3    H234991   6.109   6.778   2.164  0.5263 -0.7102  0.4826
 4478TIP3   OH234992   2.984   6.045   0.458  0.5059  0.8044 -0.2509
 4478TIP3    H134993   3.036   6.120   0.489  0.1512  1.4810 -1.2580
 4478TIP3    H234994   3.028   6.017   0.378 -1.2435  2.0744 -1.7292
 4479TIP3   OH234995   1.047   5.561   1.617  0.3510  0.7275  0.0894
 4479TIP3    H134996   0.992   5.484   1.605  0.2536  0.5302  1.5608
 4479TIP3    H234997   1.133   5.535   1.584  0.3156 -0.0324  0.5674
 4480TIP3   OH234998   0.834   2.474   7.866 -0.0012 -0.7662 -0.5270
 4480TIP3    H134999   0.740   2.481   7.851  0.0713  0.1546 -0.5867
 4480TIP3    H235000   0.865   2.564   7.867  0.5496 -0.9332  1.6623
 4481TIP3   OH235001   2.125   5.228   0.018  0.4755  0.0091 -0.2877
 4481TIP3    H135002   2.031   5.244   0.014  0.5064  0.0851 -0.7850
 4481TIP3    H235003   2.164   5.307  -0.020  0.8615  1.1625  2.2529
 4482TIP3   OH235004   4.278   4.313   8.600  0.4217  0.2510  0.2721
 4482TIP3    H135005   4.295   4.282   8.511  1.2085  0.9214  0.1703
 4482TIP3    H235006   4.187   4.342   8.598 -0.0668 -1.1862  0.1371
 4483TIP3   OH235007   1.375   2.103   2.441  0.1167 -0.2013  0.1816
 4483TIP3    H135008   1.360   2.042   2.513 -0.4961  2.2972  2.3349
 4483TIP3    H235009   1.294   2.154   2.435  1.6820  2.5689  0.8062
 4484TIP3   OH235010   5.111   5.515   8.366  0.0241 -0.2799  0.3065
 4484TIP3    H135011   5.085   5.453   8.434 -0.7845 -1.1109 -0.7035
 4484TIP3    H235012   5.134   5.459   8.291  1.2489  0.5908  0.0140
 4485TIP3   OH235013   3.320   0.989   1.489  0.4779 -0.2075  0.5061
 4485TIP3    H135014   3.252   1.030   1.436  0.8741 -1.5642 -1.1326
 4485TIP3    H235015   3.290   1.003   1.580 -0.7972  1.1811 -0.0787
 4486TIP3   OH235016   1.119   1.816   1.214  0.4213  0.1138  0.3667
 4486TIP3    H135017   1.073   1.810   1.298  0.3357 -2.5793  0.2248
 4486TIP3    H235018   1.049   1.829   1.150  0.1458 -0.8948  0.4479
 4487TIP3   OH235019   0.938   1.048   1.994 -0.9151 -0.0501  0.0158
 4487TIP3    H135020   0.949   1.143   2.005  0.3491  0.2388 -2.8140
 4487TIP3    H235021   0.859   1.039   1.942 -1.0995 -0.5825  0.3821
 4488TIP3   OH235022   3.641   1.791   0.482 -0.3383  0.5460  1.0716
 4488TIP3    H135023   3.676   1.881   0.480 -1.7210  1.1055  0.1249
 4488TIP3    H235024   3.701   1.743   0.539  1.1033  1.7908  0.6846
 4489TIP3   OH235025   1.927   2.205   1.012 -0.5670 -0.8745 -0.1739
 4489TIP3    H135026   1.880   2.260   1.075 -0.2207 -0.3303 -0.3760
 4489TIP3    H235027   1.971   2.139   1.066  3.1819  2.0040  0.7494
 4490TIP3   OH235028   1.643   0.372   8.113 -0.4412 -0.7215 -0.1290
 4490TIP3    H135029   1.558   0.375   8.070 -0.1789  2.7696 -0.6543
 4490TIP3    H235030   1.625   0.395   8.204  0.0402  1.7313 -0.5985
 4491TIP3   OH235031   5.024   0.507   7.971  0.4450 -0.0761 -0.6909
 4491TIP3    H135032   4.947   0.563   7.959  0.7829  0.4660 -0.3417
 4491TIP3    H235033   4.987   0.420   7.987 -0.0794 -0.0457 -1.6399
 4492TIP3   OH235034   0.637   6.143   1.486  0.1666  0.1029  0.3826
 4492TIP3    H135035   0.669   6.186   1.408 -0.7189  0.7185  0.3439
 4492TIP3    H235036   0.591   6.211   1.535 -0.7551 -0.6451  0.6045
 4493TIP3   OH235037   0.446   3.767   8.177 -0.7368 -0.3192 -0.0619
 4493TIP3    H135038   0.422   3.855   8.148 -0.9718  0.0082  1.0989
 4493TIP3    H235039   0.541   3.771   8.189 -0.4408 -0.8126 -1.9208
 4494TIP3   OH235040   6.124   3.745   8.515  0.1986 -0.2235  0.7161
 4494TIP3    H135041   6.057   3.682   8.543  1.6891 -1.2184  2.3119
 4494TIP3    H235042   6.100   3.827   8.557 -0.5743 -0.2994  0.4265
 4495TIP3   OH235043   4.989   6.265   2.212  0.0910  0.4040 -0.0272
 4495TIP3    H135044   4.910   6.212   2.209  0.7136 -0.5166 -0.3884
 4495TIP3    H235045   4.987   6.305   2.299 -0.3412 -0.2728  0.2818
 4496TIP3   OH235046   2.841   2.538   8.801  0.3387 -0.0273 -0.7089
 4496TIP3    H135047   2.868   2.629   8.812  2.0088 -0.4836 -0.7735
 4496TIP3    H235048   2.844   2.522   8.707  1.9835 -0.6634 -0.5842
 4497TIP3   OH235049   1.325   1.225   0.590  0.2850  0.2414 -0.0941
 4497TIP3    H135050   1.374   1.259   0.665  0.2612  0.6159 -0.2445
 4497TIP3    H235051   1.294   1.139   0.619  1.0362 -0.0037 -0.0015
 4498TIP3   OH235052   6.267   2.933   0.448  0.6235 -0.1386 -0.3291
 4498TIP3    H135053   6.235   2.886   0.371 -2.8181 -0.6398  1.2526
 4498TIP3    H235054   6.338   2.989   0.414 -1.3455  0.4033 -4.0381
 4499TIP3   OH235055   5.300   4.954   1.423  0.2176  0.3951  0.9053
 4499TIP3    H135056   5.305   4.873   1.473  0.3095  0.4562  0.9988
 4499TIP3    H235057   5.275   4.928   1.335  0.7862  0.2069  0.7925
 4500TIP3   OH235058   2.327   2.053   8.342 -0.4916 -0.6219  0.7218
 4500TIP3    H135059   2.332   1.989   8.271  1.8893  0.0226  0.2233
 4500TIP3    H235060   2.407   2.038   8.393 -2.4021 -1.4641  3.7057
 4501TIP3   OH235061   0.301   4.889   1.474 -0.2182  0.0302  0.5177
 4501TIP3    H135062   0.238   4.872   1.404  0.9338 -1.0707 -0.2967
 4501TIP3    H235063   0.247   4.907   1.551 -1.5128  0.8381 -0.5313
 4502TIP3   OH235064   3.406   3.073   8.838  0.2341  0.3359 -0.0496
 4502TIP3    H135065   3.467   3.009   8.803  0.1905 -0.5491  1.3947
 4502TIP3    H235066   3.435   3.156   8.801  1.6936 -0.2059 -0.2002
 4503TIP3   OH235067   2.916   3.622   1.768 -0.2815  0.2216  0.0493
 4503TIP3    H135068   2.903   3.545   1.823  0.2306  0.3297  0.3192
 4503TIP3    H235069   2.985   3.597   1.707 -1.7057 -0.3616 -1.4171
 4504TIP3   OH235070   5.568   4.567   1.599 -0.3665 -0.1143 -0.3339
 4504TIP3    H135071   5.583   4.656   1.568 -0.9348  0.4375  0.9003
 4504TIP3    H235072   5.618   4.561   1.680 -0.8303 -0.7170 -0.0820
 4505TIP3   OH235073   0.160   2.295   1.801 -0.5991 -0.3812 -0.3728
 4505TIP3    H135074   0.185   2.349   1.726 -0.0913  0.1172  0.1366
 4505TIP3    H235075   0.165   2.355   1.876 -0.5164 -1.0133  0.1393
 4506TIP3   OH235076   2.587   3.574   1.186  0.2157 -0.0463  0.4340
 4506TIP3    H135077   2.587   3.586   1.281 -0.5198 -0.1876  0.4656
 4506TIP3    H235078   2.637   3.494   1.171 -0.7316 -0.7367  0.8285
 4507TIP3   OH235079   4.534   4.666   8.087 -0.3076  0.4927  0.5907
 4507TIP3    H135080   4.523   4.761   8.080  1.3056  0.6469 -0.1139
 4507TIP3    H235081   4.593   4.643   8.015 -1.3735 -1.1868  0.1893
 4508TIP3   OH235082   0.894   0.475   8.090  0.1759  0.5143  0.5647
 4508TIP3    H135083   0.960   0.519   8.142  0.5286  0.3678  0.2423
 4508TIP3    H235084   0.941   0.439   8.015 -0.2497  0.3329  0.3760
 4509TIP3   OH235085   5.972   4.614   1.493 -0.1532  0.2725 -0.3725
 4509TIP3    H135086   6.053   4.564   1.504 -0.9821 -0.7323  1.6434
 4509TIP3    H235087   5.970   4.636   1.400  3.5489  2.2956 -0.1941
 4510TIP3   OH235088   4.690   3.255   0.814  0.2936 -0.1088 -0.0974
 4510TIP3    H135089   4.739   3.335   0.832 -0.5302  0.4524 -0.3161
 4510TIP3    H235090   4.601   3.284   0.795  0.2894 -0.9603 -1.5352
 4511TIP3   OH235091   0.637   1.986   7.247 -0.2703  0.3018  0.6279
 4511TIP3    H135092   0.672   2.071   7.273 -2.1097  1.6804 -1.0480
 4511TIP3    H235093   0.713   1.936   7.219  0.8592  1.4108  1.6190
 4512TIP3   OH235094   0.338   4.278   8.347 -0.2014  0.2648  0.3528
 4512TIP3    H135095   0.326   4.208   8.410 -0.6281 -0.0293 -0.0530
 4512TIP3    H235096   0.327   4.358   8.398 -0.3155  0.0316  0.6963
 4513TIP3   OH235097   0.499   4.084   8.024  0.0059  0.2137 -0.0543
 4513TIP3    H135098   0.529   4.016   7.964 -1.5219 -1.4666  1.0025
 4513TIP3    H235099   0.428   4.128   7.977 -0.0118  0.0677 -0.1650
 4514TIP3   OH235100   6.456   2.907   8.616 -0.4053  0.0485  0.2602
 4514TIP3    H135101   6.402   2.872   8.546 -0.4929  0.7492 -0.0328
 4514TIP3    H235102   6.477   2.996   8.588  1.3036 -0.3603  0.1320
 4515TIP3   OH235103   3.273   6.404   2.612  0.2540  0.1139 -0.2956
 4515TIP3    H135104   3.268   6.498   2.594 -0.2549  0.1559  0.0200
 4515TIP3    H235105   3.343   6.396   2.677  0.9120  0.1631 -0.9902
 4516TIP3   OH235106   6.245   5.942   9.048 -0.0575  0.3201  0.0423
 4516TIP3    H135107   6.223   5.857   9.011 -1.6506  0.3806  0.7844
 4516TIP3    H235108   6.339   5.936   9.068  0.0504 -0.9192 -0.7493
 4517TIP3   OH235109   6.045   2.557   0.453 -0.0060 -0.0533  0.2683
 4517TIP3    H135110   5.988   2.545   0.378 -1.3338 -0.5068  1.3224
 4517TIP3    H235111   6.100   2.633   0.430 -0.0195 -0.5094 -1.3459
 4518TIP3   OH235112   6.162   4.780   7.940 -0.2386  0.1816  0.4453
 4518TIP3    H135113   6.073   4.750   7.925 -0.7223  1.7389 -0.0079
 4518TIP3    H235114   6.160   4.874   7.920  1.5759  0.1921  0.0955
 4519TIP3   OH235115   0.347   2.747   0.922  0.7830 -0.7337  0.2040
 4519TIP3    H135116   0.293   2.717   0.849  0.3879 -0.4022  0.3577
 4519TIP3    H235117   0.409   2.676   0.937  0.6237 -0.9610 -0.2109
 4520TIP3   OH235118   1.789   1.711   2.868 -0.1371  0.0391  0.4866
 4520TIP3    H135119   1.851   1.717   2.796  0.0032  0.6146  0.6502
 4520TIP3    H235120   1.794   1.619   2.896 -0.0810 -0.1491 -0.1261
 4521TIP3   OH235121   5.276   0.814   0.542 -0.1720  0.0850  0.4120
 4521TIP3    H135122   5.197   0.823   0.489 -0.1747 -0.1269  0.3758
 4521TIP3    H235123   5.346   0.801   0.478 -0.4745 -2.3519  0.4870
 4522TIP3   OH235124   2.910   4.923   2.336  0.0281 -0.2463 -0.0400
 4522TIP3    H135125   2.984   4.945   2.392 -0.7235 -0.2997  0.9867
 4522TIP3    H235126   2.880   4.838   2.369 -1.4603  0.4921  0.5738
 4523TIP3   OH235127   1.458   2.406   2.775 -0.9846 -0.1753 -0.5847
 4523TIP3    H135128   1.396   2.345   2.734  0.5757 -1.7051 -0.7612
 4523TIP3    H235129   1.446   2.392   2.869 -0.1274 -1.3366 -0.6267
 4524TIP3   OH235130   6.114   4.579   0.880  0.2996  0.0975  0.0658
 4524TIP3    H135131   6.057   4.533   0.819  0.8496 -0.6962  0.1380
 4524TIP3    H235132   6.064   4.656   0.906 -0.2496  0.0431 -0.7936
 4525TIP3   OH235133   1.811   5.422   2.361 -0.5912 -0.1461  0.5770
 4525TIP3    H135134   1.815   5.394   2.453  0.8964 -2.7193 -0.1674
 4525TIP3    H235135   1.765   5.506   2.364 -0.3051  0.0403  3.7004
 4526TIP3   OH235136   6.656   1.714   0.577 -0.0094  0.2770 -0.6364
 4526TIP3    H135137   6.733   1.733   0.631 -0.8017  0.6748  0.3963
 4526TIP3    H235138   6.663   1.621   0.556 -1.3709 -0.8379  3.0525
 4527TIP3   OH235139   2.964   0.353   8.675 -0.2735  0.2759  0.7197
 4527TIP3    H135140   2.895   0.386   8.733 -2.0409 -2.4204  0.3630
 4527TIP3    H235141   3.008   0.286   8.726 -0.1156 -0.3080 -0.1624
 4528TIP3   OH235142   3.971   6.236   7.556  0.2837 -0.2041 -0.4491
 4528TIP3    H135143   3.996   6.228   7.464  0.0796 -0.0919 -0.5142
 4528TIP3    H235144   3.952   6.329   7.568 -1.2592 -0.4545 -0.7050
 4529TIP3   OH235145   1.064   0.732   0.999  0.3503 -0.2417  0.4557
 4529TIP3    H135146   1.088   0.823   1.014  1.0816 -0.1382 -1.1649
 4529TIP3    H235147   1.119   0.704   0.926 -0.8605 -1.5616 -0.0034
 4530TIP3   OH235148   4.944   3.994   7.273  0.3313 -0.1633 -0.2290
 4530TIP3    H135149   5.015   4.004   7.209 -0.1727  1.4792 -0.5870
 4530TIP3    H235150   4.986   4.003   7.358  0.7998 -0.9100 -0.3781
 4531TIP3   OH235151   2.357   0.838   8.476 -0.6221  0.0377  0.5769
 4531TIP3    H135152   2.350   0.747   8.506 -1.3843 -0.3446 -0.7293
 4531TIP3    H235153   2.304   0.843   8.397  0.1485  1.4035  0.1000
 4532TIP3   OH235154   6.165   2.632   8.445  0.3894  1.0130  0.0904
 4532TIP3    H135155   6.216   2.705   8.409 -0.4187  2.0972  1.0566
 4532TIP3    H235156   6.221   2.555   8.432  0.6547  1.5245 -2.2922
 4533TIP3   OH235157   4.422   2.241   1.639  0.7186 -0.9408 -0.0239
 4533TIP3    H135158   4.407   2.320   1.691  0.5742  0.9432 -2.7127
 4533TIP3    H235159   4.515   2.245   1.616  0.6244 -1.3296 -0.4879
 4534TIP3   OH235160   0.860   2.205   8.361  0.0034  0.2808 -0.0572
 4534TIP3    H135161   0.851   2.122   8.316  1.7492 -0.0275  0.0982
 4534TIP3    H235162   0.819   2.269   8.302  2.6974 -0.0149 -2.4273
 4535TIP3   OH235163   3.545   4.011   8.973 -0.1781 -0.1004  0.0344
 4535TIP3    H135164   3.470   4.032   8.918 -0.3985  0.0208  0.3785
 4535TIP3    H235165   3.510   4.011   9.062  0.6641  2.0572  0.4181
 4536TIP3   OH235166   2.843   2.310   0.843 -0.3088  0.1765  0.1320
 4536TIP3    H135167   2.787   2.378   0.881 -0.3962  0.8809 -1.1722
 4536TIP3    H235168   2.793   2.229   0.852 -1.1342  0.6443 -0.1829
 4537TIP3   OH235169   5.045   0.873   1.573  0.2508 -0.0466  0.4643
 4537TIP3    H135170   5.135   0.893   1.548  0.1670 -1.3356 -0.9997
 4537TIP3    H235171   5.013   0.953   1.614  1.9735  0.5113  0.8049
 4538TIP3   OH235172   2.742   2.796   1.104 -0.0129 -0.4411 -0.3336
 4538TIP3    H135173   2.778   2.828   1.187  0.9291 -1.1232 -0.4786
 4538TIP3    H235174   2.662   2.749   1.130 -0.3924  0.3856  0.0572
 4539TIP3   OH235175   3.124   1.024   1.754  0.1075  0.0495  0.0365
 4539TIP3    H135176   3.070   1.071   1.818  1.8819  0.0242  1.6265
 4539TIP3    H235177   3.100   0.932   1.766  0.8044 -0.0127  1.0786
 4540TIP3   OH235178   2.979   5.451   1.703  0.8435 -0.4920 -0.1297
 4540TIP3    H135179   3.027   5.425   1.624  0.5759  1.5197 -1.0103
 4540TIP3    H235180   2.963   5.368   1.749  3.3479 -1.4419 -0.8061
 4541TIP3   OH235181   1.524   1.942   7.417  0.2101  0.5053  0.4924
 4541TIP3    H135182   1.566   1.982   7.341  1.5841  0.2868  1.1112
 4541TIP3    H235183   1.507   2.015   7.476 -0.5727  0.6326  0.1228
 4542TIP3   OH235184   3.031   5.575   8.540 -0.0817  0.0130  0.2074
 4542TIP3    H135185   3.035   5.670   8.554 -2.0812  0.2089 -0.2372
 4542TIP3    H235186   2.991   5.565   8.454  1.5799 -1.2577 -0.4758
 4543TIP3   OH235187   2.671   5.709   0.272  1.0072 -0.4356  0.5334
 4543TIP3    H135188   2.588   5.755   0.285  0.3196 -1.9017  1.5904
 4543TIP3    H235189   2.671   5.686   0.179  0.7343  0.4910  0.2969
 4544TIP3   OH235190   6.202   1.796   0.207 -0.1687 -0.3703 -0.0156
 4544TIP3    H135191   6.290   1.777   0.174  0.2931 -0.8285  1.3727
 4544TIP3    H235192   6.152   1.716   0.191 -0.1634 -0.3176 -0.2893
 4545TIP3   OH235193   1.718   1.041   7.038  0.2853 -0.4225 -0.2203
 4545TIP3    H135194   1.641   1.089   7.008  0.8870  0.4858 -0.3515
 4545TIP3    H235195   1.686   0.954   7.057 -0.9613  0.1773  0.5529
 4546TIP3   OH235196   1.168   0.877   8.040 -0.0302 -0.8042  0.2544
 4546TIP3    H135197   1.092   0.837   8.081  0.2212 -1.4297  0.1280
 4546TIP3    H235198   1.223   0.803   8.014  0.8170 -0.3593  0.7198
 4547TIP3   OH235199   3.334   4.757   2.427  0.4358  0.6375 -0.2882
 4547TIP3    H135200   3.287   4.804   2.496  2.2592 -1.3255  2.5474
 4547TIP3    H235201   3.281   4.679   2.411  0.9219  0.1620  0.3425
 4548TIP3   OH235202   5.453   3.046   0.091  0.3280 -0.5549  0.2379
 4548TIP3    H135203   5.370   3.026   0.048 -0.0429  1.1478  0.1062
 4548TIP3    H235204   5.454   3.141   0.098  1.3336 -0.6555  2.1187
 4549TIP3   OH235205   2.930   5.388   0.864 -0.7022  0.0277 -0.2087
 4549TIP3    H135206   2.933   5.475   0.906  1.9298 -0.4087  0.6963
 4549TIP3    H235207   2.997   5.392   0.796  0.4098 -1.6488  0.7130
 4550TIP3   OH235208   5.840   5.659   2.034 -0.2886  0.2126  0.1440
 4550TIP3    H135209   5.824   5.630   2.123 -0.8397  1.3069  0.4123
 4550TIP3    H235210   5.862   5.752   2.042  0.1028  0.2186 -0.8151
 4551TIP3   OH235211   0.154   2.149   0.399 -0.2569  0.4553  0.1023
 4551TIP3    H135212   0.249   2.144   0.409 -0.2891  0.9228  0.6568
 4551TIP3    H235213   0.140   2.148   0.304  0.1985 -1.3311  0.0044
 4552TIP3   OH235214   3.124   5.032   0.185 -0.0821  0.5429 -0.4015
 4552TIP3    H135215   3.050   5.055   0.241  0.1350 -2.9475  1.5808
 4552TIP3    H235216   3.188   5.101   0.200 -1.3251  1.4457  1.0314
 4553TIP3   OH235217   0.059   4.445   8.048  0.3494  0.1051 -0.1995
 4553TIP3    H135218   0.034   4.459   8.139 -1.7616  1.2975 -0.8762
 4553TIP3    H235219   0.060   4.350   8.038  0.2570 -0.0311  0.9720
 4554TIP3   OH235220   6.181   2.266   0.757  0.2425  0.2367  0.1484
 4554TIP3    H135221   6.263   2.308   0.784  0.7515 -1.1217  0.8625
 4554TIP3    H235222   6.163   2.203   0.827 -1.6811  0.8308  0.2293
 4555TIP3   OH235223   6.065   5.603   0.218  0.1574  0.4257 -0.9445
 4555TIP3    H135224   6.018   5.678   0.255 -0.7813 -0.5526 -0.0900
 4555TIP3    H235225   6.053   5.612   0.124  1.7330  2.4115 -1.0288
 4556TIP3   OH235226   3.690   6.148   8.574 -0.0778  0.4261 -0.0224
 4556TIP3    H135227   3.662   6.150   8.665 -1.8512  1.8004 -0.5243
 4556TIP3    H235228   3.629   6.207   8.529  1.6363  0.9445 -1.8477
 4557TIP3   OH235229   2.774   3.800   8.480 -0.1252  0.1901 -1.0496
 4557TIP3    H135230   2.733   3.787   8.565  0.8356  2.5945 -0.1344
 4557TIP3    H235231   2.820   3.718   8.462 -1.5026 -0.8696  0.0322
 4558TIP3   OH235232   6.542   0.131   7.806  0.2399 -0.6391  0.3974
 4558TIP3    H135233   6.581   0.051   7.770  4.0059  0.6502  1.1353
 4558TIP3    H235234   6.466   0.148   7.750  2.7290 -1.5606 -3.6867
 4559TIP3   OH235235   2.228   6.076   3.031 -0.0136  0.1128  0.2200
 4559TIP3    H135236   2.217   6.147   3.094 -0.4511  0.6925 -0.4857
 4559TIP3    H235237   2.317   6.044   3.046 -0.1254  0.2129  1.1442
 4560TIP3   OH235238   0.617   6.003   0.401  0.3200 -0.1665 -0.4091
 4560TIP3    H135239   0.558   5.932   0.429  0.2534  0.2870  0.6683
 4560TIP3    H235240   0.625   6.059   0.479  0.2250  1.1106 -1.2926
 4561TIP3   OH235241   6.328   2.857   0.727 -0.0898 -0.4132 -0.1130
 4561TIP3    H135242   6.395   2.794   0.700  0.3462  0.8655 -2.3191
 4561TIP3    H235243   6.287   2.885   0.645  1.3034  3.8176  0.3731
 4562TIP3   OH235244   0.240   0.334   0.237 -0.5025 -0.1661 -0.3199
 4562TIP3    H135245   0.147   0.323   0.259 -0.6509  1.3768 -0.0907
 4562TIP3    H235246   0.275   0.244   0.236 -1.3581 -0.6335  2.4454
 4563TIP3   OH235247   6.355   4.594   8.472 -0.0843  0.3725  0.2643
 4563TIP3    H135248   6.276   4.647   8.483 -0.3084  0.2072 -0.4697
 4563TIP3    H235249   6.363   4.545   8.553 -1.8826 -1.1188 -0.3783
 4564TIP3   OH235250   1.847   4.782   2.403 -0.3986  0.4691 -0.1442
 4564TIP3    H135251   1.826   4.842   2.332 -0.2864  0.3956 -0.2414
 4564TIP3    H235252   1.774   4.789   2.464  0.5267  2.2046  0.8646
 4565TIP3   OH235253   3.681   5.613   1.202  0.5340 -0.5182  0.3453
 4565TIP3    H135254   3.611   5.567   1.248  2.3082 -3.0197  0.7394
 4565TIP3    H235255   3.757   5.603   1.259  2.0631 -1.0390 -1.7019
 4566TIP3   OH235256   5.601   4.954   7.090 -0.2438 -0.2118  0.3676
 4566TIP3    H135257   5.549   5.012   7.146 -1.7401  0.5348 -1.6557
 4566TIP3    H235258   5.640   5.013   7.025  1.7023 -1.0064  0.7653
 4567TIP3   OH235259   1.375   4.045   2.125 -0.3064  0.0249  0.2675
 4567TIP3    H135260   1.452   4.032   2.180 -0.1545  2.0597  0.5983
 4567TIP3    H235261   1.309   4.080   2.184 -1.4962 -1.5552 -0.0424
 4568TIP3   OH235262   1.162   4.180   8.973 -0.0418 -0.1452  0.0736
 4568TIP3    H135263   1.244   4.223   8.950  0.2603 -0.9769 -0.4229
 4568TIP3    H235264   1.159   4.182   9.068  1.4850 -1.7905  0.2039
 4569TIP3   OH235265   3.930   0.421   0.542  0.4751 -0.2197  0.3883
 4569TIP3    H135266   3.904   0.330   0.531  0.2699 -0.6156  3.3549
 4569TIP3    H235267   3.990   0.438   0.470  1.0978 -2.9485  0.1684
 4570TIP3   OH235268   4.952   6.290   8.423 -0.1450 -0.1202  0.2119
 4570TIP3    H135269   4.910   6.312   8.507  1.1688 -0.8221  1.0938
 4570TIP3    H235270   5.044   6.279   8.445  0.6883  2.0504 -1.7794
 4571TIP3   OH235271   0.010   4.714   0.263 -0.5434 -0.0992 -0.5532
 4571TIP3    H135272   0.100   4.681   0.270 -0.4048  0.4858  0.7088
 4571TIP3    H235273  -0.029   4.694   0.348 -1.5207 -0.0676 -0.9821
 4572TIP3   OH235274   4.841   2.851   8.235 -0.4416 -0.0637  0.1458
 4572TIP3    H135275   4.794   2.768   8.246 -0.8694  0.1316 -0.1608
 4572TIP3    H235276   4.924   2.828   8.194 -1.4377 -0.1288 -1.9367
 4573TIP3   OH235277   0.239   4.618   8.314  0.3155  0.7002 -0.5119
 4573TIP3    H135278   0.274   4.586   8.397 -0.5914 -0.8154 -0.6710
 4573TIP3    H235279   0.298   4.581   8.248 -0.6302 -0.5657 -0.6864
 4574TIP3   OH235280   4.159   2.395   1.352 -0.3907  0.4082  0.1827
 4574TIP3    H135281   4.077   2.441   1.371 -0.0017  0.8539  0.8339
 4574TIP3    H235282   4.139   2.341   1.276 -1.6225 -0.4000  1.0480
 4575TIP3   OH235283   0.955   3.899   1.675 -0.0932 -0.5077  0.1413
 4575TIP3    H135284   0.929   3.852   1.597 -0.9733 -0.1871  0.2333
 4575TIP3    H235285   1.006   3.973   1.643 -3.3803  1.7096 -0.4868
 4576TIP3   OH235286   6.318   0.037   2.379 -0.4487  0.0717 -0.3072
 4576TIP3    H135287   6.234   0.055   2.423 -0.7399 -0.8673 -0.4715
 4576TIP3    H235288   6.295   0.029   2.287 -0.1706 -0.1859 -0.3523
 4577TIP3   OH235289   4.265   2.841   2.640  0.2856  0.1658  0.0742
 4577TIP3    H135290   4.289   2.791   2.562 -1.4406 -0.6721  0.0311
 4577TIP3    H235291   4.306   2.926   2.628  2.6142 -0.9142 -0.2547
 4578TIP3   OH235292   4.604   0.562   8.567 -0.1722 -0.4697  0.2864
 4578TIP3    H135293   4.622   0.510   8.489 -0.4861 -0.5185  0.2431
 4578TIP3    H235294   4.610   0.653   8.538 -0.8155 -0.4893  0.0763
 4579TIP3   OH235295   3.401   2.044   0.342 -0.5787 -0.8037 -0.2964
 4579TIP3    H135296   3.482   1.997   0.319 -1.6939 -2.3888 -1.2170
 4579TIP3    H235297   3.377   2.091   0.263 -2.2828 -3.0517 -1.2417
 4580TIP3   OH235298   3.232   1.429   1.561 -0.0635 -0.1590  0.2975
 4580TIP3    H135299   3.154   1.399   1.608 -0.2265  0.0104  0.1368
 4580TIP3    H235300   3.254   1.513   1.602 -0.4999  0.2309 -0.2565
 4581TIP3   OH235301   1.851   3.629   7.692  0.1354  0.2369  0.0672
 4581TIP3    H135302   1.806   3.636   7.608  0.8671  0.2211 -0.3387
 4581TIP3    H235303   1.902   3.710   7.698  1.0184 -0.2971 -0.0778
 4582TIP3   OH235304   1.021   2.838   1.022 -0.1967 -0.0307  0.1057
 4582TIP3    H135305   0.948   2.888   0.986  0.7442  0.0466 -1.7903
 4582TIP3    H235306   1.002   2.747   0.998  0.4328  0.0168 -0.5800
 4583TIP3   OH235307   1.322   5.434   0.987  0.0438  0.4661  0.1377
 4583TIP3    H135308   1.358   5.521   0.973  0.0290  0.1911 -1.8974
 4583TIP3    H235309   1.279   5.412   0.904 -0.2538 -1.3403  0.7226
 4584TIP3   OH235310   1.311   2.794   0.087 -0.2412  0.5484 -0.0448
 4584TIP3    H135311   1.262   2.846   0.024 -1.8397 -0.0193  0.6766
 4584TIP3    H235312   1.401   2.824   0.078 -0.5128  0.8443 -2.2024
 4585TIP3   OH235313   0.970   0.570   8.704  0.3011  0.0588 -0.0927
 4585TIP3    H135314   0.875   0.558   8.713  0.1479  1.1755 -0.0926
 4585TIP3    H235315   1.007   0.485   8.727 -0.7349 -0.5905 -0.7650
 4586TIP3   OH235316   4.358   2.817   0.988  0.0773 -0.1517  0.2850
 4586TIP3    H135317   4.286   2.806   1.050 -0.9901  0.3304 -0.8315
 4586TIP3    H235318   4.357   2.738   0.935 -0.0182  0.1033 -0.1030
 4587TIP3   OH235319   0.803   4.873   7.728 -0.4978 -0.3972  0.5102
 4587TIP3    H135320   0.730   4.818   7.758 -0.4168 -0.8482 -0.1059
 4587TIP3    H235321   0.772   4.911   7.646 -1.4299  2.2867  1.9843
 4588TIP3   OH235322   2.401   3.866   8.417  0.3075 -0.3833 -0.0835
 4588TIP3    H135323   2.430   3.776   8.432  2.2601  0.1128 -0.5627
 4588TIP3    H235324   2.453   3.896   8.342  1.5657  1.9060  1.5598
 4589TIP3   OH235325   1.365   4.063   1.236 -0.0495 -0.5354  0.0144
 4589TIP3    H135326   1.422   4.127   1.193 -1.9423 -0.5204 -2.7587
 4589TIP3    H235327   1.362   3.989   1.175 -1.5734 -1.2681  0.9072
 4590TIP3   OH235328   5.199   5.682   0.045 -0.2315  0.1536 -0.2452
 4590TIP3    H135329   5.235   5.750   0.103  0.0280 -1.3259  1.4212
 4590TIP3    H235330   5.117   5.656   0.087  0.7147 -2.0455  0.3969
 4591TIP3   OH235331   3.311   2.677   0.952 -0.0985 -0.0051  0.3831
 4591TIP3    H135332   3.350   2.705   1.034  1.1987  2.2838 -0.9052
 4591TIP3    H235333   3.227   2.723   0.948 -0.2279 -0.2303  0.4819
 4592TIP3   OH235334   2.860   6.240   3.200 -0.0091  0.2054  0.4557
 4592TIP3    H135335   2.821   6.178   3.262 -1.5194  1.2690  0.6157
 4592TIP3    H235336   2.803   6.236   3.124  0.8340  0.2120 -0.1950
 4593TIP3   OH235337   1.813   1.991   0.886  0.1540  0.4102  0.0989
 4593TIP3    H135338   1.875   1.919   0.901  0.1770 -0.0067 -1.7604
 4593TIP3    H235339   1.863   2.070   0.907  0.6420 -0.0342  0.6341
 4594TIP3   OH235340   4.125   4.772   0.918  0.7636 -0.1368 -0.5975
 4594TIP3    H135341   4.099   4.809   0.833  3.4062  2.0070 -0.5866
 4594TIP3    H235342   4.052   4.714   0.941 -2.1342  2.5069 -2.2536
 4595TIP3   OH235343   0.906   1.797   0.585  0.2050  0.1240 -0.1851
 4595TIP3    H135344   0.891   1.878   0.634  2.8625  0.2032  0.6236
 4595TIP3    H235345   0.866   1.729   0.639 -0.0940  0.6380  0.2480
 4596TIP3   OH235346   5.455   2.371   1.093  0.2010  0.4625  0.1259
 4596TIP3    H135347   5.399   2.346   1.020 -0.3356  1.0795  0.3193
 4596TIP3    H235348   5.395   2.400   1.161  0.7708  1.9890  0.0115
 4597TIP3   OH235349   2.935   0.116   3.149 -0.2859  0.0972 -0.0538
 4597TIP3    H135350   2.891   0.201   3.158 -2.6614 -1.1602  1.4297
 4597TIP3    H235351   3.015   0.125   3.200 -1.2535  1.0233  1.3778
 4598TIP3   OH235352   1.348   2.611   8.460  0.5268  0.1358  0.1220
 4598TIP3    H135353   1.432   2.624   8.416 -0.2973  0.9063 -1.2615
 4598TIP3    H235354   1.347   2.677   8.530  0.5830  0.9277 -0.6115
 4599TIP3   OH235355   5.099   6.013   7.957  0.5347  0.2116  0.4338
 4599TIP3    H135356   5.186   5.975   7.966  1.7358  2.4566 -0.9499
 4599TIP3    H235357   5.096   6.083   8.023 -0.1719  0.2639  0.3601
 4600TIP3   OH235358   1.224   6.141   7.630  0.0020  0.0918  0.1102
 4600TIP3    H135359   1.155   6.126   7.566  0.2911  0.2844 -0.2545
 4600TIP3    H235360   1.271   6.218   7.597 -0.5962  0.9554  1.2047
 4601TIP3   OH235361   5.398   0.340   6.787 -0.1529  0.0278 -0.0116
 4601TIP3    H135362   5.456   0.357   6.861  2.5641 -0.2788 -1.9082
 4601TIP3    H235363   5.390   0.425   6.743 -0.6264 -0.0844 -0.1497
 4602TIP3   OH235364   1.008   1.825   1.461  0.4251 -0.0826 -0.1356
 4602TIP3    H135365   1.015   1.788   1.549  0.7982  1.7973  0.6847
 4602TIP3    H235366   0.918   1.859   1.456  0.8950  1.2657  0.1693
 4603TIP3   OH235367   2.004   5.568   8.638 -0.2291 -0.7045 -0.1614
 4603TIP3    H135368   2.034   5.657   8.656 -1.6192 -0.4880  1.3073
 4603TIP3    H235369   2.083   5.520   8.612  1.0910  0.2317  1.9011
 4604TIP3   OH235370   1.561   0.626   8.613 -0.4748 -0.3827  0.3782
 4604TIP3    H135371   1.616   0.601   8.687  0.2004 -0.0125  0.0104
 4604TIP3    H235372   1.622   0.632   8.539 -0.4607  2.7301  0.5087
 4605TIP3   OH235373   4.098   6.717   2.711  0.0547 -0.0374 -0.1101
 4605TIP3    H135374   4.017   6.743   2.757 -0.1936 -1.7473  0.4938
 4605TIP3    H235375   4.163   6.711   2.781  0.9145  1.9269 -0.6737
 4606TIP3   OH235376   1.957   1.900   0.644  0.0898 -0.4483  0.4518
 4606TIP3    H135377   1.904   1.839   0.695 -1.3692  0.8049  0.5187
 4606TIP3    H235378   1.893   1.946   0.589  0.9884  1.5425  0.9665
 4607TIP3   OH235379   6.257   5.094   7.200  0.1431  0.3318  0.3182
 4607TIP3    H135380   6.211   5.014   7.227 -0.7164  0.3252 -1.0847
 4607TIP3    H235381   6.350   5.072   7.208 -0.0644 -1.0145 -0.5659
 4608TIP3   OH235382   4.190   2.912   8.631 -0.5023 -0.6891 -0.6856
 4608TIP3    H135383   4.112   2.966   8.647  0.2322  0.3813 -0.6294
 4608TIP3    H235384   4.156   2.834   8.586 -1.9180 -1.3449  1.3256
 4609TIP3   OH235385   3.100   0.890   8.026  0.2481 -0.4596 -0.0797
 4609TIP3    H135386   3.179   0.916   7.979 -0.0521 -0.8516 -0.8137
 4609TIP3    H235387   3.043   0.967   8.022  0.9376  0.1567  1.2584
 4610TIP3   OH235388   2.343   0.518   0.113 -0.1219 -1.0653  0.5866
 4610TIP3    H135389   2.434   0.537   0.092 -0.1157 -1.4114  0.2917
 4610TIP3    H235390   2.296   0.528   0.030 -0.1835 -1.8861  0.5117
 4611TIP3   OH235391   4.693   1.681   1.672  0.4393  0.8825 -0.2104
 4611TIP3    H135392   4.629   1.663   1.604  1.4487  0.2040 -1.0076
 4611TIP3    H235393   4.657   1.642   1.751  1.2185 -2.2310 -1.2661
 4612TIP3   OH235394   1.575   2.927   8.257 -0.4499 -0.4744 -0.0703
 4612TIP3    H135395   1.526   2.999   8.217  0.9431  0.3262 -0.3708
 4612TIP3    H235396   1.553   2.933   8.350  1.5373  1.9442  0.3429
 4613TIP3   OH235397   2.014   4.299   1.204  0.1325 -0.0983 -0.4341
 4613TIP3    H135398   2.101   4.261   1.219 -0.0314  0.3939  2.1827
 4613TIP3    H235399   1.957   4.223   1.194  0.7823 -0.4293 -1.8993
 4614TIP3   OH235400   6.410   4.843   1.837  0.3287  0.6296 -0.3572
 4614TIP3    H135401   6.317   4.827   1.822 -0.1216  2.0772  0.7816
 4614TIP3    H235402   6.440   4.885   1.756  0.5716 -1.8641 -1.6646
 4615TIP3   OH235403   1.329   1.977   8.682 -0.2838 -0.3659 -0.3499
 4615TIP3    H135404   1.373   2.049   8.726  0.4566 -1.1364  0.1999
 4615TIP3    H235405   1.237   2.005   8.676 -0.3205 -0.0075  1.2474
 4616TIP3   OH235406   1.143   0.212   2.211 -0.2337  0.0194  0.2370
 4616TIP3    H135407   1.189   0.287   2.246 -1.0981  0.1481  1.1287
 4616TIP3    H235408   1.212   0.153   2.180  0.4448  1.6789 -1.6183
 4617TIP3   OH235409   6.528   3.384   0.936  0.0840  0.2461  0.1565
 4617TIP3    H135410   6.591   3.453   0.917  1.3039 -0.5285  1.2133
 4617TIP3    H235411   6.550   3.355   1.025 -0.5393 -1.3314 -0.1743
 4618TIP3   OH235412   0.124   0.365   1.067 -0.6652 -0.1116 -0.2228
 4618TIP3    H135413   0.191   0.413   1.018 -1.1633  0.5072 -0.3099
 4618TIP3    H235414   0.078   0.313   1.001  0.3888 -1.3633 -0.0216
 4619TIP3   OH235415   5.216   1.507   2.194  0.0340 -0.4532  0.7928
 4619TIP3    H135416   5.259   1.493   2.279 -0.9160 -0.3997  1.3010
 4619TIP3    H235417   5.126   1.529   2.217 -0.7082 -2.1960 -0.2864
 4620TIP3   OH235418   5.570   1.242   7.829 -0.4818 -0.0530 -0.6212
 4620TIP3    H135419   5.517   1.311   7.789 -2.0518 -0.5487  0.5392
 4620TIP3    H235420   5.514   1.203   7.896  1.5536 -0.2310  1.0818
 4621TIP3   OH235421   5.611   1.130   8.194 -0.7423 -0.5195 -0.0994
 4621TIP3    H135422   5.612   1.083   8.278  0.6170 -0.8717 -0.2812
 4621TIP3    H235423   5.561   1.073   8.135 -0.5915 -0.9102  0.1408
 4622TIP3   OH235424   0.391   3.689   9.013 -0.9519  0.0558 -0.5356
 4622TIP3    H135425   0.464   3.748   9.030 -0.8039  0.0353 -1.0547
 4622TIP3    H235426   0.324   3.714   9.075  0.2069 -1.2345  1.3388
 4623TIP3   OH235427   0.833   4.978   2.114  0.5428 -0.1070 -0.3663
 4623TIP3    H135428   0.927   4.961   2.111  0.9884  1.8643  0.3060
 4623TIP3    H235429   0.823   5.063   2.071 -0.6863  0.4235  0.8657
 4624TIP3   OH235430   0.748   2.872   1.651 -0.1889 -0.0415  0.3765
 4624TIP3    H135431   0.666   2.897   1.608 -0.5038 -0.1662  0.8930
 4624TIP3    H235432   0.816   2.888   1.586 -0.4977  1.1724  0.3411
 4625TIP3   OH235433   6.400   4.251   7.978 -0.3912 -0.5630  0.2720
 4625TIP3    H135434   6.385   4.268   7.885  0.8401  0.5233  0.2363
 4625TIP3    H235435   6.355   4.323   8.022  0.0171 -0.4101  0.4427
 4626TIP3   OH235436   2.072   0.099   2.354 -0.4245 -0.1024 -0.5392
 4626TIP3    H135437   2.029   0.111   2.270  0.1040  0.5136 -0.7300
 4626TIP3    H235438   2.001   0.076   2.414 -0.7674 -0.8232 -1.2000
 4627TIP3   OH235439   5.923   3.120   8.171 -0.9267  0.2648 -0.4644
 4627TIP3    H135440   5.853   3.120   8.237 -0.0786 -2.1990  0.5309
 4627TIP3    H235441   5.930   3.029   8.144  0.0022  0.9321 -2.6830
 4628TIP3   OH235442   2.766   4.742   1.716 -0.0714 -0.0826 -0.0209
 4628TIP3    H135443   2.712   4.803   1.666 -0.6638 -1.8619 -1.6779
 4628TIP3    H235444   2.703   4.683   1.758  0.5168 -0.1476  0.8037
 4629TIP3   OH235445   3.438   5.752   1.358 -0.3122 -0.0159  0.3427
 4629TIP3    H135446   3.408   5.782   1.273 -0.7150 -1.1148  0.0769
 4629TIP3    H235447   3.359   5.746   1.412 -0.3035 -0.9609  0.2645
 4630TIP3   OH235448   5.857   0.013   8.653  0.5385  0.1995  0.4402
 4630TIP3    H135449   5.947   0.001   8.625  0.9505  3.4564 -0.0544
 4630TIP3    H235450   5.804  -0.023   8.582  1.4527 -0.2172 -0.0429
 4631TIP3   OH235451   1.080   4.458   2.560 -0.2445 -0.2040 -0.8199
 4631TIP3    H135452   1.139   4.392   2.595  1.2925  1.6806  0.4100
 4631TIP3    H235453   1.036   4.415   2.487  2.7105 -1.7466 -1.8593
 4632TIP3   OH235454   5.825   6.495   1.384 -0.2161  0.2604  0.3893
 4632TIP3    H135455   5.849   6.415   1.431  2.2413  0.5816 -0.1651
 4632TIP3    H235456   5.873   6.565   1.428 -1.2106  1.2195 -0.0048
 4633TIP3   OH235457   4.237   1.955   8.371  0.1622  0.4638  0.5054
 4633TIP3    H135458   4.286   1.907   8.304 -1.1813 -0.3694  0.0900
 4633TIP3    H235459   4.296   1.954   8.447  0.6267 -0.9218  0.1705
 4634TIP3   OH235460   4.587   4.343   1.946 -0.2518 -0.2946  0.4387
 4634TIP3    H135461   4.663   4.400   1.933  0.3133 -0.3771  2.9176
 4634TIP3    H235462   4.527   4.395   1.999 -2.4106  0.0838 -2.1385
 4635TIP3   OH235463   2.955   4.532   7.875  0.7500  0.0871 -0.4006
 4635TIP3    H135464   2.943   4.617   7.832 -2.2595 -0.5318 -1.0414
 4635TIP3    H235465   3.049   4.516   7.872  1.4220  3.3156 -0.3671
 4636TIP3   OH235466   5.882   6.602   2.564  0.4163  0.2940 -0.2907
 4636TIP3    H135467   5.791   6.596   2.592  0.4700  1.9024  0.3867
 4636TIP3    H235468   5.882   6.665   2.492  1.0025  0.5821 -0.0593
 4637TIP3   OH235469   5.157   3.216   0.332 -0.0749  0.3420  0.1005
 4637TIP3    H135470   5.187   3.133   0.369  0.5362  1.0449  1.2154
 4637TIP3    H235471   5.177   3.281   0.399  0.5002  1.5734 -1.2164
 4638TIP3   OH235472   4.589   1.925   7.963 -0.3221  0.1894  0.5911
 4638TIP3    H135473   4.664   1.914   7.905 -0.5722 -0.4960  0.3824
 4638TIP3    H235474   4.514   1.896   7.911 -1.0168  2.4839  0.1712
 4639TIP3   OH235475   6.012   1.257   8.794 -0.6287  0.8184 -0.5279
 4639TIP3    H135476   5.961   1.200   8.736 -1.5169  1.2136 -0.1388
 4639TIP3    H235477   6.054   1.320   8.735  0.2925 -0.1606 -0.9554
 4640TIP3   OH235478   6.231   3.363   0.329 -0.3080  0.1247 -0.0261
 4640TIP3    H135479   6.188   3.426   0.387  0.2371  1.3777 -0.9383
 4640TIP3    H235480   6.175   3.286   0.331 -2.0574  1.3357 -0.3634
 4641TIP3   OH235481   6.211   3.063   2.129 -0.3808 -0.0688  0.5104
 4641TIP3    H135482   6.306   3.050   2.131 -0.3149  0.3327  0.2633
 4641TIP3    H235483   6.181   3.040   2.217 -0.4960 -3.3507 -0.2602
 4642TIP3   OH235484   3.117   4.344   2.724  0.4151  0.1943 -0.3113
 4642TIP3    H135485   3.094   4.258   2.690  1.4879 -0.2438  0.0440
 4642TIP3    H235486   3.212   4.342   2.734  0.3752  1.1482  0.4424
 4643TIP3   OH235487   2.588   0.112   2.244 -0.5254  0.8272  0.2555
 4643TIP3    H135488   2.520   0.167   2.281 -0.6833 -0.1802  1.4966
 4643TIP3    H235489   2.557   0.022   2.256  1.8831  0.1866  2.8402
 4644TIP3   OH235490   3.003   0.377   1.685 -0.0738  0.0160  0.3174
 4644TIP3    H135491   2.960   0.384   1.771 -0.8769  0.6987 -0.1257
 4644TIP3    H235492   2.937   0.336   1.629  0.0260  0.6167 -0.2505
 4645TIP3   OH235493   1.822   2.641   7.160 -0.4222 -0.1462  0.2373
 4645TIP3    H135494   1.780   2.580   7.099 -0.2695 -0.1011  0.0849
 4645TIP3    H235495   1.842   2.718   7.106  2.7109 -1.3335 -0.5233
 4646TIP3   OH235496   1.463   4.319   8.496  0.3686  0.8696 -0.3325
 4646TIP3    H135497   1.460   4.296   8.403  0.6026 -0.2657 -0.0726
 4646TIP3    H235498   1.413   4.400   8.502  1.8660  1.9784 -1.7362
 4647TIP3   OH235499   2.858   2.518   1.137  0.0677  0.0928 -0.2646
 4647TIP3    H135500   2.804   2.581   1.185  1.9608  1.0412  0.7521
 4647TIP3    H235501   2.806   2.495   1.060 -1.6952  1.0412  0.5820
 4648TIP3   OH235502   4.518   2.391   0.678 -0.6366 -0.5714 -0.1217
 4648TIP3    H135503   4.546   2.447   0.750 -1.3685 -0.7081  0.2784
 4648TIP3    H235504   4.457   2.330   0.717  1.4571 -2.8368 -0.1840
 4649TIP3   OH235505   3.032   4.419   2.118  0.1949 -0.0413 -0.6054
 4649TIP3    H135506   2.969   4.489   2.100 -1.3184 -1.4815 -1.1846
 4649TIP3    H235507   3.002   4.380   2.199  0.8403 -0.2327 -0.4536
 4650TIP3   OH235508   5.957   5.203   8.438  0.1523  0.2861  0.0511
 4650TIP3    H135509   5.938   5.110   8.445  0.1439  0.2777 -0.0769
 4650TIP3    H235510   6.051   5.210   8.454  0.0178  0.3480  0.8666
 4651TIP3   OH235511   1.231   6.253   1.392  0.0166 -0.7510  0.0499
 4651TIP3    H135512   1.138   6.271   1.398  0.1814 -0.2999  1.7543
 4651TIP3    H235513   1.273   6.336   1.417  0.8266 -1.6701  1.9508
 4652TIP3   OH235514   0.628   0.531   2.985 -0.2647 -0.0334  0.3429
 4652TIP3    H135515   0.681   0.600   3.024 -0.6684 -0.5340  1.8552
 4652TIP3    H235516   0.679   0.451   2.998 -0.3099 -0.1797 -0.3628
 4653TIP3   OH235517   4.263   0.193   2.600 -0.9705  0.0965  0.1306
 4653TIP3    H135518   4.281   0.200   2.506  1.6113  2.9291  0.6820
 4653TIP3    H235519   4.317   0.120   2.630 -1.3551 -0.4433 -0.4746
 4654TIP3   OH235520   1.945   0.340   2.791  0.0907 -0.6768  0.2625
 4654TIP3    H135521   1.910   0.348   2.703 -0.3391 -1.3044  0.3656
 4654TIP3    H235522   2.038   0.319   2.779  0.1066 -0.4399 -0.0321
 4655TIP3   OH235523   4.318   2.102   2.057 -0.2933  0.2622 -0.0012
 4655TIP3    H135524   4.238   2.051   2.074 -0.9587  0.3746 -2.5037
 4655TIP3    H235525   4.388   2.050   2.099 -1.4348 -0.7054  0.7908
 4656TIP3   OH235526   0.087   1.792   2.196 -0.5088 -0.0098  0.2935
 4656TIP3    H135527   0.147   1.787   2.121 -1.3445  1.3675 -0.5120
 4656TIP3    H235528   0.114   1.873   2.241 -1.0800  0.0490  0.5292
 4657TIP3   OH235529   1.871   5.312   9.078 -0.0907  0.3701  1.1254
 4657TIP3    H135530   1.788   5.283   9.039  0.8624 -1.2752  0.1947
 4657TIP3    H235531   1.899   5.385   9.023  0.5635 -1.0686 -0.5551
 4658TIP3   OH235532   3.417   1.780   7.861  0.0451 -0.0890  0.5110
 4658TIP3    H135533   3.390   1.751   7.774  1.2283  1.6915 -0.5210
 4658TIP3    H235534   3.476   1.711   7.892 -0.4253 -0.7657 -0.0565
 4659TIP3   OH235535   0.640   2.185   1.165  0.3142 -0.0719 -0.6611
 4659TIP3    H135536   0.614   2.206   1.075  1.9977 -0.1742 -1.1926
 4659TIP3    H235537   0.696   2.108   1.157 -0.8941 -1.1602  0.6805
 4660TIP3   OH235538   5.675   4.429   7.713 -0.1223 -0.5483 -0.4525
 4660TIP3    H135539   5.620   4.431   7.635  0.3455  2.2499 -0.8327
 4660TIP3    H235540   5.614   4.441   7.785 -0.4408 -1.9790 -0.4737
 4661TIP3   OH235541   1.362   4.141   0.237 -0.6112  0.6646 -0.3223
 4661TIP3    H135542   1.434   4.178   0.185  0.3283 -0.4635  0.1422
 4661TIP3    H235543   1.402   4.117   0.320 -1.0145 -1.9136 -0.7850
 4662TIP3   OH235544   0.049   6.389   7.700  0.1794  0.4732  0.1424
 4662TIP3    H135545   0.076   6.434   7.779 -0.5819 -0.5134  0.9907
 4662TIP3    H235546   0.077   6.298   7.712 -1.2898 -0.0303 -0.0230
 4663TIP3   OH235547   4.866   0.846   8.051  0.1094 -0.0112  0.0896
 4663TIP3    H135548   4.955   0.864   8.081  0.3697 -0.1923 -0.5474
 4663TIP3    H235549   4.850   0.755   8.079  0.4264 -0.2484 -0.4790
 4664TIP3   OH235550   3.665   0.924   9.039  0.3380 -0.5242  0.0675
 4664TIP3    H135551   3.593   0.931   9.101 -0.7663  0.4237 -1.2448
 4664TIP3    H235552   3.669   1.010   8.997  1.6703 -0.8351 -0.5072
 4665TIP3   OH235553   1.654   5.278   2.178 -0.0237 -0.3290 -0.8948
 4665TIP3    H135554   1.746   5.302   2.169 -0.4622  1.0354 -2.1425
 4665TIP3    H235555   1.610   5.360   2.200 -1.0403 -0.8261 -1.0090
 4666TIP3   OH235556   3.221   1.424   1.957 -0.3667  0.2695 -0.1755
 4666TIP3    H135557   3.213   1.519   1.966  0.1871  0.2370  0.7983
 4666TIP3    H235558   3.201   1.390   2.044  3.6832 -0.2149  0.7600
 4667TIP3   OH235559   0.403   3.261   1.172  0.4304  0.2055  0.3199
 4667TIP3    H135560   0.399   3.256   1.267  3.0020 -1.8106  0.4545
 4667TIP3    H235561   0.364   3.179   1.142 -0.5005  0.8958 -0.3941
 4668TIP3   OH235562   4.913   1.244   7.884 -0.2791 -0.0455 -0.0479
 4668TIP3    H135563   4.962   1.191   7.820 -0.8269 -0.2938 -0.2660
 4668TIP3    H235564   4.828   1.200   7.891 -0.4804  0.3996  0.3085
 4669TIP3   OH235565   0.006   4.586   8.631  0.3375  0.1666  0.5380
 4669TIP3    H135566   0.061   4.633   8.694  1.3444 -0.6510  0.2829
 4669TIP3    H235567   0.005   4.495   8.663  2.1823 -0.6309 -1.4552
 4670TIP3   OH235568   3.200   4.027   2.148  0.3994  0.3282  0.0319
 4670TIP3    H135569   3.145   4.083   2.202  2.1387  0.9183  1.3016
 4670TIP3    H235570   3.269   4.085   2.116  0.8803 -0.5899 -0.6675
 4671TIP3   OH235571   5.847   6.216   1.446  0.2416  0.3883  0.1120
 4671TIP3    H135572   5.845   6.126   1.478 -2.7240  1.0972  2.4185
 4671TIP3    H235573   5.882   6.210   1.357 -0.2780 -3.0721  0.0142
 4672TIP3   OH235574   0.314   6.535   8.134 -0.2568 -0.1259  0.7882
 4672TIP3    H135575   0.385   6.589   8.169 -0.6817  0.6034  0.5425
 4672TIP3    H235576   0.239   6.556   8.189 -0.4365 -0.4438  0.6644
 4673TIP3   OH235577   3.904   0.774   7.226 -0.0318 -0.4299 -0.8299
 4673TIP3    H135578   3.844   0.809   7.160  0.0923  1.3604 -0.0546
 4673TIP3    H235579   3.850   0.760   7.303  0.7584  3.3339  0.6226
 4674TIP3   OH235580   3.942   2.030   0.552 -0.7252  0.3262 -0.2093
 4674TIP3    H135581   4.014   2.093   0.550 -0.9367  0.5709 -0.1183
 4674TIP3    H235582   3.970   1.959   0.494 -0.2514  0.2481  0.1094
 4675TIP3   OH235583   5.980   0.450   0.524  0.3370 -0.3576 -0.5561
 4675TIP3    H135584   5.977   0.362   0.487  1.7211 -1.0394  0.8248
 4675TIP3    H235585   5.947   0.439   0.614  0.6023  0.5220 -0.3411
 4676TIP3   OH235586   0.133   6.278   7.167 -0.3337 -0.4502  0.8525
 4676TIP3    H135587   0.043   6.248   7.156 -0.7834  1.1538 -0.1032
 4676TIP3    H235588   0.130   6.337   7.242 -0.8459  2.2463 -1.1358
 4677TIP3   OH235589   3.344   6.200   1.701 -0.0014  0.2487 -0.6243
 4677TIP3    H135590   3.290   6.125   1.674 -0.6175  0.7065 -0.6921
 4677TIP3    H235591   3.427   6.188   1.655 -0.2333 -0.1946 -0.9293
 4678TIP3   OH235592   4.979   0.178   7.652 -0.6375  0.0935  0.2477
 4678TIP3    H135593   4.956   0.270   7.642 -1.0603 -0.0156  0.1985
 4678TIP3    H235594   5.074   0.178   7.658 -0.7392  0.7381  2.5595
 4679TIP3   OH235595   4.927   2.554   9.064 -0.2610  0.1769  0.3082
 4679TIP3    H135596   4.997   2.562   9.129 -0.2134 -2.5369  0.6957
 4679TIP3    H235597   4.971   2.518   8.987 -0.6932  1.4768 -0.5863
 4680TIP3   OH235598   1.882   0.331   2.473  0.3303  0.1521  0.8720
 4680TIP3    H135599   1.834   0.250   2.490  0.3208  0.2129  1.1331
 4680TIP3    H235600   1.948   0.307   2.408 -1.2700  0.4733 -0.9598
 4681TIP3   OH235601   1.292   6.054   1.111  0.4279  0.5949  0.3716
 4681TIP3    H135602   1.276   6.134   1.161 -0.7925  0.5578  0.0720
 4681TIP3    H235603   1.226   5.992   1.144  1.0902 -0.1653  0.3121
 4682TIP3   OH235604   0.695   0.262   9.097  0.0072 -0.1235  0.1378
 4682TIP3    H135605   0.744   0.344   9.088  3.1335 -1.4497  3.0466
 4682TIP3    H235606   0.610   0.289   9.131  0.3364  2.0008 -0.5692
 4683TIP3   OH235607   5.839   2.096   2.550  0.6319  0.3397 -0.1513
 4683TIP3    H135608   5.744   2.108   2.558  0.7298  0.3859  1.2342
 4683TIP3    H235609   5.850   2.002   2.535  0.2953  0.5995 -2.2581
 4684TIP3   OH235610   0.587   6.093   7.840  0.1096  0.2668  0.4054
 4684TIP3    H135611   0.599   5.999   7.857 -0.6974  0.0916  0.0358
 4684TIP3    H235612   0.604   6.135   7.924 -0.9355 -0.3347  0.9298
 4685TIP3   OH235613   0.718   5.242   1.255 -0.2656 -0.0796  0.1239
 4685TIP3    H135614   0.811   5.265   1.257  0.2620 -1.9985  0.5109
 4685TIP3    H235615   0.685   5.264   1.342 -0.4083  1.3321 -0.2588
 4686TIP3   OH235616   6.711   4.764   2.542 -0.8306 -0.2579 -0.3581
 4686TIP3    H135617   6.690   4.772   2.635 -0.1229  1.1141 -0.2917
 4686TIP3    H235618   6.795   4.719   2.539 -0.1129  1.0294 -0.2342
 4687TIP3   OH235619   1.805   4.942   0.484  0.4312 -0.4007  0.2610
 4687TIP3    H135620   1.732   4.981   0.532  2.3576  1.8611  1.5258
 4687TIP3    H235621   1.806   4.988   0.400  1.3374  0.7516  0.8790
 4688TIP3   OH235622   3.285   4.524   1.552 -0.0268  0.3778  0.5201
 4688TIP3    H135623   3.271   4.455   1.617  0.2169 -0.4762 -0.3204
 4688TIP3    H235624   3.249   4.488   1.471 -0.2496  1.4011  0.1576
 4689TIP3   OH235625   2.336   1.863   1.989  0.2893  0.1158  0.4672
 4689TIP3    H135626   2.318   1.770   1.972 -0.1787  0.1146  0.9385
 4689TIP3    H235627   2.378   1.863   2.075 -0.8970  0.4470  1.0618
 4690TIP3   OH235628   0.527   1.272   1.647 -0.3627  0.5826 -0.0654
 4690TIP3    H135629   0.508   1.298   1.557  0.8776  1.2858 -0.1387
 4690TIP3    H235630   0.473   1.329   1.701 -2.2279 -0.8182 -0.3690
 4691TIP3   OH235631   2.379   0.539   7.393 -0.0183  0.0703  0.0716
 4691TIP3    H135632   2.319   0.597   7.441  0.7898 -0.6375  2.0730
 4691TIP3    H235633   2.357   0.552   7.301 -1.8733  1.3140  0.6289
 4692TIP3   OH235634   0.880   5.702   2.554  0.5267 -0.3899  0.6201
 4692TIP3    H135635   0.792   5.668   2.536  0.5614  0.1089 -0.5660
 4692TIP3    H235636   0.935   5.663   2.486  0.7044  1.4280 -0.3404
 4693TIP3   OH235637   6.255   5.457   2.152  0.5555 -0.6683  0.2147
 4693TIP3    H135638   6.327   5.407   2.113  1.1003 -0.3188  0.7602
 4693TIP3    H235639   6.183   5.395   2.155  0.5377 -0.7594 -1.1908
 4694TIP3   OH235640   1.439   4.182   7.618  0.2539  0.0622  0.1812
 4694TIP3    H135641   1.443   4.093   7.651 -3.3651 -0.7325 -1.0349
 4694TIP3    H235642   1.348   4.193   7.590  1.4550  2.7557 -3.5177
 4695TIP3   OH235643   1.764   1.504   0.480  0.1866 -0.6206  0.1871
 4695TIP3    H135644   1.816   1.543   0.551 -0.4680  3.0931 -1.1444
 4695TIP3    H235645   1.828   1.482   0.413  0.6678 -2.9119  1.3095
 4696TIP3   OH235646   4.827   6.114   7.218 -0.0903 -0.3871  0.2372
 4696TIP3    H135647   4.891   6.158   7.161  0.5268 -0.1568  1.0903
 4696TIP3    H235648   4.757   6.089   7.159  0.0383  0.7997 -0.4695
 4697TIP3   OH235649   4.908   5.903   7.360 -0.2405 -0.4523  0.2013
 4697TIP3    H135650   4.881   5.984   7.317  0.5530 -0.9089 -1.2212
 4697TIP3    H235651   4.970   5.863   7.299 -0.1559 -1.8374  1.1524
 4698TIP3   OH235652   2.547   5.885   0.600  0.3411  0.2572 -0.1557
 4698TIP3    H135653   2.639   5.896   0.621  0.8713 -1.3546 -1.3866
 4698TIP3    H235654   2.542   5.901   0.506 -0.4493 -0.5655 -0.2683
 4699TIP3   OH235655   3.255   0.853   8.787 -0.0693  0.2477 -0.3213
 4699TIP3    H135656   3.215   0.768   8.766  0.8113 -0.1450 -0.4758
 4699TIP3    H235657   3.337   0.830   8.829  0.2607  1.0309 -0.5302
 4700TIP3   OH235658   1.780   0.007   2.815 -0.0266  0.1605 -0.3920
 4700TIP3    H135659   1.823   0.034   2.896  0.6910 -1.0562 -0.3434
 4700TIP3    H235660   1.714   0.074   2.800  0.9559  1.3304  0.2821
 4701TIP3   OH235661   6.132   5.079   7.947 -0.6344  0.2642  0.4965
 4701TIP3    H135662   6.104   5.124   8.027 -1.5891  0.0001  0.3234
 4701TIP3    H235663   6.061   5.094   7.885  0.2205  0.7000 -0.4067
 4702TIP3   OH235664   5.683   6.396   1.114  0.5122 -0.2638 -0.1738
 4702TIP3    H135665   5.637   6.353   1.186 -0.9192  0.7768 -0.4397
 4702TIP3    H235666   5.755   6.443   1.157 -2.6662  3.8678  1.3588
 4703TIP3   OH235667   6.505   5.001   1.200  0.2669 -0.1952 -0.0580
 4703TIP3    H135668   6.521   5.091   1.173  1.6232 -0.3643  0.1029
 4703TIP3    H235669   6.542   4.995   1.289 -1.6604 -0.3781  0.7868
 4704TIP3   OH235670   0.177   0.206   1.309  0.2978 -0.0328  0.0151
 4704TIP3    H135671   0.271   0.188   1.304  0.2779 -0.6504  1.4036
 4704TIP3    H235672   0.154   0.239   1.222  1.5231 -1.1937 -0.7853
 4705TIP3   OH235673   2.982   0.109   2.370  0.2923 -0.3415  0.2879
 4705TIP3    H135674   2.898   0.083   2.331  0.6322  0.3205 -0.9073
 4705TIP3    H235675   2.958   0.170   2.440 -0.1937  0.5252 -0.6107
 4706TIP3   OH235676   0.184   0.990   8.086  0.4841  0.4106 -0.0391
 4706TIP3    H135677   0.154   1.063   8.140 -0.9341  0.5474 -0.9656
 4706TIP3    H235678   0.113   0.975   8.024 -0.5646 -3.6221  1.8406
 4707TIP3   OH235679   1.394   0.299   0.524 -0.7387 -0.1429  0.0913
 4707TIP3    H135680   1.359   0.215   0.494  0.5596 -0.5394 -0.3955
 4707TIP3    H235681   1.429   0.340   0.445  0.6280 -0.1481  0.6651
 4708TIP3   OH235682   2.331   2.848   7.889 -0.6997 -0.3603 -0.4275
 4708TIP3    H135683   2.261   2.880   7.946  0.0670 -0.6643  0.7261
 4708TIP3    H235684   2.293   2.848   7.802 -2.1282 -0.4653  0.1639
 4709TIP3   OH235685   0.520   3.839   1.303 -0.3347  0.4233  0.3085
 4709TIP3    H135686   0.611   3.813   1.314 -0.8257 -1.9763 -0.7866
 4709TIP3    H235687   0.524   3.933   1.283  2.1738 -0.1162 -2.5030
 4710TIP3   OH235688   4.201   0.665   7.551  0.0725  0.2908 -0.2437
 4710TIP3    H135689   4.166   0.590   7.502 -3.3241  0.9841  0.8586
 4710TIP3    H235690   4.201   0.736   7.487 -0.6046  0.2696 -0.2805
 4711TIP3   OH235691   0.354   4.175   0.983 -0.3904 -0.1829  0.3960
 4711TIP3    H135692   0.277   4.120   0.973 -0.0901 -0.3294 -1.3318
 4711TIP3    H235693   0.334   4.254   0.933 -0.6623  1.1863  2.5175
 4712TIP3   OH235694   3.646   5.888   0.394  0.2977 -0.1220 -0.3055
 4712TIP3    H135695   3.655   5.976   0.357  0.6842 -0.0681 -0.0971
 4712TIP3    H235696   3.736   5.859   0.407  0.1904 -1.0440 -1.5057
 4713TIP3   OH235697   1.026   0.348   7.868 -0.4026  0.3442 -0.4536
 4713TIP3    H135698   0.987   0.351   7.780 -1.0246  1.6113 -0.1733
 4713TIP3    H235699   1.115   0.381   7.856 -0.2007 -0.2844 -0.7285
 4714TIP3   OH235700   3.900   2.984   2.168  0.1256  0.0683  0.5318
 4714TIP3    H135701   3.940   2.909   2.212  0.9814  0.8447  1.1089
 4714TIP3    H235702   3.970   3.048   2.161 -1.0943  1.6543  1.9933
 4715TIP3   OH235703   6.307   3.216   1.573  0.3024 -0.7715 -0.5914
 4715TIP3    H135704   6.313   3.269   1.494 -0.0032 -0.3881 -0.3585
 4715TIP3    H235705   6.231   3.250   1.620  1.6331  0.3551  0.8560
 4716TIP3   OH235706   2.773   4.648   1.314  0.2927  0.2238  0.1307
 4716TIP3    H135707   2.688   4.687   1.332  0.0031 -0.0339 -0.6181
 4716TIP3    H235708   2.817   4.644   1.399 -1.0991 -1.2101  0.8232
 4717TIP3   OH235709   6.385   3.847   0.303  0.4550 -0.1340 -0.5792
 4717TIP3    H135710   6.377   3.834   0.208 -0.7744 -1.0989 -0.3645
 4717TIP3    H235711   6.394   3.759   0.338 -2.7040 -0.1553  0.4846
 4718TIP3   OH235712   6.015   0.209   8.832  0.2495  0.3176 -1.1194
 4718TIP3    H135713   6.061   0.227   8.750 -0.5528  0.5390 -1.5332
 4718TIP3    H235714   5.966   0.129   8.815  1.6169 -0.7716 -0.1944
 4719TIP3   OH235715   5.866   1.895   0.926 -0.5358 -0.4688 -0.2104
 4719TIP3    H135716   5.810   1.916   0.852 -2.5389  1.3002  1.6454
 4719TIP3    H235717   5.843   1.961   0.992  2.4527 -0.8262  1.3396
 4720TIP3   OH235718   1.855   0.269   0.722 -0.2586  0.0850  0.2452
 4720TIP3    H135719   1.914   0.220   0.665 -2.3110 -0.0167 -1.9544
 4720TIP3    H235720   1.835   0.209   0.793  1.8286 -0.0395  0.8190
 4721TIP3   OH235721   4.399   1.867   8.573 -0.6310  0.3698 -0.2742
 4721TIP3    H135722   4.460   1.902   8.638 -0.6714  0.8394 -0.4828
 4721TIP3    H235723   4.381   1.778   8.603  1.0208 -0.1801 -0.8077
 4722TIP3   OH235724   5.726   1.446   2.190  0.3841  0.5878  0.7997
 4722TIP3    H135725   5.750   1.420   2.279  0.0186 -1.8440  0.2601
 4722TIP3    H235726   5.797   1.413   2.135 -1.4664 -2.0250 -0.2407
 4723TIP3   OH235727   2.701   5.201   0.798 -0.3229 -0.0100 -0.1517
 4723TIP3    H135728   2.634   5.263   0.827  0.7303  2.0096 -1.7835
 4723TIP3    H235729   2.776   5.255   0.774  2.2754 -2.1947  2.2655
 4724TIP3   OH235730   1.273   1.199   7.958  0.0233  0.3341  0.4134
 4724TIP3    H135731   1.206   1.208   7.891 -0.2793 -1.2395  0.4717
 4724TIP3    H235732   1.334   1.270   7.940 -0.7292  0.7262 -0.7213
 4725TIP3   OH235733   4.001   4.255   8.602 -0.0184 -0.1219  0.7908
 4725TIP3    H135734   3.957   4.255   8.687 -0.6128 -0.2500  0.4925
 4725TIP3    H235735   3.943   4.307   8.546  1.3787  1.7117  0.9705
 4726TIP3   OH235736   1.708   2.242   0.530 -0.1243 -0.3205  0.1340
 4726TIP3    H135737   1.736   2.207   0.446 -0.4284 -1.9953  0.7034
 4726TIP3    H235738   1.767   2.316   0.546  0.8346 -0.8344 -0.9041
 4727TIP3   OH235739   2.522   1.540   7.901 -0.0040 -0.0308 -0.1676
 4727TIP3    H135740   2.545   1.541   7.808 -2.0073 -0.2480 -0.7061
 4727TIP3    H235741   2.534   1.631   7.929  3.4446 -0.4400  0.1993
 4728TIP3   OH235742   0.136   1.622   0.732 -0.0790  0.6341  0.4441
 4728TIP3    H135743   0.144   1.527   0.733 -1.9227  0.4018 -1.0025
 4728TIP3    H235744   0.076   1.642   0.803 -1.2547  0.4861 -0.4785
 4729TIP3   OH235745   5.641   3.282   0.446  0.6820  0.2306 -0.3287
 4729TIP3    H135746   5.652   3.342   0.372 -0.7276 -0.2503 -0.9602
 4729TIP3    H235747   5.565   3.316   0.494  1.8127  0.7639  1.1489
 4730TIP3   OH235748   5.196   6.282   8.136 -0.4989  0.1554  0.1855
 4730TIP3    H135749   5.213   6.376   8.141  1.7658 -0.2357  1.3713
 4730TIP3    H235750   5.214   6.250   8.225 -0.6744 -1.4710 -0.3286
 4731TIP3   OH235751   6.287   3.778   0.038  0.2006  0.4159 -0.4207
 4731TIP3    H135752   6.279   3.685   0.057  0.8182  0.6832  1.3840
 4731TIP3    H235753   6.211   3.799  -0.017 -0.2402 -1.0281 -0.3834
 4732TIP3   OH235754   5.915   2.608   2.023 -0.2407 -0.1839  0.0127
 4732TIP3    H135755   5.994   2.555   2.014  0.8504  1.5072 -0.7701
 4732TIP3    H235756   5.844   2.543   2.029  0.9664 -1.7273 -1.3720
 4733TIP3   OH235757   3.799   4.909   8.536  0.0504  0.2075  0.3794
 4733TIP3    H135758   3.801   4.986   8.479 -0.3115 -0.1263 -0.0953
 4733TIP3    H235759   3.861   4.848   8.495 -1.4443 -0.6967 -0.6355
 4734TIP3   OH235760   2.631   1.561   1.457  0.4205  0.2866  0.5662
 4734TIP3    H135761   2.580   1.553   1.538  0.7610  0.0262  0.7547
 4734TIP3    H235762   2.568   1.539   1.388  0.0245  0.8902  0.7271
 4735TIP3   OH235763   5.887   0.506   8.485  0.1489  0.2228 -0.1223
 4735TIP3    H135764   5.801   0.512   8.443 -0.5327  0.3854  1.2458
 4735TIP3    H235765   5.914   0.415   8.471 -1.4420 -0.5877  1.6260
 4736TIP3   OH235766   3.449   4.552   7.680  0.3675 -0.3100 -0.2444
 4736TIP3    H135767   3.520   4.493   7.655  0.8949 -0.3041  1.1860
 4736TIP3    H235768   3.473   4.584   7.766 -0.5760  0.9727 -0.4327
 4737TIP3   OH235769   5.774   2.284   7.537  0.3291  0.3613 -0.7817
 4737TIP3    H135770   5.867   2.307   7.544 -0.2335  2.4801  0.5678
 4737TIP3    H235771   5.759   2.224   7.610  0.5328  0.4386 -0.6735
 4738TIP3   OH235772   1.798   0.941   0.993  0.2536  0.0834  0.2736
 4738TIP3    H135773   1.764   1.017   1.041 -0.7933 -0.4117  0.3360
 4738TIP3    H235774   1.795   0.967   0.901 -1.4542 -0.3662  0.1682
 4739TIP3   OH235775   6.066   4.545   7.486  0.4987  0.1783 -0.1540
 4739TIP3    H135776   6.156   4.552   7.517 -0.0958  1.9832  1.3667
 4739TIP3    H235777   6.027   4.474   7.538  0.6543  0.3874  0.2530
 4740TIP3   OH235778   2.296   4.083   7.861 -0.2993  0.0613  0.8505
 4740TIP3    H135779   2.262   4.023   7.927 -3.5712  1.2819  0.4488
 4740TIP3    H235780   2.225   4.092   7.798  1.3109  1.8590 -0.8298
 4741TIP3   OH235781   5.877   3.635   8.747  0.0248 -0.2574 -0.1216
 4741TIP3    H135782   5.895   3.726   8.725  0.0496 -0.2509 -0.0736
 4741TIP3    H235783   5.807   3.640   8.812  1.0577 -0.2088  1.0219
 4742TIP3   OH235784   3.959   1.190   1.187  0.1959 -0.4155 -0.2204
 4742TIP3    H135785   3.900   1.197   1.112  1.0028 -0.3782 -0.8653
 4742TIP3    H235786   4.036   1.146   1.152  0.2870 -1.0586  0.7744
 4743TIP3   OH235787   4.723   1.084   1.309 -0.2075 -0.4212  0.5002
 4743TIP3    H135788   4.691   1.052   1.224  0.5675  1.4242 -0.5408
 4743TIP3    H235789   4.793   1.023   1.332  0.5460 -0.1403 -0.9255
 4744TIP3   OH235790   2.006   4.595   8.978 -0.0542  0.1082 -0.3386
 4744TIP3    H135791   1.949   4.671   8.972  1.1276  1.1840  1.2138
 4744TIP3    H235792   2.085   4.628   9.021  0.3876 -2.0438  0.6246
 4745TIP3   OH235793   4.584   1.275   1.817  0.0261  0.1406  0.1031
 4745TIP3    H135794   4.544   1.361   1.804  1.6712  0.7465 -1.2715
 4745TIP3    H235795   4.560   1.224   1.740 -2.6524 -1.4282  1.8127
 4746TIP3   OH235796   5.226   6.095   2.807  0.0789  0.4424  0.7025
 4746TIP3    H135797   5.171   6.089   2.885 -0.5619 -0.6221  0.1929
 4746TIP3    H235798   5.311   6.059   2.835  0.0666  0.6908  1.0754
 4747TIP3   OH235799   5.973   6.162   8.667 -0.5781 -0.3203 -0.1305
 4747TIP3    H135800   5.963   6.088   8.726 -2.4523  0.6285  0.8401
 4747TIP3    H235801   5.924   6.136   8.588 -0.6010 -0.3986 -0.0907
 4748TIP3   OH235802   4.211   4.449   2.223 -0.2162  0.3351 -0.9506
 4748TIP3    H135803   4.250   4.449   2.135  0.6968 -0.2008 -0.5480
 4748TIP3    H235804   4.123   4.414   2.209  0.3141 -0.8481 -1.4993
 4749TIP3   OH235805   6.030   4.446   2.040  0.9515  0.2114  0.5850
 4749TIP3    H135806   5.948   4.466   2.086  1.3231 -1.4922  2.0834
 4749TIP3    H235807   6.017   4.482   1.952 -1.1076  0.6363  1.0016
 4750TIP3   OH235808   6.217   6.123   3.035 -0.4179 -0.0885 -0.0895
 4750TIP3    H135809   6.311   6.111   3.025 -0.6161 -0.2056 -2.4782
 4750TIP3    H235810   6.207   6.180   3.112  1.5021 -0.9674  0.8710
 4751TIP3   OH235811   3.044   2.604   1.499 -0.6889  0.0146 -0.2844
 4751TIP3    H135812   3.067   2.556   1.419 -1.2839  0.7470 -0.9239
 4751TIP3    H235813   3.112   2.671   1.507 -0.3515 -0.3764  0.1045
 4752TIP3   OH235814   1.045   0.826   1.514  0.1091  0.1870  0.1378
 4752TIP3    H135815   1.091   0.853   1.434  2.9713  1.3729  2.0490
 4752TIP3    H235816   1.090   0.747   1.542 -2.2187 -1.4444 -0.4126
 4753TIP3   OH235817   1.080   1.799   1.751 -0.0132 -0.8687 -0.1499
 4753TIP3    H135818   1.007   1.763   1.802 -0.0610 -0.6057 -0.0358
 4753TIP3    H235819   1.142   1.726   1.744  0.3328 -0.6952  0.9111
 4754TIP3   OH235820   3.082   3.614   2.024 -0.3439 -0.1441  0.3921
 4754TIP3    H135821   3.042   3.627   1.938  1.0206  0.8392 -0.1359
 4754TIP3    H235822   3.079   3.520   2.038 -0.8601 -0.2890 -0.6020
 4755TIP3   OH235823   6.288   6.450   0.012 -0.3920 -0.1863 -0.5035
 4755TIP3    H135824   6.253   6.427   0.098  1.7588 -1.1227  0.1706
 4755TIP3    H235825   6.214   6.493  -0.033 -2.4229 -2.1432  0.7672
 4756TIP3   OH235826   5.133   1.640   2.569 -0.6823 -0.7080 -0.2557
 4756TIP3    H135827   5.208   1.604   2.521 -0.7913 -1.6378  0.2563
 4756TIP3    H235828   5.165   1.724   2.603 -0.0540 -0.8393 -0.4998
 4757TIP3   OH235829   0.989   5.658   7.847 -0.3573 -0.7182  0.2021
 4757TIP3    H135830   1.082   5.680   7.857 -0.4534 -0.0068 -0.3734
 4757TIP3    H235831   0.988   5.566   7.821  0.3342 -0.0935 -2.2397
 4758TIP3   OH235832   0.730   0.027   7.461 -0.0402  0.4715  0.4131
 4758TIP3    H135833   0.783   0.103   7.440  1.5609 -0.5740  0.5113
 4758TIP3    H235834   0.773  -0.012   7.537 -0.4292 -0.8894 -0.0320
 4759TIP3   OH235835   5.433   1.505   8.052 -0.3173  0.4960  0.3751
 4759TIP3    H135836   5.400   1.416   8.060  1.6112 -0.1150  2.6429
 4759TIP3    H235837   5.525   1.494   8.027 -0.5030  1.9506 -1.1027
 4760TIP3   OH235838   0.808   6.524   7.303  0.0200 -0.2527 -0.2462
 4760TIP3    H135839   0.814   6.618   7.289  0.7758 -0.2924 -0.2170
 4760TIP3    H235840   0.840   6.486   7.221 -0.7881 -0.4879 -0.4597
 4761TIP3   OH235841   4.010   4.570   2.636  0.1108 -0.2705 -0.2489
 4761TIP3    H135842   3.979   4.612   2.716  0.1355 -0.7528  0.0198
 4761TIP3    H235843   4.063   4.636   2.593  0.5564 -0.1879  0.4149
 4762TIP3   OH235844   4.575   5.261   2.342 -0.1317 -0.2988  0.1435
 4762TIP3    H135845   4.523   5.324   2.292 -1.1371 -0.8524  0.4673
 4762TIP3    H235846   4.515   5.229   2.409  0.2795 -1.7698 -0.1529
 4763TIP3   OH235847   1.121   6.698   0.027 -0.2390  0.1468 -0.3898
 4763TIP3    H135848   1.132   6.791   0.007  0.3680  0.4692  1.2607
 4763TIP3    H235849   1.130   6.654  -0.057 -0.7423  1.5898 -1.2360
 4764TIP3   OH235850   0.228   5.958   0.228 -0.0435 -0.1178  0.0110
 4764TIP3    H135851   0.260   5.877   0.189 -0.2415  0.8013 -2.2443
 4764TIP3    H235852   0.144   5.934   0.267  0.7068 -1.3382  0.9303
 4765TIP3   OH235853   0.097   2.905   2.020 -0.1052  0.5570  0.4351
 4765TIP3    H135854   0.004   2.907   2.002 -0.1589  3.2899  0.6043
 4765TIP3    H235855   0.111   2.823   2.068 -2.5110  0.3721  0.9167
 4766TIP3   OH235856   5.154   3.072   1.887 -0.3354  0.2477  0.4401
 4766TIP3    H135857   5.082   3.009   1.887 -0.5848  0.5143 -0.8382
 4766TIP3    H235858   5.116   3.154   1.855  0.6575  0.2001 -0.9886
 4767TIP3   OH235859   1.067   3.519   8.015  0.1039 -0.1807 -0.3016
 4767TIP3    H135860   1.116   3.561   7.944 -0.0590  0.0044 -0.3053
 4767TIP3    H235861   0.975   3.531   7.991  0.0278  0.6624  0.3887
 4768TIP3   OH235862   1.065   6.558   1.458  0.1551  0.1424  0.3587
 4768TIP3    H135863   1.156   6.577   1.477 -0.0933  0.3517  1.4674
 4768TIP3    H235864   1.029   6.640   1.425  0.2616  0.1879  0.3566
 4769TIP3   OH235865   4.079   4.831   0.642 -0.0974  0.2687  0.5173
 4769TIP3    H135866   4.096   4.847   0.549 -3.2143  0.4415 -0.1353
 4769TIP3    H235867   4.030   4.749   0.643 -1.8176  1.2644  1.7801
 4770TIP3   OH235868   2.733   6.720   1.230 -0.0244 -0.4896  0.4517
 4770TIP3    H135869   2.711   6.737   1.138 -0.3938 -2.9412  0.0307
 4770TIP3    H235870   2.648   6.709   1.273  0.1303  0.9969  1.2189
 4771TIP3   OH235871   6.364   1.166   2.177 -0.2757 -0.1638  0.1877
 4771TIP3    H135872   6.347   1.183   2.084  0.3512 -2.8446 -0.4965
 4771TIP3    H235873   6.458   1.183   2.187 -0.6306  1.6960  0.7838
 4772TIP3   OH235874   2.987   3.557   1.083  0.0502  0.7076  0.0561
 4772TIP3    H135875   2.949   3.639   1.051 -0.7485 -0.3566 -1.8659
 4772TIP3    H235876   2.952   3.490   1.025  0.1883 -1.1164  1.9803
 4773TIP3   OH235877   4.244   1.513   1.101 -0.5636  0.1792  0.4469
 4773TIP3    H135878   4.281   1.595   1.135  1.0678  0.7044 -2.2821
 4773TIP3    H235879   4.319   1.458   1.082 -1.1749  0.2367 -2.8176
 4774TIP3   OH235880   2.593   5.523   8.777 -0.1751 -0.2140 -0.1354
 4774TIP3    H135881   2.660   5.520   8.709  0.0843 -0.4808  0.1264
 4774TIP3    H235882   2.605   5.442   8.827  0.8556  0.7778  1.3421
 4775TIP3   OH235883   0.536   4.355   1.671  0.2586  0.9803 -0.4682
 4775TIP3    H135884   0.462   4.294   1.660  0.4487  0.6177  0.2133
 4775TIP3    H235885   0.494   4.440   1.685 -0.0771  0.5765  1.1736
 4776TIP3   OH235886   0.743   6.564   0.049 -0.5380 -0.0346  0.1387
 4776TIP3    H135887   0.775   6.474   0.049 -0.8938 -0.1617 -0.0844
 4776TIP3    H235888   0.811   6.613   0.094 -0.3807 -0.4296  0.3376
 4777TIP3   OH235889   5.143   3.661   2.765 -0.1006  0.5261 -0.1390
 4777TIP3    H135890   5.062   3.642   2.812 -0.6234  0.8223 -0.9008
 4777TIP3    H235891   5.156   3.586   2.708  0.8890 -0.1399  0.9309
 4778TIP3   OH235892   0.605   4.835   0.419 -0.1496 -0.1161  0.5470
 4778TIP3    H135893   0.632   4.839   0.327 -1.0493  0.5378  0.2914
 4778TIP3    H235894   0.667   4.891   0.465 -0.7593  1.0336  0.0329
 4779TIP3   OH235895   1.027   4.766   1.628 -0.6104  0.3649 -0.3900
 4779TIP3    H135896   1.063   4.733   1.710 -0.4194 -1.5191 -1.1744
 4779TIP3    H235897   1.090   4.831   1.598 -0.3740  0.6289  0.6416
 4780TIP3   OH235898   3.214   1.293   8.608  0.5691  0.4656 -0.4127
 4780TIP3    H135899   3.270   1.290   8.530  3.2532  0.6395  1.3768
 4780TIP3    H235900   3.170   1.377   8.603  1.0309  0.6539 -1.5343
 4781TIP3   OH235901   3.274   2.147   8.658 -0.0802  0.3970 -0.3546
 4781TIP3    H135902   3.252   2.122   8.569 -1.9299  0.5828  0.0073
 4781TIP3    H235903   3.289   2.241   8.655 -1.8613  0.7191 -0.2095
 4782TIP3   OH235904   5.641   3.947   1.333 -0.1757 -0.1885 -0.3961
 4782TIP3    H135905   5.582   4.022   1.338  0.2087  0.1025 -0.0674
 4782TIP3    H235906   5.604   3.883   1.394 -0.2814 -0.1007 -0.3688
 4783TIP3   OH235907   5.265   1.392   0.622 -0.7177 -0.3479 -0.0573
 4783TIP3    H135908   5.281   1.405   0.528  1.4271 -0.2311  0.2710
 4783TIP3    H235909   5.270   1.479   0.659 -1.2119 -0.4380  0.2312
 4784TIP3   OH235910   4.519   4.942   2.051 -0.5118 -0.3040  0.0546
 4784TIP3    H135911   4.514   4.847   2.060 -0.0314 -0.3133  0.2381
 4784TIP3    H235912   4.434   4.973   2.083 -1.2609 -0.7576 -1.3860
 4785TIP3   OH235913   1.681   0.865   0.137 -0.5615  0.2318  0.3188
 4785TIP3    H135914   1.772   0.866   0.166  0.0080  1.8253 -1.2804
 4785TIP3    H235915   1.682   0.917   0.056 -3.1408  1.4772  1.0048
 4786TIP3   OH235916   0.832   4.035   8.998 -0.2252  0.5011 -0.2363
 4786TIP3    H135917   0.790   4.115   9.031  0.1864  0.8297 -0.5058
 4786TIP3    H235918   0.881   4.002   9.073 -0.6583  0.3156 -0.0263
 4787TIP3   OH235919   2.812   1.378   0.555  0.6136  0.9611  0.1996
 4787TIP3    H135920   2.870   1.430   0.499  2.7452 -0.5946  0.8117
 4787TIP3    H235921   2.792   1.435   0.628 -0.1761  2.1666 -0.9111
 4788TIP3   OH235922   5.714   5.715   0.632  0.1219  0.1140 -0.2180
 4788TIP3    H135923   5.662   5.782   0.677  1.2738  0.4409  0.7003
 4788TIP3    H235924   5.719   5.643   0.694 -1.2859 -0.9485 -1.2876
 4789TIP3   OH235925   6.197   4.277   0.737 -0.2397 -0.1577 -0.4592
 4789TIP3    H135926   6.154   4.273   0.652  1.4303  0.3323 -1.3707
 4789TIP3    H235927   6.170   4.362   0.773 -1.8064 -0.8251  0.0124
 4790TIP3   OH235928   1.680   1.949   3.125 -0.0635  0.3952 -0.3082
 4790TIP3    H135929   1.615   1.911   3.184  0.7015  2.3263  1.9595
 4790TIP3    H235930   1.721   1.874   3.081 -2.9902 -0.9309 -0.9919
 4791TIP3   OH235931   6.340   1.602   1.017 -0.1195 -0.0788  0.2075
 4791TIP3    H135932   6.390   1.542   1.072  0.4283  0.7505  0.6344
 4791TIP3    H235933   6.394   1.612   0.938  0.6964  1.2276  0.8871
 4792TIP3   OH235934   0.920   3.890   0.911 -0.6406  0.1414 -0.1900
 4792TIP3    H135935   0.941   3.874   0.819 -2.4578  0.9035 -0.7870
 4792TIP3    H235936   0.872   3.812   0.939 -0.8920  0.3044 -0.1638
 4793TIP3   OH235937   6.133   5.218   2.718 -0.3220  0.1095 -0.2498
 4793TIP3    H135938   6.186   5.148   2.679 -0.5785 -0.2744  0.0805
 4793TIP3    H235939   6.122   5.191   2.809  2.4162  2.2187  0.8387
 4794TIP3   OH235940   3.985   1.383   1.776  0.5149 -0.0725 -0.8988
 4794TIP3    H135941   3.900   1.426   1.768  1.5575  1.9888 -1.7378
 4794TIP3    H235942   3.969   1.292   1.750 -1.9522 -0.5259  1.6889
 4795TIP3   OH235943   2.115   4.488   1.766 -0.1315  0.3627  0.0069
 4795TIP3    H135944   2.142   4.479   1.857  2.1018  0.7239 -0.5717
 4795TIP3    H235945   2.072   4.405   1.745  1.9306 -0.9119  0.5888
 4796TIP3   OH235946   5.005   6.715   7.311 -0.1753  0.3461 -0.4401
 4796TIP3    H135947   5.083   6.663   7.329 -1.3255 -1.4084 -0.2593
 4796TIP3    H235948   4.949   6.702   7.387 -0.4651  1.9851 -0.3397
 4797TIP3   OH235949   5.900   1.860   9.088  0.4325 -0.2836  0.7370
 4797TIP3    H135950   5.888   1.861   9.182 -0.3259 -1.1655  0.6604
 4797TIP3    H235951   5.822   1.902   9.052  0.4248 -0.5222  0.4703
 4798TIP3   OH235952   2.481   4.065   0.724 -0.3439 -0.3260 -0.4882
 4798TIP3    H135953   2.398   4.089   0.682  0.5230  0.2925 -1.9133
 4798TIP3    H235954   2.537   4.142   0.713  0.5808 -0.9159 -0.0011
 4799TIP3   OH235955   2.989   0.944   0.837 -0.4032 -0.7565 -0.0385
 4799TIP3    H135956   3.028   0.951   0.924 -0.7240 -1.4681  0.1704
 4799TIP3    H235957   2.978   1.035   0.808 -0.7449 -0.5045  0.8625
 4800TIP3   OH235958   0.759   4.454   7.905 -0.2867 -0.3858 -0.6061
 4800TIP3    H135959   0.732   4.545   7.907  0.4677 -0.1324 -1.4638
 4800TIP3    H235960   0.801   4.439   7.990 -1.3641 -0.2513 -0.0356
 4801TIP3   OH235961   3.938   5.955   8.055 -0.1244  0.6691 -0.3608
 4801TIP3    H135962   3.975   5.978   8.141 -0.7326 -2.9707  1.0475
 4801TIP3    H235963   3.843   5.960   8.068 -0.2236  1.2693 -1.2253
 4802TIP3   OH235964   6.698   5.694   8.913 -0.1434  0.2466  0.0473
 4802TIP3    H135965   6.781   5.663   8.877  0.4576  0.6155  1.0640
 4802TIP3    H235966   6.701   5.789   8.900 -0.3594  0.2720  0.1792
 4803TIP3   OH235967   6.168   5.062   1.405 -0.6972  0.0463  0.1976
 4803TIP3    H135968   6.120   5.144   1.392  0.0044  0.4337 -0.0020
 4803TIP3    H235969   6.234   5.084   1.471  0.0615 -0.1110 -0.4969
 4804TIP3   OH235970   6.180   3.170   1.852  0.3168  0.1729 -0.0533
 4804TIP3    H135971   6.211   3.093   1.806  0.4545  1.3353 -2.0341
 4804TIP3    H235972   6.232   3.173   1.933  0.3426 -1.7286  0.0371
 4805TIP3   OH235973   2.219   1.201   7.583  0.4910  0.7813 -0.5430
 4805TIP3    H135974   2.191   1.287   7.552  2.7867  1.3330 -1.2789
 4805TIP3    H235975   2.258   1.159   7.506 -1.5008 -1.4194 -0.4839
 4806TIP3   OH235976   4.776   5.706   8.928  0.2024 -0.4077  0.3291
 4806TIP3    H135977   4.807   5.768   8.994 -1.9332  0.9065  0.1984
 4806TIP3    H235978   4.686   5.687   8.953 -0.9820  0.7792 -2.5746
 4807TIP3   OH235979   2.968   4.996   9.032  1.0834  0.2134  0.4407
 4807TIP3    H135980   2.994   4.959   8.948  1.0285  0.2227  0.4194
 4807TIP3    H235981   3.004   4.936   9.097  0.9236  0.0758  0.4042
 4808TIP3   OH235982   4.649   1.185   8.498 -0.4789 -0.2552  0.2426
 4808TIP3    H135983   4.718   1.118   8.504 -1.3277 -1.0453  1.4941
 4808TIP3    H235984   4.620   1.199   8.588 -1.5142  0.5454 -0.1927
 4809TIP3   OH235985   0.224   3.948   1.281  0.2367 -0.1293 -0.4728
 4809TIP3    H135986   0.299   3.900   1.314  0.2394  0.1469 -0.0747
 4809TIP3    H235987   0.205   3.908   1.196  1.4192  0.4156 -1.0258
 4810TIP3   OH235988   2.035   4.869   1.258  0.0449  0.3608  0.2661
 4810TIP3    H135989   2.033   4.945   1.316  0.8203  0.9518 -0.4655
 4810TIP3    H235990   1.942   4.849   1.242 -0.1755  0.4883  1.3004
 4811TIP3   OH235991   6.154   1.743   6.917 -0.1208  0.3569 -0.0157
 4811TIP3    H135992   6.161   1.836   6.939  1.7258 -0.2370  2.3089
 4811TIP3    H235993   6.139   1.700   7.001  1.6618 -1.6503 -0.6410
 4812TIP3   OH235994   5.054   4.397   8.895  0.2801  0.4676 -0.1799
 4812TIP3    H135995   5.082   4.319   8.942  0.5352  1.5112  1.4756
 4812TIP3    H235996   4.968   4.374   8.860  0.3511 -0.5398  0.2765
 4813TIP3   OH235997   0.558   1.785   7.429  0.5444  0.1836  0.0221
 4813TIP3    H135998   0.627   1.840   7.393  0.2604  1.7177  1.6344
 4813TIP3    H235999   0.529   1.730   7.356  0.7629  2.2866 -1.7422
 4814TIP3   OH236000   5.196   0.281   2.249 -0.1555  0.2855 -0.0304
 4814TIP3    H136001   5.263   0.219   2.222  0.0567 -0.3282  1.7580
 4814TIP3    H236002   5.218   0.303   2.339 -0.0330  3.2711 -0.6797
 4815TIP3   OH236003   4.000   5.323   8.137  0.4652 -0.2943  0.5102
 4815TIP3    H136004   4.035   5.287   8.055 -0.8794  0.3911 -0.3994
 4815TIP3    H236005   4.049   5.404   8.150  0.4624 -0.2462  0.2214
 4816TIP3   OH236006   3.276   1.750   8.205  0.0477 -0.5412 -0.0574
 4816TIP3    H136007   3.344   1.814   8.185  1.1671 -1.3116  1.1194
 4816TIP3    H236008   3.309   1.667   8.170 -0.7685 -0.7452 -0.3806
 4817TIP3   OH236009   2.657   0.986   0.283  0.1616 -0.5287  0.2163
 4817TIP3    H136010   2.561   0.983   0.280  0.1051  0.8350  0.0912
 4817TIP3    H236011   2.684   1.011   0.195  0.6875 -1.5392  0.0717
 4818TIP3   OH236012   1.400   5.969   8.248 -0.4417  0.2625  0.4493
 4818TIP3    H136013   1.450   5.899   8.207  1.5505  2.1648 -0.5556
 4818TIP3    H236014   1.327   5.984   8.188  0.0156  0.1140 -0.1532
 4819TIP3   OH236015   6.336   1.179   8.625  0.1900 -0.2270 -0.1938
 4819TIP3    H136016   6.382   1.223   8.553  0.6700 -1.0029 -0.3711
 4819TIP3    H236017   6.354   1.086   8.612 -0.6812 -0.4715  0.2697
 4820TIP3   OH236018   6.709   3.109   8.778  0.3662  0.7155 -0.0082
 4820TIP3    H136019   6.690   3.020   8.746  2.5093  0.2193 -0.0999
 4820TIP3    H236020   6.751   3.095   8.863  0.1868  1.6768  0.2427
 4821TIP3   OH236021   5.433   2.841   0.962  0.7646 -0.0010 -0.1558
 4821TIP3    H136022   5.377   2.839   0.885 -0.8559 -1.3554  1.0026
 4821TIP3    H236023   5.374   2.862   1.034  1.9121 -0.5314  0.9794
 4822TIP3   OH236024   0.077   3.269   0.387  0.3389  0.6514 -0.1315
 4822TIP3    H136025   0.024   3.328   0.334 -0.4313  0.6714  0.6360
 4822TIP3    H236026   0.013   3.219   0.438  0.8989 -1.4155 -1.3069
 4823TIP3   OH236027   0.240   0.290   8.226 -0.1776 -0.0210 -0.0833
 4823TIP3    H136028   0.221   0.215   8.171  0.5733  0.2891 -0.7880
 4823TIP3    H236029   0.315   0.262   8.279 -0.5218 -0.1103  0.3630
 4824TIP3   OH236030   0.996   3.517   8.606  0.2797 -0.3408  0.3548
 4824TIP3    H136031   1.036   3.438   8.568 -0.1817 -1.8836  2.8531
 4824TIP3    H236032   0.930   3.483   8.667 -1.5593  2.0607 -0.1655
 4825TIP3   OH236033   6.705   6.547   1.631 -0.3577 -0.5288 -0.1618
 4825TIP3    H136034   6.713   6.582   1.543 -0.4058 -0.9030 -0.3172
 4825TIP3    H236035   6.781   6.490   1.642 -0.0330 -0.0288  0.2555
 4826TIP3   OH236036   2.340   5.184   8.864 -0.1791  0.4792 -0.1351
 4826TIP3    H136037   2.426   5.223   8.847 -0.4471  1.4510  0.6917
 4826TIP3    H236038   2.289   5.203   8.785  0.1640  0.4219 -0.3770
 4827TIP3   OH236039   2.144   2.643   7.179 -0.1689  0.4387  0.0724
 4827TIP3    H136040   2.051   2.621   7.168 -0.4379  1.3349  0.4919
 4827TIP3    H236041   2.190   2.579   7.124 -0.9379 -0.9292  0.9724
 4828TIP3   OH236042   3.148   5.548   8.231 -0.0599  0.3265 -0.3578
 4828TIP3    H136043   3.137   5.473   8.289  2.3298  2.1631  2.7943
 4828TIP3    H236044   3.175   5.510   8.148  0.9491 -2.3653  1.0765
 4829TIP3   OH236045   4.475   5.737   8.579  0.1088 -0.7265 -0.6275
 4829TIP3    H136046   4.384   5.714   8.567 -0.3475 -0.8537  2.2239
 4829TIP3    H236047   4.494   5.801   8.510 -1.2399 -2.7416 -3.0146
 4830TIP3   OH236048   4.310   0.661   2.922  0.2656  0.0721  0.1021
 4830TIP3    H136049   4.307   0.576   2.966 -1.4402  0.0983  0.1042
 4830TIP3    H236050   4.353   0.719   2.984  0.0871 -0.4531  0.7265
 4831TIP3   OH236051   6.086   0.425   1.072  0.1045  0.1028 -0.0233
 4831TIP3    H136052   6.034   0.476   1.134 -1.0237  0.5596 -1.2943
 4831TIP3    H236053   6.032   0.348   1.054  0.7593 -0.3950  0.1201
 4832TIP3   OH236054   1.057   6.124   2.380 -0.0946 -0.4406  0.0642
 4832TIP3    H136055   1.006   6.202   2.404  1.9173  1.5668 -1.6148
 4832TIP3    H236056   1.148   6.152   2.393  0.7462 -1.9433 -2.1104
 4833TIP3   OH236057   5.292   2.619   8.566 -0.1881  0.5121 -0.3426
 4833TIP3    H136058   5.215   2.675   8.550  0.5915  1.7795  0.1660
 4833TIP3    H236059   5.339   2.664   8.637  1.2981  0.0481 -1.0073
 4834TIP3   OH236060   5.660   0.219   6.992 -0.1896  0.7075  0.5898
 4834TIP3    H136061   5.620   0.303   7.015 -0.2502  0.2963  2.1413
 4834TIP3    H236062   5.647   0.165   7.070 -0.5141 -0.8821 -0.5252
 4835TIP3   OH236063   5.571   6.658   9.059  0.4177  0.2193 -0.3888
 4835TIP3    H136064   5.553   6.564   9.050 -1.1362  0.4035  0.4574
 4835TIP3    H236065   5.625   6.665   9.137 -1.3321  0.1654  0.8985
 4836TIP3   OH236066   5.179   0.372   0.265 -0.4406 -0.5314  0.2214
 4836TIP3    H136067   5.172   0.336   0.353 -1.6439 -1.7191 -0.3092
 4836TIP3    H236068   5.177   0.466   0.277  0.5595 -0.6566  1.5308
 4837TIP3   OH236069   1.878   0.595   1.929 -0.3856 -0.3462 -0.2333
 4837TIP3    H136070   1.792   0.565   1.956 -0.3229  0.4654  0.9260
 4837TIP3    H236071   1.924   0.615   2.010  0.6937 -0.1938 -0.8519
 4838TIP3   OH236072   2.216   5.830   1.845  0.0271  0.5474 -0.3864
 4838TIP3    H136073   2.300   5.786   1.834 -0.4917 -0.2986 -1.1121
 4838TIP3    H236074   2.223   5.908   1.790  0.7703  1.1322  0.5136
 4839TIP3   OH236075   6.198   6.683   0.531 -0.2520 -0.6349 -0.6460
 4839TIP3    H136076   6.191   6.774   0.559  0.1775 -1.0201  0.7801
 4839TIP3    H236077   6.142   6.678   0.453  0.8760  1.1840 -1.6569
 4840TIP3   OH236078   4.942   0.426   1.887  0.5604 -0.3896 -0.6676
 4840TIP3    H136079   4.968   0.518   1.883 -0.4559 -0.0442  0.2516
 4840TIP3    H236080   4.864   0.420   1.831 -1.9878  0.3063  2.4959
 4841TIP3   OH236081   3.143   0.112   0.028 -0.6378 -0.1245  0.5164
 4841TIP3    H136082   3.211   0.141   0.089  0.1634 -0.5047 -0.1802
 4841TIP3    H236083   3.104   0.194  -0.003 -0.0505  0.1290  0.4214
 4842TIP3   OH236084   1.549   5.884   0.800 -0.2483 -0.3741 -0.0518
 4842TIP3    H136085   1.594   5.818   0.853 -0.1460 -0.6474 -0.4809
 4842TIP3    H236086   1.553   5.964   0.853 -1.5018 -1.0077  1.0692
 4843TIP3   OH236087   4.305   2.805   8.915 -0.4029 -0.3725  0.4637
 4843TIP3    H136088   4.345   2.727   8.877  0.2796  0.8674 -1.5169
 4843TIP3    H236089   4.275   2.856   8.840 -1.4217  0.9883  1.7185
 4844TIP3   OH236090   4.271   3.459   6.799  0.3582  0.2827 -1.0904
 4844TIP3    H136091   4.358   3.440   6.834 -0.6997 -0.5448  1.3020
 4844TIP3    H236092   4.278   3.549   6.768  1.4751  1.1065  1.2729
 4845TIP3   OH236093   4.874   3.075   0.413 -0.1104  0.1503 -0.8493
 4845TIP3    H136094   4.921   3.144   0.459  1.5680 -1.6129  0.2134
 4845TIP3    H236095   4.784   3.107   0.408  0.2827  1.7281  1.0092
 4846TIP3   OH236096   0.171   1.603   1.360 -0.3070 -0.5223 -0.3458
 4846TIP3    H136097   0.260   1.637   1.370 -0.5602 -0.2226  1.1339
 4846TIP3    H236098   0.180   1.509   1.375 -0.3634 -0.3618  0.7688
 4847TIP3   OH236099   0.101   2.051   2.294 -0.1210  0.0753  0.3479
 4847TIP3    H136100   0.078   2.101   2.216 -0.2011 -2.6700 -1.5104
 4847TIP3    H236101   0.189   2.082   2.317  1.2490 -1.0855 -2.7398
 4848TIP3   OH236102   5.336   3.826   7.606 -0.4843  0.2730 -0.1529
 4848TIP3    H136103   5.379   3.838   7.521 -0.5537  0.5376 -0.1535
 4848TIP3    H236104   5.390   3.762   7.652  0.2243  0.9956  0.0554
 4849TIP3   OH236105   5.525   4.170   2.637 -0.5422  0.3898  0.3411
 4849TIP3    H136106   5.447   4.139   2.684 -0.1204  0.2131  0.9305
 4849TIP3    H236107   5.596   4.163   2.701 -0.0176  0.4290 -0.2328
 4850TIP3   OH236108   0.323   2.948   0.099  0.4308 -0.0477  0.1313
 4850TIP3    H136109   0.386   2.876   0.091  0.9520  0.2516  1.3492
 4850TIP3    H236110   0.363   3.020   0.050 -0.0012 -0.5075 -0.9282
 4851TIP3   OH236111   0.057   1.130   9.051  0.4340 -0.1989  0.2891
 4851TIP3    H136112   0.105   1.049   9.034  0.6620  0.4978 -2.9206
 4851TIP3    H236113   0.110   1.175   9.117 -0.3358 -3.0541  3.1254
 4852TIP3   OH236114   0.276   0.413   2.105  0.3183 -0.4853  0.5682
 4852TIP3    H136115   0.359   0.377   2.075  1.0959  0.8018  1.0604
 4852TIP3    H236116   0.263   0.376   2.192  2.0413  1.6913  1.8539
 4853TIP3   OH236117   1.898   5.710   8.321 -0.1294 -0.2962 -0.2288
 4853TIP3    H136118   1.809   5.704   8.355 -0.7622  1.1621 -1.4869
 4853TIP3    H236119   1.938   5.626   8.341 -1.4116 -0.5554  1.3724
 4854TIP3   OH236120   6.552   0.277   8.978 -0.2061 -0.5492  0.0876
 4854TIP3    H136121   6.621   0.342   8.989  1.3501 -2.0056 -0.7158
 4854TIP3    H236122   6.535   0.244   9.066 -0.5236  0.4217  0.4038
 4855TIP3   OH236123   1.274   0.706   0.823  0.3833  0.1961 -0.3040
 4855TIP3    H136124   1.319   0.657   0.892 -0.3477  0.4581  0.3675
 4855TIP3    H236125   1.307   0.795   0.831 -1.5081  0.8227  1.3691
 4856TIP3   OH236126   2.143   0.849   0.685 -0.3460  0.4938  0.5559
 4856TIP3    H136127   2.108   0.793   0.616  1.1047 -0.7875  0.8025
 4856TIP3    H236128   2.233   0.865   0.659 -0.7792  3.0395  0.3475
 4857TIP3   OH236129   1.513   0.297   8.819 -0.9217 -0.2743 -0.0286
 4857TIP3    H136130   1.588   0.346   8.853 -1.8276  1.0626  0.1082
 4857TIP3    H236131   1.530   0.207   8.845  0.7090 -0.0348 -0.1215
 4858TIP3   OH236132   0.010   1.615   1.849 -0.4627  0.5989  0.2971
 4858TIP3    H136133   0.073   1.658   1.906  0.3380 -1.4516  1.0788
 4858TIP3    H236134  -0.007   1.678   1.779  0.2623  2.3021  1.5870
 4859TIP3   OH236135   0.675   5.626   3.242 -0.3669 -0.2819 -0.1043
 4859TIP3    H136136   0.750   5.653   3.189  0.0575 -1.1617  0.0327
 4859TIP3    H236137   0.599   5.647   3.188 -0.0029  0.0716 -0.4949
 4860TIP3   OH236138   4.154   6.495   8.163  0.3187 -0.3256  0.2527
 4860TIP3    H136139   4.150   6.417   8.109  3.0776 -0.3933 -0.0206
 4860TIP3    H236140   4.108   6.472   8.244  1.5629 -2.4873  0.4165
 4861TIP3   OH236141   6.278   3.954   0.641 -0.1731 -0.8664  0.4327
 4861TIP3    H136142   6.243   4.033   0.681 -1.1098 -0.2163 -1.5126
 4861TIP3    H236143   6.369   3.977   0.620 -0.5442 -0.1263 -0.4627
 4862TIP3   OH236144   5.868   2.421   7.040 -0.1053  1.2775  0.8242
 4862TIP3    H136145   5.845   2.432   6.947  1.1861  0.6095  0.3906
 4862TIP3    H236146   5.898   2.330   7.045  0.3923  1.4927  1.7774
 4863TIP3   OH236147   5.903   4.182   0.862  0.1971 -0.5325  0.4934
 4863TIP3    H136148   5.908   4.093   0.827  0.2810  0.1930 -1.4522
 4863TIP3    H236149   5.867   4.234   0.790 -0.6050  0.8878  1.8583
 4864TIP3   OH236150   1.519   1.116   0.104  0.1418  0.3208 -0.4597
 4864TIP3    H136151   1.521   1.059   0.181  0.8321  2.6595  1.4079
 4864TIP3    H236152   1.533   1.058   0.030  0.7483 -1.8967  1.2876
 4865TIP3   OH236153   6.179   3.139   8.681 -0.6330 -0.0209  0.6030
 4865TIP3    H136154   6.159   3.231   8.694  0.6232  0.3884 -0.2312
 4865TIP3    H236155   6.198   3.131   8.588  0.2996 -0.9047  0.8515
 4866TIP3   OH236156   5.963   2.181   1.959  0.4871 -0.4667 -0.1184
 4866TIP3    H136157   5.907   2.243   2.007  0.1219 -1.1111  0.3076
 4866TIP3    H236158   5.902   2.134   1.901  1.0361  0.8415 -1.8200
 4867TIP3   OH236159   3.477   3.174   9.099 -0.2885 -0.0569 -0.2302
 4867TIP3    H136160   3.518   3.108   9.156  0.4297  0.4425 -0.1556
 4867TIP3    H236161   3.462   3.128   9.017  0.4978 -0.2445 -0.2836
 4868TIP3   OH236162   4.459   1.340   1.358  0.3730  0.0465  0.3517
 4868TIP3    H136163   4.501   1.283   1.423 -0.7178  0.5964  1.5757
 4868TIP3    H236164   4.391   1.285   1.319  1.3401 -0.4355 -0.7019
 4869TIP3   OH236165   1.441   6.649   8.293 -1.2578  0.1890  0.2370
 4869TIP3    H136166   1.485   6.576   8.250 -0.4661  0.6903  0.1677
 4869TIP3    H236167   1.497   6.725   8.273 -1.3111  0.5654  1.4699
 4870TIP3   OH236168   1.733   4.458   2.411  0.4501  0.3848  0.1986
 4870TIP3    H136169   1.784   4.507   2.476  0.8975 -0.0170  0.1532
 4870TIP3    H236170   1.689   4.390   2.462  0.2468  0.5047  0.1833
 4871TIP3   OH236171   3.008   0.466   0.117 -0.5644  0.0051 -0.0187
 4871TIP3    H136172   2.932   0.420   0.154  0.3664  0.2238  2.3170
 4871TIP3    H236173   2.986   0.559   0.125 -0.0985  0.0682  0.6222
 4872TIP3   OH236174   6.696   4.572   1.811 -0.6159 -0.1609  0.1929
 4872TIP3    H136175   6.626   4.594   1.872 -1.1490  0.0021 -0.4627
 4872TIP3    H236176   6.659   4.592   1.724  0.1950 -0.1930 -0.1665
 4873TIP3   OH236177   5.987   2.750   0.022  0.0888  0.0561 -0.3628
 4873TIP3    H136178   6.018   2.743  -0.069  0.9701 -0.2325 -0.0437
 4873TIP3    H236179   5.903   2.705   0.022 -1.2704  2.3510 -1.6500
 4874TIP3   OH236180   2.382   5.597   0.248  0.3288 -0.3309  0.2267
 4874TIP3    H136181   2.348   5.666   0.305  2.0087  0.2581  0.5461
 4874TIP3    H236182   2.330   5.520   0.271 -0.4533  0.4112  1.0418
 4875TIP3   OH236183   3.268   0.504   1.805  0.3402  0.2299  0.6404
 4875TIP3    H136184   3.300   0.493   1.895  1.3667 -1.0560  0.1464
 4875TIP3    H236185   3.187   0.453   1.802  0.6539 -0.2750  0.6639
 4876TIP3   OH236186   0.684   1.283   0.035 -0.0750  0.0930  0.6312
 4876TIP3    H136187   0.743   1.294  -0.040 -1.4203 -1.6971 -0.7866
 4876TIP3    H236188   0.611   1.342   0.016  0.2989  0.7938  1.3469
 4877TIP3   OH236189   2.052   5.422   0.918  0.5499  0.2419 -0.4075
 4877TIP3    H136190   1.981   5.370   0.955  0.3516  0.5097 -0.4088
 4877TIP3    H236191   2.037   5.421   0.824  0.3799  0.5351 -0.3868
 4878TIP3   OH236192   4.782   5.933   7.918 -0.8455 -0.2738  0.4723
 4878TIP3    H136193   4.788   5.924   7.822  1.0278  0.1931  0.4930
 4878TIP3    H236194   4.869   5.965   7.943 -1.5113  0.1797  2.2765
 4879TIP3   OH236195   2.144   3.562   0.403  0.0188  0.5933  0.2935
 4879TIP3    H136196   2.097   3.602   0.330 -1.7105 -0.0840  0.9927
 4879TIP3    H236197   2.191   3.489   0.363  1.6486  2.0913 -0.6492
 4880TIP3   OH236198   1.648   1.076   2.497 -0.4375 -0.4230 -0.3741
 4880TIP3    H136199   1.583   1.086   2.428 -1.1941  2.3163  0.6429
 4880TIP3    H236200   1.607   1.111   2.576  2.2305  1.5257  0.2976
 4881TIP3   OH236201   5.420   5.117   0.877  0.7548  0.2904 -0.1821
 4881TIP3    H136202   5.429   5.031   0.919  1.7181  0.1780 -0.5802
 4881TIP3    H236203   5.470   5.109   0.796 -0.2390  0.8220 -0.8602
 4882TIP3   OH236204   4.095   6.535   0.144  0.4207  0.1217 -0.6198
 4882TIP3    H136205   4.172   6.592   0.141 -0.3489  1.3225 -4.7889
 4882TIP3    H236206   4.130   6.446   0.138  1.4857  0.3588  1.1819
 4883TIP3   OH236207   4.411   0.112   1.876 -0.4065 -0.2296 -0.1920
 4883TIP3    H136208   4.350   0.062   1.822 -1.1271 -1.6607  1.8558
 4883TIP3    H236209   4.406   0.201   1.841 -2.2617 -0.7009 -1.2440
 4884TIP3   OH236210   5.361   4.990   8.221 -0.3702 -0.2748 -1.0891
 4884TIP3    H136211   5.447   5.009   8.259 -0.8392 -0.4744  0.1459
 4884TIP3    H236212   5.317   5.075   8.217 -0.5813 -0.3494 -0.4775
 4885TIP3   OH236213   5.574   3.520   0.312  0.7935  0.6739 -0.0561
 4885TIP3    H136214   5.488   3.521   0.354  0.4041 -0.1693 -0.7959
 4885TIP3    H236215   5.622   3.592   0.354 -0.4763  1.5630 -0.0669
 4886TIP3   OH236216   3.105   2.698   0.744  0.2945 -0.3828 -0.0293
 4886TIP3    H136217   3.151   2.621   0.778 -0.5264 -1.2384 -0.8110
 4886TIP3    H236218   3.036   2.663   0.688  0.2827  0.9365 -0.8988
 4887TIP3   OH236219   0.449   1.912   8.042 -0.5365 -0.2995 -0.3759
 4887TIP3    H136220   0.390   1.864   7.985 -0.2229 -0.3329 -0.6709
 4887TIP3    H236221   0.391   1.957   8.104 -0.9126  0.1782 -1.0562
 4888TIP3   OH236222   5.873   5.412   1.282  0.7048 -0.1620 -0.2719
 4888TIP3    H136223   5.905   5.464   1.209  0.1604 -0.4731 -0.7375
 4888TIP3    H236224   5.791   5.375   1.251  0.3083 -0.0418  0.6125
 4889TIP3   OH236225   6.133   5.949   1.629  0.2348 -0.0624  0.3494
 4889TIP3    H136226   6.142   5.963   1.535 -3.3026 -1.2934 -0.3276
 4889TIP3    H236227   6.113   6.035   1.665  0.8345  0.2828 -0.1384
 4890TIP3   OH236228   5.612   0.234   9.056 -0.4976 -0.3116  0.1244
 4890TIP3    H136229   5.597   0.142   9.079  0.7465 -0.0330  2.3682
 4890TIP3    H236230   5.705   0.239   9.038 -0.6630  0.4141 -0.5205
 4891TIP3   OH236231   2.864   2.579   2.529 -0.1187  0.1026  0.2202
 4891TIP3    H136232   2.952   2.579   2.567 -0.0907  0.8226  0.1773
 4891TIP3    H236233   2.805   2.571   2.604 -0.0130 -1.5957  0.1664
 4892TIP3   OH236234   4.724   4.306   8.513  0.1746  0.3386 -0.2639
 4892TIP3    H136235   4.719   4.399   8.490  1.9476  0.6850  0.6338
 4892TIP3    H236236   4.775   4.267   8.443 -1.2697 -0.1628 -1.0850
 4893TIP3   OH236237   3.206   2.638   6.625 -0.0609 -0.0240 -0.7424
 4893TIP3    H136238   3.200   2.733   6.625 -1.5504 -0.0813  0.3493
 4893TIP3    H236239   3.291   2.619   6.665 -0.9469  0.8599  1.7007
 4894TIP3   OH236240   4.759   1.544   7.961  0.0542 -0.1304  0.2038
 4894TIP3    H136241   4.756   1.470   7.899 -0.4401  0.4646 -0.4929
 4894TIP3    H236242   4.840   1.530   8.010 -0.0835 -1.1925  0.1515
 4895TIP3   OH236243   4.625   0.487   0.623 -0.0730 -0.0474 -0.9002
 4895TIP3    H136244   4.592   0.542   0.551  1.1893  1.7492 -0.1991
 4895TIP3    H236245   4.654   0.550   0.689  1.2285 -1.5979  0.0739
 4896TIP3   OH236246   6.344   4.717   7.203  0.3875  0.2010 -0.3716
 4896TIP3    H136247   6.268   4.660   7.193 -0.0393  0.5011  0.9545
 4896TIP3    H236248   6.383   4.721   7.115 -0.2075 -1.2159 -0.7256
 4897TIP3   OH236249   3.238   6.437   1.802 -0.5897 -0.3963  0.4079
 4897TIP3    H136250   3.287   6.360   1.772 -0.2402  0.4711 -1.3765
 4897TIP3    H236251   3.159   6.400   1.842  1.1668 -1.8059  2.8793
 4898TIP3   OH236252   2.103   2.534   8.155  0.2063  0.3826  0.2092
 4898TIP3    H136253   2.132   2.559   8.243 -0.2787 -3.9503  1.8422
 4898TIP3    H236254   2.184   2.526   8.105  0.6117  1.4187  0.6683
 4899TIP3   OH236255   4.405   2.723   0.503  0.1364  0.4676 -0.0337
 4899TIP3    H136256   4.491   2.731   0.461  0.7517 -1.1409  0.8343
 4899TIP3    H236257   4.387   2.811   0.536 -0.4992  1.9348 -3.7162
 4900TIP3   OH236258   6.326   4.897   0.858 -0.1945 -0.1585  0.3089
 4900TIP3    H136259   6.404   4.843   0.869  0.0492  0.1405  0.0430
 4900TIP3    H236260   6.297   4.916   0.947  0.1975 -0.0341  0.4099
 4901TIP3   OH236261   2.043   2.400   7.802  0.2133 -0.4898 -0.3657
 4901TIP3    H136262   2.112   2.351   7.846 -0.5283 -1.3314 -0.1136
 4901TIP3    H236263   2.059   2.383   7.709 -0.3866 -1.7324 -0.2652
 4902TIP3   OH236264   3.669   4.756   1.594  0.0999 -0.0913  0.8426
 4902TIP3    H136265   3.607   4.799   1.654  0.4667  2.2065 -0.3220
 4902TIP3    H236266   3.613   4.704   1.537 -0.8091  1.6687  0.0378
 4903TIP3   OH236267   0.939   6.360   7.594 -0.2598 -0.2714  0.7035
 4903TIP3    H136268   0.847   6.336   7.609 -0.0124 -0.7407  1.5547
 4903TIP3    H236269   0.979   6.280   7.560 -0.1802 -0.0435  0.2571
 4904TIP3   OH236270   3.698   2.145   8.896  0.4325 -0.4326  0.5684
 4904TIP3    H136271   3.743   2.202   8.834 -1.1036 -0.0602 -0.2588
 4904TIP3    H236272   3.765   2.083   8.925  2.4966  2.3399  2.3206
 4905TIP3   OH236273   3.519   6.298   8.429 -0.6833  0.2464  0.5543
 4905TIP3    H136274   3.535   6.343   8.346 -0.9002 -0.8271 -0.0803
 4905TIP3    H236275   3.472   6.363   8.482 -1.8252  0.4884 -0.6778
 4906TIP3   OH236276   5.401   1.312   1.447 -0.7243  0.2004  0.1686
 4906TIP3    H136277   5.435   1.251   1.513  2.0499  1.0450 -0.3286
 4906TIP3    H236278   5.341   1.369   1.496  0.7036  0.3529  1.8811
 4907TIP3   OH236279   4.426   4.565   8.739  0.0643  0.0791 -0.7698
 4907TIP3    H136280   4.375   4.633   8.782  1.0650  0.3658  0.0005
 4907TIP3    H236281   4.361   4.500   8.712 -0.7920  0.8326 -0.5913
 4908TIP3   OH236282   3.664   0.535   8.941 -0.4968  0.8134  0.4774
 4908TIP3    H136283   3.621   0.450   8.937  0.9930  0.0506  0.0135
 4908TIP3    H236284   3.709   0.535   9.025  0.5967  0.5763 -0.0949
 4909TIP3   OH236285   4.384   3.183   1.190  0.1360 -0.0065 -0.1577
 4909TIP3    H136286   4.304   3.139   1.163 -0.7048  1.5326 -0.2786
 4909TIP3    H236287   4.454   3.123   1.164 -0.9181 -0.9888 -0.8361
 4910TIP3   OH236288   0.348   0.835   8.850 -0.9575 -0.8457 -0.3512
 4910TIP3    H136289   0.316   0.839   8.941  0.5783  2.7250  0.1689
 4910TIP3    H236290   0.420   0.772   8.853  0.1191  0.3992  1.3122
 4911TIP3   OH236291   6.460   4.461   9.058 -0.2709 -0.0557  0.2038
 4911TIP3    H136292   6.467   4.375   9.100  0.7943  1.1612  2.7962
 4911TIP3    H236293   6.474   4.524   9.130  1.8840  2.2624 -2.0231
 4912TIP3   OH236294   2.704   0.760   0.640  0.2534  0.5583  0.6370
 4912TIP3    H136295   2.697   0.812   0.721 -0.2080 -0.3187  1.1752
 4912TIP3    H236296   2.702   0.669   0.670  2.0696  0.2024 -0.2120
 4913TIP3   OH236297   3.445   4.010   7.418  0.2976 -0.6454 -0.3200
 4913TIP3    H136298   3.465   3.928   7.373  3.5517 -0.9579  1.3926
 4913TIP3    H236299   3.440   3.986   7.510 -0.2043  0.8630  0.0697
 4914TIP3   OH236300   0.933   3.430   0.995 -0.0582 -0.1372  0.0013
 4914TIP3    H136301   1.003   3.372   0.963  0.1794 -0.0963  0.4399
 4914TIP3    H236302   0.852   3.383   0.974  0.0842 -0.0606 -0.7590
 4915TIP3   OH236303   4.804   0.352   2.101  0.4912 -0.2895 -0.1416
 4915TIP3    H136304   4.871   0.356   2.033 -0.4779 -1.2199 -1.1812
 4915TIP3    H236305   4.742   0.286   2.071  0.3600 -1.1943  1.9651
 4916TIP3   OH236306   1.684   0.238   0.431  0.1577  0.0450 -0.1737
 4916TIP3    H136307   1.670   0.313   0.489 -1.7655  0.6992 -1.3850
 4916TIP3    H236308   1.641   0.263   0.349 -1.3685 -2.6833 -0.3382
 4917TIP3   OH236309   5.063   2.861   0.776  0.2433  0.1327  0.3729
 4917TIP3    H136310   5.148   2.840   0.737 -0.0488 -0.3971  0.0102
 4917TIP3    H236311   5.030   2.935   0.724 -0.1777 -0.6167 -0.4532
 4918TIP3   OH236312   3.471   4.020   1.894 -0.3736 -0.5353 -0.1253
 4918TIP3    H136313   3.385   3.989   1.867 -1.4248  1.6328  0.5529
 4918TIP3    H236314   3.454   4.080   1.967  1.4296  1.8947 -1.5388
 4919TIP3   OH236315   6.220   0.652   2.370 -0.3377 -0.0690  0.3217
 4919TIP3    H136316   6.280   0.723   2.393 -1.4408  1.6878 -1.7989
 4919TIP3    H236317   6.270   0.596   2.311  0.0428 -0.1384  0.7064
 4920TIP3   OH236318   2.174   3.140   6.927 -0.1279 -0.2654  0.1766
 4920TIP3    H136319   2.189   3.048   6.946  0.1046 -0.3159 -0.2530
 4920TIP3    H236320   2.227   3.187   6.992  0.9412 -0.4371 -0.5559
 4921TIP3   OH236321   0.491   1.719   8.543 -0.0614  0.0930  0.4155
 4921TIP3    H136322   0.409   1.757   8.574 -0.5238  1.5823 -2.3440
 4921TIP3    H236323   0.547   1.794   8.523  1.7805 -0.8790  1.5964
 4922TIP3   OH236324   4.902   3.771   1.947 -0.2550  0.3553 -0.0938
 4922TIP3    H136325   4.843   3.750   1.874 -0.9114 -0.1563  0.5785
 4922TIP3    H236326   4.857   3.739   2.025  1.4565 -1.1289  0.3300
 4923TIP3   OH236327   4.295   0.048   1.603 -0.1408  0.3255  0.1152
 4923TIP3    H136328   4.214  -0.003   1.610 -0.7583  1.0313 -1.4000
 4923TIP3    H236329   4.362  -0.017   1.580 -0.6108 -0.0224 -0.2884
 4924TIP3   OH236330   2.044   5.488   8.317 -0.8491  0.1437  0.6010
 4924TIP3    H136331   2.027   5.398   8.344 -1.1324  0.6362  2.1439
 4924TIP3    H236332   2.137   5.501   8.334 -0.6348 -0.0765 -0.3427
 4925TIP3   OH236333   1.309   2.077   1.839 -0.6816 -0.2072 -0.0173
 4925TIP3    H136334   1.234   2.112   1.791 -0.9260 -0.9778 -0.2036
 4925TIP3    H236335   1.311   2.128   1.921  0.1286  1.5629 -1.0747
 4926TIP3   OH236336   5.501   0.317   0.444  0.3001  0.1557  0.5011
 4926TIP3    H136337   5.539   0.367   0.516  1.7728 -0.1937  0.0119
 4926TIP3    H236338   5.573   0.308   0.381 -0.2069 -1.6645  0.1167
 4927TIP3   OH236339   6.036   4.527   8.317 -0.1917  0.6827  0.1647
 4927TIP3    H136340   6.066   4.609   8.356 -0.9895  0.6996  0.7536
 4927TIP3    H236341   5.941   4.530   8.324 -0.2052 -0.6003  0.8345
 4928TIP3   OH236342   2.185   2.502   1.394 -0.1635 -0.6161 -0.4732
 4928TIP3    H136343   2.271   2.528   1.427  0.6599 -1.5971 -1.7430
 4928TIP3    H236344   2.127   2.576   1.416  1.0447  0.1697  0.1722
 4929TIP3   OH236345   6.497   3.950   1.799 -0.2119  0.2587  0.3135
 4929TIP3    H136346   6.507   3.899   1.879 -0.3213 -1.0043 -0.4515
 4929TIP3    H236347   6.409   3.987   1.804 -0.4672 -0.3717  0.4606
 4930TIP3   OH236348   0.173   5.649   1.294  0.3035 -0.3993 -0.6887
 4930TIP3    H136349   0.169   5.729   1.346  0.2895  1.0982 -2.8352
 4930TIP3    H236350   0.265   5.639   1.271 -0.0267  0.6217 -2.6776
 4931TIP3   OH236351   0.584   0.703   8.877 -0.5343  0.4183  0.1809
 4931TIP3    H136352   0.629   0.780   8.841 -0.6439  0.5929  0.4140
 4931TIP3    H236353   0.610   0.631   8.820  0.8568  0.3250  0.9021
 4932TIP3   OH236354   1.614   0.210   2.762 -0.6670  0.1970 -0.7355
 4932TIP3    H136355   1.558   0.237   2.835  0.7793  0.0624  0.4829
 4932TIP3    H236356   1.649   0.293   2.728  0.6535  0.1712  0.4330
 4933TIP3   OH236357   4.858   5.337   1.335 -0.0428 -0.3031  0.1189
 4933TIP3    H136358   4.848   5.431   1.355 -1.3238 -0.3092 -0.3903
 4933TIP3    H236359   4.798   5.322   1.262  2.0467 -1.0023 -1.5426
 4934TIP3   OH236360   3.245   5.214   7.172 -0.3924  0.2777 -0.5616
 4934TIP3    H136361   3.153   5.210   7.196 -0.2512  0.5567  0.0343
 4934TIP3    H236362   3.289   5.249   7.249  0.2053  0.2111 -0.8636
 4935TIP3   OH236363   2.396   3.920   0.215 -0.2057  0.0534  0.4004
 4935TIP3    H136364   2.373   3.878   0.298 -1.3282 -1.8026 -0.7776
 4935TIP3    H236365   2.323   3.979   0.196  0.0018  0.3993  0.6627
 4936TIP3   OH236366   0.685   6.202   8.378  0.1138 -0.7283  0.1537
 4936TIP3    H136367   0.596   6.230   8.397 -0.2633 -1.9262  0.2088
 4936TIP3    H236368   0.740   6.272   8.414 -0.6671 -1.4574  3.0597
 4937TIP3   OH236369   3.750   0.289   7.389 -0.4487 -0.8656  0.1391
 4937TIP3    H136370   3.795   0.205   7.376 -2.3697 -2.1081  0.9653
 4937TIP3    H236371   3.659   0.264   7.405 -0.9722  1.3758  0.9782
 4938TIP3   OH236372   0.910   4.161   1.796  0.0897 -0.0979 -0.1022
 4938TIP3    H136373   0.952   4.162   1.883  0.3618  1.8588 -0.2099
 4938TIP3    H236374   0.977   4.124   1.738 -0.5217 -2.5914  0.6506
 4939TIP3   OH236375   1.876   4.882   8.969 -0.0017  0.0005 -0.2851
 4939TIP3    H136376   1.839   4.855   8.885 -0.5297 -1.5135  0.4005
 4939TIP3    H236377   1.803   4.920   9.016  0.0647 -0.0511 -0.1399
 4940TIP3   OH236378   0.677   3.872   0.328  0.9249  0.0631 -0.1239
 4940TIP3    H136379   0.616   3.801   0.348  1.8047 -0.3585  1.2379
 4940TIP3    H236380   0.626   3.934   0.276 -0.6171 -0.3375  0.8527
 4941TIP3   OH236381   4.034   5.100   1.828  0.2457  0.5139 -0.1120
 4941TIP3    H136382   4.037   5.018   1.779 -0.3558 -0.0404  0.7615
 4941TIP3    H236383   3.982   5.159   1.774  0.4364  0.2365 -0.6048
 4942TIP3   OH236384   4.658   1.769   9.065  0.2822 -0.3788 -0.2606
 4942TIP3    H136385   4.694   1.765   8.976  0.0505  1.1529 -0.4509
 4942TIP3    H236386   4.651   1.863   9.083 -0.5982 -0.6734  1.0028
 4943TIP3   OH236387   0.906   2.517   8.561  0.1839 -0.3821  0.0668
 4943TIP3    H136388   0.882   2.487   8.474  0.8054 -1.0488  0.1113
 4943TIP3    H236389   1.002   2.511   8.563  0.0948 -1.9212  1.3265
 4944TIP3   OH236390   0.423   2.176   7.727  0.5380 -0.3676 -0.0127
 4944TIP3    H136391   0.451   2.144   7.812  1.3752 -1.1170 -0.5606
 4944TIP3    H236392   0.352   2.238   7.747 -0.1623 -1.4990  1.1501
 4945TIP3   OH236393   6.051   3.275   2.967  0.5134 -0.3796  0.0974
 4945TIP3    H136394   5.967   3.302   3.004 -0.1780 -2.2822  0.0296
 4945TIP3    H236395   6.029   3.247   2.878  1.7456  1.8673 -0.9882
 4946TIP3   OH236396   6.473   1.292   1.476  1.1879 -0.0257  0.1518
 4946TIP3    H136397   6.495   1.357   1.543  2.0285 -0.9985  0.8475
 4946TIP3    H236398   6.554   1.280   1.428  0.0156  2.5569 -2.8329
 4947TIP3   OH236399   1.650   6.472   1.286  0.4424  0.1252 -0.0872
 4947TIP3    H136400   1.673   6.454   1.378  1.2087  1.1677 -0.0566
 4947TIP3    H236401   1.669   6.565   1.274 -1.3511  0.4411 -0.8243
 4948TIP3   OH236402   3.368   1.454   7.447  0.3010  0.3395 -0.0615
 4948TIP3    H136403   3.438   1.389   7.450  1.7401  1.8427  0.4347
 4948TIP3    H236404   3.288   1.403   7.449  1.3760 -1.3997  0.9076
 4949TIP3   OH236405   6.538   5.571   0.008 -0.3589 -0.2549 -0.4534
 4949TIP3    H136406   6.586   5.514   0.069 -0.8845 -1.0097 -0.7294
 4949TIP3    H236407   6.591   5.570  -0.071  1.0238  1.7753  0.3558
 4950TIP3   OH236408   5.313   3.803   7.333  0.5138  0.9166 -0.5273
 4950TIP3    H136409   5.231   3.768   7.367  1.3389 -0.3136  0.2987
 4950TIP3    H236410   5.292   3.834   7.245 -1.0552  1.5847  0.0627
 4951TIP3   OH236411   4.067   2.212   1.171 -0.2091  0.2213  0.3228
 4951TIP3    H136412   4.092   2.189   1.081 -0.3777  1.4278 -0.0451
 4951TIP3    H236413   4.084   2.132   1.221 -0.1675 -0.4954 -0.7869
 4952TIP3   OH236414   3.596   6.454   2.316  0.3308  0.1503 -0.4541
 4952TIP3    H136415   3.651   6.404   2.255 -0.6355  1.0809 -2.1589
 4952TIP3    H236416   3.562   6.388   2.376  2.7455 -0.5477  0.2734
 4953TIP3   OH236417   2.676   2.528   0.938 -0.5011 -0.0124  0.2802
 4953TIP3    H136418   2.600   2.527   0.880  1.7147 -2.2439 -2.9098
 4953TIP3    H236419   2.732   2.598   0.904 -0.7329  1.1959  2.2064
 4954TIP3   OH236420   4.544   6.029   0.604  0.2718  0.0216 -0.3316
 4954TIP3    H136421   4.574   5.982   0.526 -0.7902  0.6869 -1.1661
 4954TIP3    H236422   4.571   6.120   0.588 -1.5755  0.5208 -0.8210
 4955TIP3   OH236423   0.742   5.525   8.102  0.2826 -0.5115  0.2091
 4955TIP3    H136424   0.724   5.545   8.010  0.5863 -0.3391  0.1858
 4955TIP3    H236425   0.789   5.601   8.134 -0.9046 -0.0310  0.8542
 4956TIP3   OH236426   3.500   1.255   1.113 -0.1484  0.2189 -0.1140
 4956TIP3    H136427   3.448   1.261   1.193 -3.8048 -1.3971 -2.1067
 4956TIP3    H236428   3.538   1.168   1.115  1.5152  0.9043  0.6819
 4957TIP3   OH236429   4.874   3.367   8.575 -0.3198 -0.2964  0.0028
 4957TIP3    H136430   4.822   3.411   8.507  1.6574  1.0623 -0.7206
 4957TIP3    H236431   4.899   3.437   8.635  0.2007 -1.0179  0.6505
 4958TIP3   OH236432   4.282   3.885   8.160  0.2225 -0.2164 -0.2989
 4958TIP3    H136433   4.291   3.856   8.250  0.7783 -0.8986 -0.5631
 4958TIP3    H236434   4.189   3.906   8.151 -0.4122 -2.6628 -0.2770
 4959TIP3   OH236435   4.062   3.434   1.368  0.4369  0.3957  0.0013
 4959TIP3    H136436   4.118   3.510   1.383  1.6292 -0.4720  0.1234
 4959TIP3    H236437   4.087   3.372   1.436  1.6860 -1.2881 -1.8913
 4960TIP3   OH236438   5.672   4.574   1.234 -1.0051  0.1756 -0.2030
 4960TIP3    H136439   5.755   4.614   1.259 -0.7272 -0.7502  0.4057
 4960TIP3    H236440   5.677   4.566   1.139  0.2877 -1.3003 -0.0480
 4961TIP3   OH236441   4.120   6.082   7.699  0.1559 -0.1860  0.3317
 4961TIP3    H136442   4.175   6.044   7.630 -1.1451 -1.1363 -0.2253
 4961TIP3    H236443   4.082   6.160   7.658  1.1748  0.5767  0.7769
 4962TIP3   OH236444   3.216   4.496   7.997  0.0450 -0.4570  0.2823
 4962TIP3    H136445   3.250   4.449   7.920 -2.7335 -0.9064 -0.7935
 4962TIP3    H236446   3.248   4.445   8.071  0.4174 -1.7289 -0.7002
 4963TIP3   OH236447   6.626   1.618   9.073  0.0856 -0.8157  0.3458
 4963TIP3    H136448   6.622   1.534   9.028 -0.8287 -1.1575  1.0341
 4963TIP3    H236449   6.536   1.651   9.070  0.6261  0.6590 -0.8654
 4964TIP3   OH236450   4.256   1.390   8.032 -0.3506  0.1694 -0.0556
 4964TIP3    H136451   4.349   1.396   8.009 -0.7301  2.1899 -1.2457
 4964TIP3    H236452   4.253   1.424   8.122  0.1073 -0.3440  0.1633
 4965TIP3   OH236453   1.867   6.323   9.058  0.4407 -0.0006  0.5598
 4965TIP3    H136454   1.796   6.315   8.994 -0.4561 -0.9411  1.6265
 4965TIP3    H236455   1.944   6.287   9.013 -0.3678 -1.4563  0.2747
 4966TIP3   OH236456   2.311   5.845   7.458 -0.1693  0.0288 -0.1944
 4966TIP3    H136457   2.401   5.817   7.442 -0.1161 -0.7804  1.3219
 4966TIP3    H236458   2.315   5.941   7.459  1.2661  0.0479  2.5229
 4967TIP3   OH236459   5.425   5.869   8.245  0.5810 -0.5359  0.8389
 4967TIP3    H136460   5.426   5.931   8.172  1.1229 -0.9402  0.4881
 4967TIP3    H236461   5.334   5.842   8.253  0.5825 -0.8285  0.0051
 4968TIP3   OH236462   6.497   4.691   1.155 -0.3540 -0.4038  0.2294
 4968TIP3    H136463   6.410   4.692   1.196 -0.2108  0.7681  0.5555
 4968TIP3    H236464   6.515   4.783   1.136  1.2912 -0.4970  1.1740
 4969TIP3   OH236465   3.957   0.057   0.278 -0.5474 -0.3349 -0.0838
 4969TIP3    H136466   3.990  -0.027   0.246  0.3886 -0.2258  0.5294
 4969TIP3    H236467   3.980   0.120   0.209 -0.7696 -0.5014 -0.3072
 4970TIP3   OH236468   1.503   1.422   7.929  0.0627  0.1622  0.5731
 4970TIP3    H136469   1.560   1.345   7.924 -0.0590  0.1024  0.0035
 4970TIP3    H236470   1.542   1.484   7.868  1.2053  1.2710  2.3490
 4971TIP3   OH236471   4.487   2.820   8.651 -0.1639  1.2944 -0.6853
 4971TIP3    H136472   4.512   2.855   8.736  0.2617 -2.0718  0.7399
 4971TIP3    H236473   4.395   2.844   8.640 -1.7559 -2.0322  3.0807
 4972TIP3   OH236474   1.298   0.437   7.833  0.4360  0.0312  0.8985
 4972TIP3    H136475   1.382   0.465   7.797  0.1589  3.2688  2.3477
 4972TIP3    H236476   1.321   0.393   7.915  0.7885  2.1381  2.0042
 4973TIP3   OH236477   2.404   3.327   8.002 -0.0171  0.1296 -0.1280
 4973TIP3    H136478   2.450   3.243   8.003  0.6159  0.4547 -0.9971
 4973TIP3    H236479   2.320   3.309   8.045  0.4924 -0.7175  0.5278
 4974TIP3   OH236480   2.003   2.261   8.263  0.3187 -0.1269  0.2535
 4974TIP3    H136481   2.009   2.356   8.256 -2.8560  0.1731  0.4093
 4974TIP3    H236482   2.076   2.228   8.210  0.0487  2.3752 -1.8317
 4975TIP3   OH236483   4.096   1.286   0.729  0.6966 -0.3066 -0.2177
 4975TIP3    H136484   4.080   1.274   0.635 -0.2816  1.0484 -0.2559
 4975TIP3    H236485   4.173   1.342   0.733  0.7426 -0.3703 -0.2240
 4976TIP3   OH236486   6.573   4.869   0.052  0.1239 -0.4582  0.1532
 4976TIP3    H136487   6.588   4.926   0.127 -1.1956  0.7731 -0.4719
 4976TIP3    H236488   6.559   4.783   0.089  0.8770 -0.1432  1.2147
 4977TIP3   OH236489   1.588   5.291   1.671 -0.7644 -0.1244  0.7539
 4977TIP3    H136490   1.581   5.274   1.764 -0.7160  0.7445  0.9286
 4977TIP3    H236491   1.631   5.377   1.665  1.3457 -1.1530 -0.1019
 4978TIP3   OH236492   2.920   4.826   8.637 -0.1172 -0.6435  0.6387
 4978TIP3    H136493   2.967   4.816   8.555 -1.4213  2.1758 -0.5997
 4978TIP3    H236494   2.862   4.750   8.642 -0.8132 -0.3238 -1.6579
 4979TIP3   OH236495   2.498   5.129   2.005  0.4333 -0.4517  0.6890
 4979TIP3    H136496   2.531   5.089   1.924 -0.0038 -0.4276  0.4931
 4979TIP3    H236497   2.403   5.136   1.991  0.3654 -0.3642  1.1684
 4980TIP3   OH236498   1.930   3.007   8.920 -0.4809 -0.0875  0.0618
 4980TIP3    H136499   1.866   3.070   8.888 -1.2044  0.0924  1.7752
 4980TIP3    H236500   2.004   3.014   8.859 -1.5837  0.5731 -1.2341
 4981TIP3   OH236501   5.884   4.123   1.349  0.5422  0.3362 -0.3067
 4981TIP3    H136502   5.861   4.215   1.364  0.5581  0.0177  2.1195
 4981TIP3    H236503   5.801   4.076   1.360  0.8487 -0.0742  0.3676
 4982TIP3   OH236504   1.713   1.127   1.627  0.2883  0.4827 -0.2447
 4982TIP3    H136505   1.776   1.155   1.694  0.2112  0.0875 -0.0045
 4982TIP3    H236506   1.763   1.128   1.545  0.5983  0.1950 -0.0587
 4983TIP3   OH236507   3.435   5.562   0.346  0.4362  0.1538  0.2084
 4983TIP3    H136508   3.430   5.481   0.396  1.3752  0.7008  1.2476
 4983TIP3    H236509   3.421   5.631   0.411 -0.8487  0.8341 -0.7348
 4984TIP3   OH236510   5.866   6.720   7.924 -0.3195  0.6544 -0.2262
 4984TIP3    H136511   5.824   6.783   7.865  0.3152  0.0651 -1.3490
 4984TIP3    H236512   5.876   6.641   7.871  0.7438  0.2716  0.5028
 4985TIP3   OH236513   2.000   5.964   8.028  0.1576  0.0701  0.1185
 4985TIP3    H136514   1.919   5.916   8.017  1.2603 -1.6672 -0.9220
 4985TIP3    H236515   2.044   5.957   7.943  1.1463  1.4573  0.4787
 4986TIP3   OH236516   6.067   2.035   0.179  0.0671 -0.4889  0.1346
 4986TIP3    H136517   5.972   2.032   0.170  0.0083 -1.3996  0.8549
 4986TIP3    H236518   6.091   1.946   0.206  0.9800  0.0526  1.1794
 4987TIP3   OH236519   4.277   6.371   0.416 -0.8356  0.9807 -0.0610
 4987TIP3    H136520   4.288   6.432   0.489  0.7671  2.4458 -1.4377
 4987TIP3    H236521   4.347   6.394   0.354 -1.2758 -1.1065 -1.4541
 4988TIP3   OH236522   1.553   2.616   0.310 -0.4754 -0.3050  0.4306
 4988TIP3    H136523   1.470   2.630   0.263 -0.4110 -1.1549  0.0483
 4988TIP3    H236524   1.576   2.525   0.291  0.5110 -0.1005  0.6040
 4989TIP3   OH236525   2.198   5.466   8.982  0.3262 -0.0821 -0.0661
 4989TIP3    H136526   2.261   5.528   9.018 -1.0341  1.7007 -0.5929
 4989TIP3    H236527   2.157   5.513   8.910 -2.7381 -0.4874  1.2410
 4990TIP3   OH236528   4.916   5.728   0.187 -0.6569  0.0998 -0.2555
 4990TIP3    H136529   4.846   5.761   0.243 -0.2664 -1.2577  1.0873
 4990TIP3    H236530   4.924   5.636   0.209  1.3108  0.1278 -0.6188
 4991TIP3   OH236531   4.789   0.463   1.645 -0.1473 -0.8611 -0.5828
 4991TIP3    H136532   4.827   0.549   1.665  1.1209 -1.7773  1.1879
 4991TIP3    H236533   4.703   0.483   1.607  0.5137  1.1897 -1.1455
 4992TIP3   OH236534   3.161   2.842   1.314 -0.1450 -0.6591 -0.6523
 4992TIP3    H136535   3.185   2.930   1.285  0.2922 -0.7809 -0.6776
 4992TIP3    H236536   3.245   2.801   1.336 -0.5245 -0.0848  2.2145
 4993TIP3   OH236537   6.662   0.993   8.386  0.2270 -0.5076  0.3352
 4993TIP3    H136538   6.704   1.024   8.306  1.6011 -0.4273  1.0568
 4993TIP3    H236539   6.628   1.072   8.427  0.3769 -0.4270  0.3046
 4994TIP3   OH236540   6.052   1.180   1.855  0.3178 -0.3447 -0.0281
 4994TIP3    H136541   6.106   1.103   1.869  1.0409 -0.3204 -2.3521
 4994TIP3    H236542   5.962   1.147   1.852  0.4900 -0.8644  0.3964
 4995TIP3   OH236543   0.539   6.460   0.716  0.6996 -0.2543  0.5538
 4995TIP3    H136544   0.564   6.486   0.804 -0.0300  1.5112  0.3019
 4995TIP3    H236545   0.547   6.541   0.665  1.0198 -1.2155 -0.9794
 4996TIP3   OH236546   1.951   3.275   0.123 -0.4423  0.0290  0.3363
 4996TIP3    H136547   1.871   3.275   0.070 -0.8101 -1.4418  0.8425
 4996TIP3    H236548   2.022   3.264   0.059 -0.6487  1.0319 -0.0856
 4997TIP3   OH236549   1.935   5.966   1.040  0.0528 -0.4783  0.1266
 4997TIP3    H136550   1.879   5.936   1.112 -2.3417  0.0498 -1.3789
 4997TIP3    H236551   1.966   5.886   0.999 -2.4143 -0.9517 -1.0021
 4998TIP3   OH236552   2.385   3.333   8.322  0.1552 -0.1456  0.2977
 4998TIP3    H136553   2.464   3.280   8.327  0.4218  0.3344  1.2919
 4998TIP3    H236554   2.314   3.272   8.345  0.2786 -0.4522 -0.1115
 4999TIP3   OH236555   3.642   5.686   3.022 -0.2218  0.3623  0.2596
 4999TIP3    H136556   3.606   5.702   3.109 -0.6711  0.6699  0.0253
 4999TIP3    H236557   3.576   5.721   2.962 -1.8359 -3.3777 -0.3700
 5000TIP3   OH236558   0.807   3.857   8.765 -0.2485  0.5445 -0.1102
 5000TIP3    H136559   0.855   3.867   8.682  1.1576  0.7455  0.6876
 5000TIP3    H236560   0.853   3.916   8.826  0.7496 -1.8567  1.6231
 5001TIP3   OH236561   3.044   5.302   7.898  0.1985 -0.6659 -0.0978
 5001TIP3    H136562   3.114   5.365   7.916 -0.9695  0.7673 -0.3413
 5001TIP3    H236563   2.998   5.339   7.822  0.9002 -3.0748 -1.8153
 5002TIP3   OH236564   1.517   6.359   7.337  0.4155  0.7943 -0.3057
 5002TIP3    H136565   1.476   6.394   7.258 -0.6421  1.4676  0.5221
 5002TIP3    H236566   1.469   6.400   7.409  0.7804 -0.4875  0.6909
 5003TIP3   OH236567   0.797   3.402   2.441 -0.1032 -0.8713  0.1307
 5003TIP3    H136568   0.798   3.472   2.507 -0.0291 -1.6671  1.0028
 5003TIP3    H236569   0.776   3.323   2.491  0.0375 -1.5104 -0.7994
 5004TIP3   OH236570   1.929   0.167   2.138  0.1684  0.3784  0.7277
 5004TIP3    H136571   1.898   0.182   2.048  1.7749 -0.0607  0.0724
 5004TIP3    H236572   1.982   0.245   2.158 -0.6100  0.7258  1.5162
 5005TIP3   OH236573   5.943   0.341   7.377 -0.2339 -0.0840 -0.0733
 5005TIP3    H136574   5.883   0.356   7.450  0.0488 -1.7056  0.5347
 5005TIP3    H236575   5.950   0.426   7.334 -1.2662  0.6471  1.1291
 5006TIP3   OH236576   2.442   0.054   0.249 -0.0131  0.3494  0.4342
 5006TIP3    H136577   2.375   0.116   0.222  0.3618  0.7823  0.4939
 5006TIP3    H236578   2.428  -0.022   0.193 -1.0750  0.0997  1.0025
 5007TIP3   OH236579   4.128   6.378   1.587 -0.3957 -0.3403  0.1175
 5007TIP3    H136580   4.123   6.403   1.679 -2.3758  1.4129 -0.4143
 5007TIP3    H236581   4.222   6.379   1.568 -0.0255  0.5689  1.7633
 5008TIP3   OH236582   1.544   6.088   0.990  0.1828 -0.5260 -0.5734
 5008TIP3    H136583   1.473   6.055   1.045  0.9643 -0.5469  0.4438
 5008TIP3    H236584   1.572   6.169   1.032 -0.2865  0.3240 -1.8634
 5009TIP3   OH236585   4.674   5.600   1.734 -0.7157  0.1870 -0.1082
 5009TIP3    H136586   4.744   5.645   1.782  0.2501 -1.2852 -0.0673
 5009TIP3    H236587   4.701   5.508   1.733 -2.9624 -0.5335  0.4164
 5010TIP3   OH236588   2.433   0.237   8.503 -0.3464 -0.5597  0.1595
 5010TIP3    H136589   2.465   0.154   8.469  2.5593  1.0193 -1.3184
 5010TIP3    H236590   2.380   0.274   8.432  1.8047  0.6106 -0.9314
 5011TIP3   OH236591   4.922   0.037   0.223 -0.0375  0.4756 -1.0766
 5011TIP3    H136592   4.912   0.120   0.176  1.4048  0.8778 -0.7371
 5011TIP3    H236593   4.937  -0.028   0.155  0.0261  0.7056 -1.2840
 5012TIP3   OH236594   5.543   0.927   8.037  0.2584 -0.6449  0.0708
 5012TIP3    H136595   5.502   0.916   7.951  0.0410 -0.6823  0.1782
 5012TIP3    H236596   5.471   0.916   8.099 -0.0133  1.4216  0.2003
 5013TIP3   OH236597   1.681   0.488   2.681  0.5368 -0.1055 -0.2865
 5013TIP3    H136598   1.695   0.541   2.602  1.0210 -0.8981 -0.7494
 5013TIP3    H236599   1.662   0.552   2.749  1.3473  0.6916 -0.7754
 5014TIP3   OH236600   6.401   6.461   1.450 -0.1195 -0.6157  0.0492
 5014TIP3    H136601   6.470   6.524   1.430 -0.0539 -0.1429  1.6758
 5014TIP3    H236602   6.361   6.442   1.365  0.2513  1.1587 -0.5571
 5015TIP3   OH236603   1.991   3.677   8.348  0.3434 -0.2982 -0.0453
 5015TIP3    H136604   1.962   3.710   8.263 -0.6617 -1.4049 -0.1506
 5015TIP3    H236605   1.913   3.637   8.386  1.4693 -2.5476  0.0690
 5016TIP3   OH236606   1.740   6.120   1.428 -0.0500  0.4457  0.2806
 5016TIP3    H136607   1.645   6.123   1.444 -0.2112 -0.8824 -0.3413
 5016TIP3    H236608   1.778   6.152   1.510 -0.9969 -0.9785  1.3373
 5017TIP3   OH236609   5.214   2.453   1.249  0.0058 -0.0417  0.0999
 5017TIP3    H136610   5.154   2.492   1.185  3.0534  3.1908 -1.1355
 5017TIP3    H236611   5.173   2.470   1.333 -2.8834 -2.1059 -0.7481
 5018TIP3   OH236612   5.588   6.253   8.614 -0.2083  0.2651  0.1924
 5018TIP3    H136613   5.563   6.177   8.666 -0.0723  0.1113  0.0350
 5018TIP3    H236614   5.590   6.220   8.524 -0.3928  0.5165  0.0979
 5019TIP3   OH236615   4.765   0.584   2.272 -0.1379  0.0695  0.2969
 5019TIP3    H136616   4.815   0.654   2.229  1.4093 -0.6774  0.8102
 5019TIP3    H236617   4.787   0.505   2.222  1.4539 -0.7654  2.1808
 5020TIP3   OH236618   6.014   0.647   0.899 -0.1260 -0.1670  0.6801
 5020TIP3    H136619   6.071   0.650   0.975  1.3485  0.3819 -0.4055
 5020TIP3    H236620   5.992   0.554   0.889  0.3693 -0.3531  1.2695
 5021TIP3   OH236621   1.471   0.974   7.878  0.0256 -0.1465 -0.6117
 5021TIP3    H136622   1.431   1.059   7.900  1.0944  0.2247 -0.0513
 5021TIP3    H236623   1.407   0.909   7.909  0.3584  0.4071  1.3885
 5022TIP3   OH236624   3.830   0.164   0.499  0.0910 -0.0038 -0.9131
 5022TIP3    H136625   3.740   0.131   0.506  0.7534 -1.6475  0.6557
 5022TIP3    H236626   3.872   0.105   0.436  0.3884  0.0346 -0.7506
 5023TIP3   OH236627   4.551   3.830   1.163  0.0875 -0.2455 -0.3368
 5023TIP3    H136628   4.629   3.840   1.218  0.6707 -1.0356 -0.9781
 5023TIP3    H236629   4.478   3.830   1.224  0.4834  1.5742  0.1948
 5024TIP3   OH236630   0.444   2.629   7.398 -0.4761  0.1500 -0.1389
 5024TIP3    H136631   0.410   2.540   7.409  0.8956 -0.2052  1.6581
 5024TIP3    H236632   0.534   2.618   7.369 -0.5787  0.9823 -0.8219
 5025TIP3   OH236633   0.713   0.970   0.592  0.1164  0.1804 -0.3876
 5025TIP3    H136634   0.624   0.937   0.608 -0.5883  2.4748  0.7872
 5025TIP3    H236635   0.712   0.997   0.501  0.5116 -2.2470 -1.1941
 5026TIP3   OH236636   3.200   4.004   8.270  0.9174 -0.1077  0.1758
 5026TIP3    H136637   3.110   3.997   8.304  0.6075  0.6124 -0.4618
 5026TIP3    H236638   3.200   4.086   8.222  1.6751 -0.5489 -0.5902
 5027TIP3   OH236639   2.216   6.281   8.466  0.0415 -0.1907 -0.2431
 5027TIP3    H136640   2.218   6.365   8.419  0.2530  0.0404  0.1714
 5027TIP3    H236641   2.123   6.262   8.476 -0.0238 -0.7017 -1.5449
 5028TIP3   OH236642   4.882   4.115   0.256 -0.2834  0.3303 -0.0722
 5028TIP3    H136643   4.802   4.128   0.306  0.3351 -0.1816  1.0810
 5028TIP3    H236644   4.851   4.099   0.166 -1.5137 -0.5186  0.4689
 5029TIP3   OH236645   4.360   4.914   0.913  0.1698  0.1016  0.0631
 5029TIP3    H136646   4.433   4.866   0.951 -0.0261 -2.2975 -2.2407
 5029TIP3    H236647   4.287   4.851   0.913 -1.0600  1.4719 -0.2324
 5030TIP3   OH236648   3.752   3.408   0.167  0.7234 -0.5821  0.0549
 5030TIP3    H136649   3.756   3.485   0.111  2.6395 -1.0500 -0.5252
 5030TIP3    H236650   3.730   3.336   0.108  2.6467 -1.0590 -0.1611
 5031TIP3   OH236651   0.521   2.487   0.170  0.1385 -0.3450 -0.4059
 5031TIP3    H136652   0.445   2.539   0.141  1.9032  1.2070 -2.6267
 5031TIP3    H236653   0.573   2.548   0.223 -0.3491 -1.5652  1.5901
 5032TIP3   OH236654   3.576   4.928   0.094  0.1486  0.8395 -0.0636
 5032TIP3    H136655   3.550   4.936   0.186 -1.5846  2.4137 -0.6197
 5032TIP3    H236656   3.667   4.956   0.092  0.8432 -1.1433  1.4360
 5033TIP3   OH236657   0.219   4.914   0.639 -0.2978  0.3792 -0.2099
 5033TIP3    H136658   0.292   4.919   0.700 -2.1366  2.6804  2.0495
 5033TIP3    H236659   0.257   4.881   0.557  3.1531  1.2054  0.9077
 5034TIP3   OH236660   2.896   5.526   2.929 -0.1208 -0.4842 -0.1663
 5034TIP3    H136661   2.899   5.432   2.911 -0.2693 -0.3918 -0.6915
 5034TIP3    H236662   2.803   5.547   2.933 -0.0899 -0.4538  0.4841
 5035TIP3   OH236663   5.131   5.526   7.893  0.7985  0.3812 -0.5062
 5035TIP3    H136664   5.100   5.616   7.885  0.4935  0.3376  0.1545
 5035TIP3    H236665   5.129   5.492   7.803 -1.5570  0.2257 -0.4513
 5036TIP3   OH236666   6.206   0.899   0.518 -0.1084 -0.3746 -0.9093
 5036TIP3    H136667   6.137   0.838   0.544  0.5645 -0.9555 -0.4723
 5036TIP3    H236668   6.268   0.845   0.469  0.0100  0.1601 -1.3582
 5037TIP3   OH236669   6.690   2.043   6.901 -0.0906 -0.0592 -0.1693
 5037TIP3    H136670   6.744   1.990   6.841 -0.0620 -0.4156  0.1693
 5037TIP3    H236671   6.684   2.128   6.858  0.5837 -0.0734 -0.3123
 5038TIP3   OH236672   4.471   5.868   0.400  0.0646 -0.3563 -0.3530
 5038TIP3    H136673   4.436   5.810   0.468  2.0419 -0.4423  0.6875
 5038TIP3    H236674   4.417   5.851   0.323 -0.7500 -2.0212  0.5286
 5039TIP3   OH236675   5.732   1.646   1.651 -0.5773 -0.3498  0.2159
 5039TIP3    H136676   5.694   1.724   1.691  0.4839  0.7254 -0.7869
 5039TIP3    H236677   5.675   1.627   1.576 -1.7740 -1.5496  1.3767
 5040TIP3   OH236678   2.162   3.085   2.236  0.2720  0.4440  0.0490
 5040TIP3    H136679   2.241   3.130   2.267  0.9132  1.2768 -2.5617
 5040TIP3    H236680   2.096   3.154   2.229  0.0664  0.2209 -0.2214
 5041TIP3   OH236681   3.725   5.257   0.216  0.0777 -0.0715 -0.1680
 5041TIP3    H136682   3.664   5.208   0.271 -1.8824 -0.6794 -2.7425
 5041TIP3    H236683   3.768   5.190   0.163  1.3393  0.5811 -0.0071
 5042TIP3   OH236684   5.980   4.409   1.103 -0.3261 -0.2152  0.0578
 5042TIP3    H136685   6.039   4.351   1.152 -0.3026 -0.0854  0.1828
 5042TIP3    H236686   6.005   4.396   1.012 -0.6857 -0.8145  0.0370
 5043TIP3   OH236687   0.794   5.899   1.500  0.0077 -0.4693 -0.0341
 5043TIP3    H136688   0.704   5.914   1.470 -0.3124 -0.3621  0.9355
 5043TIP3    H236689   0.797   5.939   1.587  0.5391 -1.8168  0.5973
 5044TIP3   OH236690   0.061   3.532   1.998  0.2337 -0.2650  0.2607
 5044TIP3    H136691   0.120   3.572   2.062 -1.3566 -0.2224  1.7974
 5044TIP3    H236692  -0.001   3.482   2.051 -0.4576 -1.1853 -1.3523
 5045TIP3   OH236693   1.494   4.679   8.384  0.0726  0.3449  0.0695
 5045TIP3    H136694   1.582   4.664   8.418 -0.3375  0.2981  1.1740
 5045TIP3    H236695   1.439   4.616   8.431 -0.5317  0.3054 -0.6805
 5046TIP3   OH236696   2.325   6.261   2.321  0.0075 -0.2393 -0.1892
 5046TIP3    H136697   2.306   6.355   2.323 -1.4959 -0.5179 -0.1799
 5046TIP3    H236698   2.402   6.251   2.377 -1.2115  0.7240  1.7882
 5047TIP3   OH236699   2.331   2.035   0.959  0.2235 -0.4948 -0.1348
 5047TIP3    H136700   2.404   1.987   0.920  0.1748 -1.2193  0.6344
 5047TIP3    H236701   2.365   2.123   0.973  1.0281 -0.8690  0.3716
 5048TIP3   OH236702   1.738   4.623   0.466  0.3486  0.4477  0.0772
 5048TIP3    H136703   1.649   4.659   0.460  0.8259  1.8528  0.9777
 5048TIP3    H236704   1.778   4.671   0.538  2.3068  0.8312 -1.1991
 5049TIP3   OH236705   6.320   0.764   9.066  0.4931 -0.1515  0.1517
 5049TIP3    H136706   6.338   0.685   9.116 -0.0308 -0.0622  0.4946
 5049TIP3    H236707   6.358   0.835   9.118 -1.2029  0.0971  1.1415
 5050TIP3   OH236708   1.586   3.682   2.724 -0.5104  0.4045 -0.2737
 5050TIP3    H136709   1.560   3.729   2.803  0.4994  0.0480  0.2982
 5050TIP3    H236710   1.508   3.633   2.697 -0.4260 -0.7554  1.4490
 5051TIP3   OH236711   5.108   1.903   8.560  0.1050  0.3134  0.0113
 5051TIP3    H136712   5.059   1.946   8.630  0.6176 -1.8680  1.8152
 5051TIP3    H236713   5.117   1.970   8.492 -3.7210  1.3928  0.3315
 5052TIP3   OH236714   0.919   1.909   0.960 -0.2211  0.5181 -0.2565
 5052TIP3    H136715   0.824   1.920   0.957 -0.2804  0.0167 -0.3803
 5052TIP3    H236716   0.953   1.997   0.975 -0.7069  0.6953 -0.1681
 5053TIP3   OH236717   5.213   4.528   1.391  0.1188  0.2993 -0.1105
 5053TIP3    H136718   5.248   4.439   1.390  4.1709  1.6337  1.5678
 5053TIP3    H236719   5.121   4.517   1.412  0.2275 -3.5006 -0.8319
 5054TIP3   OH236720   1.394   4.734   0.477 -0.0079 -0.1795 -0.4769
 5054TIP3    H136721   1.306   4.714   0.444  0.1435 -2.2389  0.1777
 5054TIP3    H236722   1.378   4.786   0.556 -0.5958  0.0839 -0.7624
 5055TIP3   OH236723   4.975   3.572   8.122  0.1889 -0.2013 -0.3665
 5055TIP3    H136724   5.054   3.565   8.177 -0.8145  0.3302  1.2231
 5055TIP3    H236725   4.978   3.662   8.088 -0.2421  0.1759  0.5552
 5056TIP3   OH236726   5.702   4.204   2.186  0.5152  0.2314  0.2421
 5056TIP3    H136727   5.789   4.168   2.169  0.6073  0.6909 -0.2996
 5056TIP3    H236728   5.685   4.182   2.278  0.0063 -2.3286 -0.3918
 5057TIP3   OH236729   0.940   6.254   1.632 -0.0101 -0.0857  0.0165
 5057TIP3    H136730   0.983   6.174   1.601  1.2602 -0.2928  2.0556
 5057TIP3    H236731   0.859   6.223   1.674  0.1792 -0.2466  0.2672
 5058TIP3   OH236732   4.410   2.076   0.949  0.3129 -0.0407 -0.2845
 5058TIP3    H136733   4.449   2.094   1.034  0.3696  1.2311 -0.5647
 5058TIP3    H236734   4.325   2.036   0.970 -1.0882  3.0593  0.4996
 5059TIP3   OH236735   3.796   1.245   0.385 -0.9376  0.1539  0.1496
 5059TIP3    H136736   3.762   1.178   0.444 -0.1546 -0.2672  0.1347
 5059TIP3    H236737   3.741   1.239   0.307  0.6033 -2.1802 -0.8780
 5060TIP3   OH236738   5.982   4.263   8.729 -0.3884 -0.4992  0.1102
 5060TIP3    H136739   6.058   4.236   8.678 -1.2298 -0.4093 -1.2311
 5060TIP3    H236740   5.911   4.270   8.665 -0.9809  1.7001  0.9167
 5061TIP3   OH236741   5.112   4.910   8.545 -0.0057  0.0952  0.3318
 5061TIP3    H136742   5.171   4.867   8.483  0.1684  1.2683 -0.3267
 5061TIP3    H236743   5.038   4.849   8.553  0.0236 -0.1303 -0.9289
 5062TIP3   OH236744   3.490   6.266   0.702 -0.0887 -0.2946  0.1840
 5062TIP3    H136745   3.543   6.286   0.626  0.3727  4.2575  1.3941
 5062TIP3    H236746   3.553   6.252   0.773 -0.5236 -1.4121  0.3693
 5063TIP3   OH236747   0.524   5.675   0.904  0.0132 -1.0502 -0.0124
 5063TIP3    H136748   0.537   5.598   0.960  3.8919 -0.4666  0.1813
 5063TIP3    H236749   0.522   5.641   0.815  1.7896 -1.4521  0.0664
 5064TIP3   OH236750   0.103   6.440   7.380  0.2991 -0.4735 -0.0301
 5064TIP3    H136751   0.056   6.523   7.375  3.4325  1.5747  1.3257
 5064TIP3    H236752   0.064   6.394   7.454 -2.1896 -0.8264 -1.4509
 5065TIP3   OH236753   2.311   1.821   7.755 -0.3090  0.0518 -0.0125
 5065TIP3    H136754   2.407   1.819   7.746 -0.2046  0.4867  0.8825
 5065TIP3    H236755   2.285   1.900   7.708  0.0974  1.6013  2.2385
 5066TIP3   OH236756   0.290   4.252   1.592  0.4139  0.3015 -0.1444
 5066TIP3    H136757   0.199   4.282   1.596  0.7758  1.2837  1.2136
 5066TIP3    H236758   0.283   4.162   1.559 -1.2587 -0.4074  1.8750
 5067TIP3   OH236759   3.872   1.530   8.113  0.3557 -0.4713 -0.6025
 5067TIP3    H136760   3.882   1.563   8.202 -1.2506 -0.7077 -0.3038
 5067TIP3    H236761   3.905   1.600   8.057 -0.5283  0.5511  0.1127
 5068TIP3   OH236762   5.947   5.965   8.853  0.0902 -0.5018 -0.1707
 5068TIP3    H136763   5.993   5.909   8.790 -0.4049 -2.1039  0.8218
 5068TIP3    H236764   5.918   5.905   8.922  0.3209  1.1330  1.4355
 5069TIP3   OH236765   3.474   2.476   8.414 -0.9342  0.0651 -0.1320
 5069TIP3    H136766   3.411   2.455   8.483  0.4191  0.3013  1.2328
 5069TIP3    H236767   3.458   2.568   8.394 -0.2129  0.4909  1.1343
 5070TIP3   OH236768   3.975   1.921   8.191  0.5341  0.0878 -0.5646
 5070TIP3    H136769   3.920   1.960   8.258 -0.3933 -2.8238  0.5180
 5070TIP3    H236770   4.064   1.947   8.215  0.0535  0.6200  0.7195
 5071TIP3   OH236771   0.641   4.419   2.441  0.2531 -0.4850 -0.5014
 5071TIP3    H136772   0.627   4.445   2.532 -2.1061  0.3625 -1.0245
 5071TIP3    H236773   0.617   4.326   2.439  1.0567 -0.7115 -0.1422
 5072TIP3   OH236774   5.561   6.616   0.950  0.2122 -0.3079 -0.1532
 5072TIP3    H136775   5.606   6.619   1.034  0.4643  2.1887 -0.3239
 5072TIP3    H236776   5.510   6.535   0.954  2.1413 -1.5516  1.3487
 5073TIP3   OH236777   2.046   5.637   1.351 -0.0467  0.9965  0.4836
 5073TIP3    H136778   1.972   5.696   1.367  0.3471  1.8746 -0.8019
 5073TIP3    H236779   2.007   5.551   1.341 -0.6387  0.9820  2.4149
 5074TIP3   OH236780   1.544   5.482   7.799  0.0981 -0.0712 -0.0385
 5074TIP3    H136781   1.470   5.443   7.752  0.7416 -1.7854  0.3231
 5074TIP3    H236782   1.570   5.556   7.744 -0.7959 -0.4655 -1.0465
 5075TIP3   OH236783   4.504   5.119   7.820  0.3491 -0.1727 -0.6292
 5075TIP3    H136784   4.575   5.152   7.765  1.7333 -2.3043 -0.2579
 5075TIP3    H236785   4.464   5.197   7.857  1.7058  1.1651 -1.8329
 5076TIP3   OH236786   6.017   3.334   2.311 -0.3806  0.3528 -0.7835
 5076TIP3    H136787   6.096   3.325   2.258 -0.5430 -0.4855 -0.9000
 5076TIP3    H236788   5.947   3.300   2.256 -0.7554  0.6774 -0.5158
 5077TIP3   OH236789   4.489   1.326   8.978 -0.7084  0.7854  0.0227
 5077TIP3    H136790   4.553   1.274   9.027  0.3942  0.7854 -1.3712
 5077TIP3    H236791   4.514   1.315   8.886 -2.7636  0.7318 -0.5823
 5078TIP3   OH236792   0.898   0.751   7.971 -0.3542  0.8459 -0.1417
 5078TIP3    H136793   0.861   0.699   7.900 -0.8168  0.5469  0.3081
 5078TIP3    H236794   0.870   0.706   8.051  0.0626  1.2383  0.2336
 5079TIP3   OH236795   0.556   3.378   0.449  0.6242 -0.4509 -0.2289
 5079TIP3    H136796   0.486   3.356   0.388  0.2632  0.1503 -0.0369
 5079TIP3    H236797   0.625   3.314   0.430  0.7257  0.0504 -1.6186
 5080TIP3   OH236798   2.853   4.271   0.046  0.0482  0.1665  0.4954
 5080TIP3    H136799   2.807   4.268   0.130  1.4764  1.6597  1.3697
 5080TIP3    H236800   2.946   4.268   0.069  0.4647 -1.3778 -1.1584
 5081TIP3   OH236801   5.853   6.186   7.789 -0.0655 -0.0244  0.1011
 5081TIP3    H136802   5.848   6.150   7.700 -0.7188  0.8730 -0.2352
 5081TIP3    H236803   5.943   6.167   7.817  1.0597  2.0177 -1.7855
 5082TIP3   OH236804   3.335   2.434   8.635  0.4057 -0.1013 -0.1883
 5082TIP3    H136805   3.373   2.484   8.707 -1.4482  0.2796  0.6005
 5082TIP3    H236806   3.240   2.446   8.645  0.0538  1.2030 -3.5755
 5083TIP3   OH236807   5.313   1.745   2.049  0.0477 -0.1312  0.2338
 5083TIP3    H136808   5.266   1.712   2.126  0.2374  3.3881  2.0669
 5083TIP3    H236809   5.248   1.795   2.001  0.9537  1.6091  0.7392
 5084TIP3   OH236810   4.229   1.295   1.902 -0.2271 -0.1882 -0.2639
 5084TIP3    H136811   4.278   1.330   1.977 -0.6873  0.1567 -0.1222
 5084TIP3    H236812   4.138   1.294   1.931 -0.5854  1.1008 -1.2245
 5085TIP3   OH236813   3.451   0.071   0.082 -0.6104  0.5061 -0.6319
 5085TIP3    H136814   3.519   0.064   0.016 -0.1003 -1.6977  0.0335
 5085TIP3    H236815   3.487   0.132   0.147  0.4113  0.0206 -0.7093
 5086TIP3   OH236816   0.378   5.299   0.767 -0.3563 -0.1585  0.1533
 5086TIP3    H136817   0.311   5.303   0.835 -0.9684 -0.4674 -0.4279
 5086TIP3    H236818   0.341   5.348   0.694 -0.1911 -0.8139 -0.3776
 5087TIP3   OH236819   2.466   3.819   9.045  0.1052 -0.1583  0.0317
 5087TIP3    H136820   2.556   3.822   9.078  0.1816 -0.9554 -0.0795
 5087TIP3    H236821   2.414   3.863   9.112  0.5565  0.2037  0.1541
 5088TIP3   OH236822   4.015   3.401   6.909  0.3053 -0.3198  0.6361
 5088TIP3    H136823   4.048   3.374   6.823  1.3359 -3.2439  1.8199
 5088TIP3    H236824   4.077   3.467   6.939 -0.2848  1.0310 -0.9524
 5089TIP3   OH236825   2.130   1.013   0.057 -0.4588 -0.0353 -0.1012
 5089TIP3    H136826   2.116   1.095   0.011 -0.1702 -0.1168 -0.3336
 5089TIP3    H236827   2.211   0.977   0.020 -0.0181  0.0795  0.7274
 5090TIP3   OH236828   4.004   2.968   8.921 -0.2920 -0.0321 -0.1672
 5090TIP3    H136829   3.991   3.038   8.857  0.4965 -0.1165 -0.4371
 5090TIP3    H236830   4.099   2.954   8.921 -0.0785  0.9653  2.0803
 5091TIP3   OH236831   3.483   3.645   2.832 -0.1064 -0.6763  0.2379
 5091TIP3    H136832   3.435   3.688   2.762  0.6203  0.8356  0.6340
 5091TIP3    H236833   3.493   3.712   2.900  1.1931 -1.4123  0.8120
 5092TIP3   OH236834   5.375   1.176   0.958 -0.0365 -0.1726 -0.0438
 5092TIP3    H136835   5.374   1.228   1.038 -1.3530 -1.4747  0.8290
 5092TIP3    H236836   5.424   1.097   0.980 -0.1462 -0.4120 -0.6194
 5093TIP3   OH236837   0.758   3.696   1.304  0.6044  0.2967  0.0196
 5093TIP3    H136838   0.780   3.610   1.339 -2.1069  0.3144  2.0987
 5093TIP3    H236839   0.767   3.687   1.209 -0.6346 -2.6349  0.0985
 5094TIP3   OH236840   0.081   3.207   1.681  0.3123 -0.5205  0.4244
 5094TIP3    H136841  -0.002   3.160   1.690 -0.8302  1.5181  1.2649
 5094TIP3    H236842   0.138   3.167   1.746 -0.2861 -1.4067  0.4254
 5095TIP3   OH236843   4.979   5.971   2.668  0.3209 -0.0872  0.3943
 5095TIP3    H136844   4.975   6.066   2.662  2.5609  0.2271  2.0344
 5095TIP3    H236845   5.069   5.949   2.642  0.2834 -1.5845  1.3743
 5096TIP3   OH236846   5.661   2.296   0.549 -0.0768  0.0309 -0.5875
 5096TIP3    H136847   5.694   2.213   0.514  1.3320  1.1645 -2.1188
 5096TIP3    H236848   5.735   2.333   0.597 -0.3127  0.9113 -0.8848
 5097TIP3   OH236849   4.436   1.369   7.812  0.0832 -0.1280  0.1023
 5097TIP3    H136850   4.419   1.277   7.792  0.1736 -0.2761  0.6923
 5097TIP3    H236851   4.486   1.401   7.737  0.1899 -0.6020 -0.0308
 5098TIP3   OH236852   6.638   5.913   6.981  0.4573 -0.4522  0.0510
 5098TIP3    H136853   6.564   5.853   6.986  0.3944 -0.5031 -1.1936
 5098TIP3    H236854   6.711   5.865   7.019 -0.6313  0.5600  3.9703
 5099TIP3   OH236855   3.522   2.564   0.079 -0.1314 -0.1543 -0.2668
 5099TIP3    H136856   3.525   2.478   0.036 -3.5616 -1.9307  2.3914
 5099TIP3    H236857   3.430   2.591   0.070 -0.3376  0.7226  3.1213
 5100TIP3   OH236858   6.626   1.260   7.402 -0.7907  0.7790  0.4002
 5100TIP3    H136859   6.561   1.190   7.407 -0.3199  0.4043  1.5683
 5100TIP3    H236860   6.674   1.243   7.321 -0.9762  0.0061  0.4444
 5101TIP3   OH236861   6.200   4.103   0.963 -0.3333 -0.4801 -0.8006
 5101TIP3    H136862   6.198   4.158   0.884 -1.2736 -0.2708 -0.6423
 5101TIP3    H236863   6.108   4.089   0.985 -0.1269  0.8215  1.1995
 5102TIP3   OH236864   3.878   4.511   8.910  0.4357 -0.1425 -0.6055
 5102TIP3    H136865   3.815   4.548   8.847  0.0266 -2.7097 -1.8187
 5102TIP3    H236866   3.964   4.534   8.873  0.3421  2.5877  0.5866
 5103TIP3   OH236867   0.521   0.173   8.030  0.1221  0.5485  0.5735
 5103TIP3    H136868   0.459   0.110   8.067 -2.0289  2.0590 -0.2701
 5103TIP3    H236869   0.548   0.227   8.105 -0.4669  0.5849  0.7631
 5104TIP3   OH236870   5.774   4.517   2.145  0.0094 -0.5858 -0.3086
 5104TIP3    H136871   5.718   4.565   2.084 -2.0038 -1.9279  0.3798
 5104TIP3    H236872   5.716   4.450   2.183  0.9709  0.4363  3.4023
 5105TIP3   OH236873   2.211   2.967   1.297  0.1744  0.1085 -0.3184
 5105TIP3    H136874   2.260   3.014   1.230  1.6607 -1.6253 -0.5464
 5105TIP3    H236875   2.120   2.970   1.267  0.7344 -0.1599 -2.1514
 5106TIP3   OH236876   1.918   6.572   0.914 -0.3206 -0.2419  0.1747
 5106TIP3    H136877   1.882   6.635   0.976  1.6297  1.0025  0.1239
 5106TIP3    H236878   1.992   6.532   0.961  1.1829  0.7135 -1.2645
 5107TIP3   OH236879   6.592   2.015   1.986 -0.2991 -0.4135 -0.3119
 5107TIP3    H136880   6.607   1.938   2.041 -1.3134  0.6048  1.5047
 5107TIP3    H236881   6.501   2.006   1.956 -0.1911 -0.2718 -0.6886
 5108TIP3   OH236882   6.349   4.520   8.727  0.1251 -0.4219  0.0192
 5108TIP3    H136883   6.271   4.537   8.780  0.2308 -3.0111  1.1915
 5108TIP3    H236884   6.411   4.480   8.789  2.0156  0.6265 -1.1183
 5109TIP3   OH236885   0.283   6.642   1.235  0.4511 -0.1836  0.4131
 5109TIP3    H136886   0.378   6.629   1.246  0.7034  0.8136 -0.3737
 5109TIP3    H236887   0.275   6.680   1.148 -0.7203 -0.5841  0.3369
 5110TIP3   OH236888   5.647   6.013   7.950  0.2579  0.2119  0.0826
 5110TIP3    H136889   5.716   6.006   7.884 -0.4153  1.3145 -0.7802
 5110TIP3    H236890   5.693   6.015   8.034  1.1777 -0.4350 -0.3974
 5111TIP3   OH236891   6.279   3.490   0.061 -0.5537  0.4665  0.0683
 5111TIP3    H136892   6.321   3.426   0.004 -3.6309 -1.8070  0.0919
 5111TIP3    H236893   6.280   3.451   0.148  0.8094  2.2307  0.9113
 5112TIP3   OH236894   1.191   4.279   7.514 -0.8772  0.3597  0.1880
 5112TIP3    H136895   1.220   4.320   7.433 -1.1492  0.3794  0.1012
 5112TIP3    H236896   1.103   4.247   7.495 -0.3610 -1.0248 -0.0284
 5113TIP3   OH236897   0.436   5.371   8.313 -0.5676 -0.3044  0.0155
 5113TIP3    H136898   0.438   5.285   8.354 -1.6459 -0.7603 -0.8293
 5113TIP3    H236899   0.446   5.354   8.219 -0.4425  0.5241 -0.1369
 5114TIP3   OH236900   6.200   1.778   8.810  0.4810  0.1561 -0.0578
 5114TIP3    H136901   6.286   1.737   8.804  1.1324  1.2993  0.9700
 5114TIP3    H236902   6.144   1.711   8.848  1.4583  0.0884  1.3405
 5115TIP3   OH236903   0.679   6.343   7.669 -0.1364 -0.1220 -0.0800
 5115TIP3    H136904   0.618   6.270   7.662  0.7915 -1.0794  1.1425
 5115TIP3    H236905   0.691   6.355   7.763  0.4924  0.9601 -0.2808
 5116TIP3   OH236906   5.194   3.590   0.751 -0.3688 -0.2352 -0.1936
 5116TIP3    H136907   5.159   3.657   0.809  0.0167 -0.0438 -0.1849
 5116TIP3    H236908   5.256   3.541   0.805  0.7849  0.6023 -0.7267
 5117TIP3   OH236909   4.518   2.276   7.991  0.3822 -0.2123  0.0089
 5117TIP3    H136910   4.450   2.227   7.945 -0.6872  1.1061  0.1168
 5117TIP3    H236911   4.575   2.209   8.028 -2.2172 -1.4943  1.9769
 5118TIP3   OH236912   3.854   3.331   8.963  0.5767  0.1527  0.1112
 5118TIP3    H136913   3.816   3.279   9.033 -0.8190  1.1365  0.1367
 5118TIP3    H236914   3.779   3.363   8.913  1.5329 -0.8304 -2.0976
 5119TIP3   OH236915   3.324   6.235   2.141 -0.1624 -0.3824 -0.6080
 5119TIP3    H136916   3.294   6.178   2.212 -0.2277 -0.5823 -0.7955
 5119TIP3    H236917   3.338   6.176   2.067 -1.8964  0.0437 -1.3284
 5120TIP3   OH236918   1.430   6.085   8.813 -0.4213 -0.2767 -0.2754
 5120TIP3    H136919   1.427   6.114   8.722 -0.6117 -0.9611 -0.4921
 5120TIP3    H236920   1.390   5.998   8.812  1.1770 -1.0667  0.1535
 5121TIP3   OH236921   1.154   4.729   2.538  0.2652  0.0662  0.2165
 5121TIP3    H136922   1.240   4.713   2.576 -1.1749  0.4981  4.1000
 5121TIP3    H236923   1.104   4.650   2.559 -0.9873  0.9065  0.4700
 5122TIP3   OH236924   3.309   6.574   0.933  0.5832 -0.0471  0.0547
 5122TIP3    H136925   3.391   6.615   0.905  0.3366  0.7453  0.4578
 5122TIP3    H236926   3.303   6.595   1.026 -0.4160  0.4984 -0.1197
 5123TIP3   OH236927   5.437   1.225   0.306  0.2201  0.6200  0.0556
 5123TIP3    H136928   5.425   1.235   0.212 -0.8662  0.8871  0.2074
 5123TIP3    H236929   5.529   1.202   0.316 -0.3421 -2.9710 -1.3582
 5124TIP3   OH236930   0.766   3.994   7.666 -0.1587  0.1810 -0.1098
 5124TIP3    H136931   0.772   3.954   7.753  0.1922 -0.9519 -0.6373
 5124TIP3    H236932   0.856   4.003   7.638 -0.2270  1.4443  0.0174
 5125TIP3   OH236933   1.231   6.388   0.220  0.3223  0.3982  0.2857
 5125TIP3    H136934   1.285   6.465   0.202  2.4984 -0.9837  0.5278
 5125TIP3    H236935   1.258   6.361   0.308 -0.3207 -0.7020  0.1515
 5126TIP3   OH236936   3.703   0.271   9.092  0.6316  0.0353  0.1371
 5126TIP3    H136937   3.789   0.314   9.098  0.6286  0.7280 -2.9787
 5126TIP3    H236938   3.724   0.180   9.071  0.7200  0.4640 -1.9128
 5127TIP3   OH236939   4.097   3.241   1.971  0.2802  0.1446  0.0151
 5127TIP3    H136940   4.175   3.192   1.945 -0.0818 -0.0722 -0.6773
 5127TIP3    H236941   4.031   3.218   1.906 -0.6255 -0.3334  1.0704
 5128TIP3   OH236942   1.097   3.784   0.663 -0.8328 -0.0552  0.7813
 5128TIP3    H136943   1.059   3.847   0.603  0.0814 -0.7509 -0.5757
 5128TIP3    H236944   1.183   3.819   0.686 -0.8919 -0.1317  1.1387
 5129TIP3   OH236945   5.228   6.355   2.649  0.2243 -0.4068  0.0667
 5129TIP3    H136946   5.231   6.278   2.705  1.0177  0.0761  0.7106
 5129TIP3    H236947   5.139   6.389   2.660  0.7777  0.5666  2.3182
 5130TIP3   OH236948   5.526   6.535   7.398  0.2781 -0.2803 -0.5456
 5130TIP3    H136949   5.591   6.598   7.429  0.1559 -0.2110 -0.4275
 5130TIP3    H236950   5.578   6.460   7.369  0.3675 -0.8013  0.8603
 5131TIP3   OH236951   4.810   1.366   0.677  0.0483 -0.9278  0.5126
 5131TIP3    H136952   4.881   1.342   0.617 -0.9511  0.7815 -1.4803
 5131TIP3    H236953   4.822   1.308   0.753  2.5613 -1.8097 -0.4515
 5132TIP3   OH236954   2.399   3.872   2.520  0.1955 -0.4362  0.3082
 5132TIP3    H136955   2.358   3.917   2.593  0.1591  0.0339  0.0055
 5132TIP3    H236956   2.332   3.812   2.488 -0.0617 -0.0842  0.1766
 5133TIP3   OH236957   5.501   3.791   8.978 -0.0643 -0.7076  0.1393
 5133TIP3    H136958   5.492   3.886   8.985 -1.1382 -0.7592 -0.4345
 5133TIP3    H236959   5.445   3.756   9.047 -0.1215 -0.9331 -0.0198
 5134TIP3   OH236960   0.674   6.387   2.277 -0.1649  0.4849  0.5307
 5134TIP3    H136961   0.598   6.352   2.230 -0.6313  1.9855  0.0848
 5134TIP3    H236962   0.641   6.465   2.321  0.7020  0.1034  1.9086
 5135TIP3   OH236963   5.010   1.113   0.521  0.0356 -0.2324  0.4738
 5135TIP3    H136964   5.041   1.192   0.477  3.0850 -2.2418 -1.3715
 5135TIP3    H236965   5.050   1.117   0.608  3.3283 -1.2860 -0.8335
 5136TIP3   OH236966   2.334   1.479   1.413 -0.4343 -0.1559  0.0247
 5136TIP3    H136967   2.311   1.554   1.468 -1.9956  0.3937 -1.2754
 5136TIP3    H236968   2.304   1.403   1.463 -0.0208  0.1776  0.7930
 5137TIP3   OH236969   2.519   0.356   1.067  0.0201  0.1429 -0.4949
 5137TIP3    H136970   2.453   0.367   1.136 -0.9828 -0.0881 -1.3868
 5137TIP3    H236971   2.603   0.366   1.112 -0.5715 -1.0633  0.9636
 5138TIP3   OH236972   1.754   3.887   2.485  1.0515 -0.3682  0.2299
 5138TIP3    H136973   1.806   3.921   2.558  1.6357 -2.1756  0.6993
 5138TIP3    H236974   1.753   3.792   2.498  0.2430 -0.6419 -1.5198
 5139TIP3   OH236975   6.311   1.307   2.744  0.5981  0.6633  0.1814
 5139TIP3    H136976   6.308   1.378   2.808 -0.2289  2.3852 -1.6485
 5139TIP3    H236977   6.381   1.332   2.683  1.7107 -1.1808  0.6274
 5140TIP3   OH236978   3.387   2.315   1.158 -0.7261  0.0602 -0.3436
 5140TIP3    H136979   3.470   2.296   1.113 -0.8582  0.0583 -0.5841
 5140TIP3    H236980   3.320   2.308   1.090 -1.2632 -2.6339  0.3178
 5141TIP3   OH236981   0.144   1.129   2.138  0.2338  0.0060  0.7893
 5141TIP3    H136982   0.153   1.121   2.233  0.8630 -1.4776  0.6335
 5141TIP3    H236983   0.233   1.145   2.107 -0.0013  0.6891  0.4621
 5142TIP3   OH236984   4.618   6.172   7.544 -0.2216 -0.5302 -0.0871
 5142TIP3    H136985   4.588   6.190   7.633 -0.0567  0.3042 -0.2003
 5142TIP3    H236986   4.541   6.183   7.489 -0.0230  0.2621 -0.2093
 5143TIP3   OH236987   4.983   4.046   2.276 -0.0598 -0.2466 -0.4650
 5143TIP3    H136988   4.987   4.093   2.193  2.4765 -0.4681 -0.5422
 5143TIP3    H236989   5.019   4.108   2.340  0.2042 -0.8953  0.0257
 5144TIP3   OH236990   4.802   2.646   2.631 -0.4823  0.3316 -0.6533
 5144TIP3    H136991   4.892   2.645   2.663 -0.8847 -0.8233  0.5256
 5144TIP3    H236992   4.751   2.604   2.700 -1.4039 -2.3912 -2.7826
 5145TIP3   OH236993   4.553   5.660   9.056  0.3381  0.3321  0.9401
 5145TIP3    H136994   4.519   5.749   9.054  0.1198  0.2465  0.8333
 5145TIP3    H236995   4.480   5.606   9.026  1.7108  0.5057 -3.4309
 5146TIP3   OH236996   0.175   4.580   2.452  0.6607  0.0199  0.0827
 5146TIP3    H136997   0.223   4.658   2.424 -0.2298  0.3127 -0.6521
 5146TIP3    H236998   0.238   4.531   2.505  3.2879 -1.7105 -4.1428
 5147TIP3   OH236999   2.434   2.636   1.900  0.2681  0.3268  0.6258
 5147TIP3    H137000   2.522   2.600   1.904  0.1340  0.0410  1.2413
 5147TIP3    H237001   2.446   2.730   1.895  0.6179  0.2377 -0.3889
 5148TIP3   OH237002   2.507   5.289   7.993  0.1775 -0.2297 -0.0107
 5148TIP3    H137003   2.509   5.364   8.053  0.7062 -1.1027  1.0912
 5148TIP3    H237004   2.584   5.300   7.937  0.3572 -0.0500  0.2727
 5149TIP3   OH237005   6.030   1.173   6.725  0.0968  0.2231  1.1070
 5149TIP3    H137006   5.993   1.086   6.711  1.6252 -0.4059  0.6901
 5149TIP3    H237007   6.087   1.163   6.802  2.5655  0.0111 -0.6093
 5150TIP3   OH237008   5.860   3.240   2.105 -0.3247 -0.1677  0.3208
 5150TIP3    H137009   5.868   3.268   2.013  4.1816 -0.7422  0.3199
 5150TIP3    H237010   5.774   3.198   2.109 -1.0599  0.5789 -3.4207
 5151TIP3   OH237011   2.748   4.681   8.346 -0.0780 -0.4682  0.3692
 5151TIP3    H137012   2.805   4.758   8.348  1.9875 -1.8841 -0.5918
 5151TIP3    H237013   2.739   4.660   8.253  0.5637 -2.1830  0.6568
 5152TIP3   OH237014   2.534   6.026   8.090  0.4350  0.1799  0.3383
 5152TIP3    H137015   2.577   6.032   8.175 -1.1364 -0.1257  1.2019
 5152TIP3    H237016   2.454   5.975   8.108 -0.0560  0.3483 -1.2673
 5153TIP3   OH237017   4.392   4.434   0.934 -0.0727  0.1451  0.1588
 5153TIP3    H137018   4.432   4.518   0.914  0.2916 -0.1821 -0.5026
 5153TIP3    H237019   4.412   4.379   0.859 -0.3629 -0.5172  0.5574
 5154TIP3   OH237020   5.757   1.915   7.966  0.0815 -0.1933 -0.3713
 5154TIP3    H137021   5.750   1.996   8.016 -0.0457 -0.7008  0.4473
 5154TIP3    H237022   5.690   1.922   7.897  0.4211  0.6112 -0.6273
 5155TIP3   OH237023   6.338   3.979   8.513  0.0071  0.2696  1.2549
 5155TIP3    H137024   6.309   3.945   8.598 -2.0812  0.3741  0.6289
 5155TIP3    H237025   6.300   4.067   8.507  1.7375  1.0408  0.9969
 5156TIP3   OH237026   2.602   1.940   0.607  0.7771  0.1086 -0.5925
 5156TIP3    H137027   2.523   1.958   0.556  0.4913  1.2213  0.2262
 5156TIP3    H237028   2.674   1.953   0.544  0.3695  0.2087 -1.0426
 5157TIP3   OH237029   1.553   0.126   7.656 -0.6489 -0.6693 -0.0302
 5157TIP3    H137030   1.605   0.111   7.577  0.5899 -1.1169  0.8253
 5157TIP3    H237031   1.532   0.219   7.654 -0.1961 -0.5740 -0.6402
 5158TIP3   OH237032   4.097   1.993   7.256 -0.6336  0.3603 -0.1485
 5158TIP3    H137033   4.173   2.021   7.205 -0.2454  0.3379  0.3977
 5158TIP3    H237034   4.042   1.946   7.194  1.4761 -2.8044  0.1324
 5159TIP3   OH237035   5.472   0.328   1.505  0.2823  0.3127  0.4166
 5159TIP3    H137036   5.506   0.390   1.570  0.5444 -0.7072  1.2676
 5159TIP3    H237037   5.550   0.290   1.465  0.1382 -0.3510  0.7526
 5160TIP3   OH237038   0.939   1.920   7.226 -0.0705  0.5356  0.8877
 5160TIP3    H137039   0.906   1.836   7.257 -0.1833  0.9081  1.8240
 5160TIP3    H237040   1.034   1.909   7.223 -0.1874 -0.3846 -1.3488
 5161TIP3   OH237041   6.348   0.429   1.151  0.1092  0.6347 -0.1305
 5161TIP3    H137042   6.392   0.360   1.100 -0.0897  0.9854 -0.7803
 5161TIP3    H237043   6.264   0.442   1.107  0.2582  1.4835 -0.1713
 5162TIP3   OH237044   3.150   4.413   1.356 -0.0973 -0.2016 -0.0421
 5162TIP3    H137045   3.154   4.345   1.289 -0.0711  1.3588 -1.7058
 5162TIP3    H237046   3.060   4.444   1.355 -0.2553 -0.5656  1.1105
 5163TIP3   OH237047   6.617   5.255   8.595  0.6591 -0.0124 -0.4652
 5163TIP3    H137048   6.701   5.280   8.557  0.5131  1.0890 -0.0929
 5163TIP3    H237049   6.627   5.162   8.618  1.3730 -0.1937 -1.4658
 5164TIP3   OH237050   3.786   1.683   8.997  0.1259 -0.3278  0.0389
 5164TIP3    H137051   3.803   1.642   8.912 -1.7013 -3.5117  1.0081
 5164TIP3    H237052   3.690   1.693   9.000  0.2148  0.3083  1.4484
 5165TIP3   OH237053   5.164   3.828   2.041  0.2212  0.1365  0.2018
 5165TIP3    H137054   5.180   3.784   2.124 -2.1121  0.1027  0.6901
 5165TIP3    H237055   5.075   3.803   2.017  0.5023  0.8986 -1.8547
 5166TIP3   OH237056   1.963   5.934   8.666 -0.0979 -0.0519  0.4482
 5166TIP3    H137057   1.948   6.002   8.599  1.5843 -0.0691 -0.0068
 5166TIP3    H237058   1.889   5.874   8.656  0.6488 -0.6559 -2.2058
 5167TIP3   OH237059   1.922   1.623   8.953 -0.3486 -0.1120  0.9584
 5167TIP3    H137060   1.916   1.615   8.858  2.2600  1.3525  0.5465
 5167TIP3    H237061   1.959   1.711   8.967  0.5332 -0.7692  3.2405
 5168TIP3   OH237062   4.918   2.791   1.386  0.5476  0.5246 -0.4079
 5168TIP3    H137063   4.893   2.739   1.310  2.1617 -2.6319  1.0189
 5168TIP3    H237064   4.839   2.795   1.440  0.1820  0.2824 -0.9198
 5169TIP3   OH237065   4.477   0.568   2.312  0.4450 -0.5638  0.0067
 5169TIP3    H137066   4.451   0.492   2.261 -0.4443 -0.4058  0.2035
 5169TIP3    H237067   4.570   0.581   2.291  0.3027 -0.9851 -0.9341
 5170TIP3   OH237068   4.292   1.584   7.581 -0.0180 -0.6434  0.7067
 5170TIP3    H137069   4.324   1.558   7.495  1.7773 -0.2089  1.2030
 5170TIP3    H237070   4.270   1.677   7.571 -1.3790 -0.9821  0.3214
 5171TIP3   OH237071   0.191   5.549   8.749  0.5311 -0.1770  0.1267
 5171TIP3    H137072   0.277   5.561   8.790  0.6074  2.1846 -0.5672
 5171TIP3    H237073   0.204   5.574   8.658 -0.9186  0.3697  0.0410
 5172TIP3   OH237074   5.686   4.257   1.006 -0.0496  0.1537 -0.3226
 5172TIP3    H137075   5.697   4.276   1.099 -0.4300  0.3195 -0.3110
 5172TIP3    H237076   5.769   4.216   0.980  0.1847  0.4043  0.0130
 5173TIP3   OH237077   5.675   2.048   2.083 -0.5511 -0.0034  0.1965
 5173TIP3    H137078   5.646   2.125   2.132 -0.0271  0.4962 -0.2679
 5173TIP3    H237079   5.681   2.078   1.992  1.1987 -0.1304  0.2413
 5174TIP3   OH237080   3.986   0.625   1.363 -0.2565 -0.1358 -0.5974
 5174TIP3    H137081   4.055   0.558   1.365 -1.7040 -1.6782  0.3066
 5174TIP3    H237082   4.033   0.707   1.345  1.9000 -0.9891  0.7086
 5175TIP3   OH237083   3.776   3.958   0.938 -0.0761  0.2692  0.3022
 5175TIP3    H137084   3.703   3.926   0.991 -0.3611 -2.6528 -1.6319
 5175TIP3    H237085   3.854   3.931   0.986 -0.3215 -3.1100 -0.9398
 5176TIP3   OH237086   6.089   4.769   8.466 -0.1371 -0.0537  0.4898
 5176TIP3    H137087   6.012   4.819   8.492  0.1752  0.2843  0.7694
 5176TIP3    H237088   6.155   4.836   8.446 -0.0467 -0.3272 -0.1635
 5177TIP3   OH237089   0.661   0.111   0.235 -0.4026 -0.4084 -0.0875
 5177TIP3    H137090   0.680   0.138   0.145  0.0002 -1.8423 -0.4563
 5177TIP3    H237091   0.672   0.190   0.287  0.9438  0.0819 -1.0825
 5178TIP3   OH237092   1.772   0.718   1.343  0.3414 -0.4825  0.5309
 5178TIP3    H137093   1.850   0.774   1.344 -0.1391  0.2150  0.0137
 5178TIP3    H237094   1.798   0.640   1.392  1.5081 -0.4516 -0.0030
 5179TIP3   OH237095   2.676   5.096   8.768 -0.6508 -0.3948 -0.5566
 5179TIP3    H137096   2.697   5.162   8.834 -0.6866 -0.8749 -0.0650
 5179TIP3    H237097   2.697   5.012   8.809  3.1987 -0.6192 -2.4723
 5180TIP3   OH237098   5.585   2.605   2.403 -0.1241  0.5736  0.2415
 5180TIP3    H137099   5.535   2.527   2.427  1.3028 -0.5323 -0.2368
 5180TIP3    H237100   5.578   2.663   2.479 -2.4216  0.6513  0.0324
 5181TIP3   OH237101   2.724   0.715   1.810 -0.1859  0.0028  0.1809
 5181TIP3    H137102   2.680   0.800   1.807 -0.1512  0.0284  0.3984
 5181TIP3    H237103   2.816   0.737   1.821  0.0576 -0.0084 -1.5711
 5182TIP3   OH237104   2.718   0.879   0.881  0.0392  0.0243 -0.0997
 5182TIP3    H137105   2.669   0.961   0.891 -0.0446  0.2518 -2.0040
 5182TIP3    H237106   2.810   0.906   0.883  0.0325  0.0161  0.3535
 5183TIP3   OH237107   0.054   0.165   2.011  0.2201  0.1765 -0.6234
 5183TIP3    H137108   0.058   0.095   1.946  0.9029 -1.9366  1.5231
 5183TIP3    H237109   0.144   0.196   2.020 -0.1905  1.9369 -2.0929
 5184TIP3   OH237110   3.876   5.563   1.401  0.4596 -0.2359 -0.2751
 5184TIP3    H137111   3.833   5.537   1.482 -1.7409 -0.7484 -1.5195
 5184TIP3    H237112   3.943   5.626   1.429 -0.7137  0.1713  1.8629
 5185TIP3   OH237113   6.667   1.604   0.945 -0.4354  0.2189  0.4707
 5185TIP3    H137114   6.683   1.640   1.032  1.3584 -1.6023  0.9697
 5185TIP3    H237115   6.684   1.510   0.954 -1.5039 -0.2402 -1.5477
 5186TIP3   OH237116   4.846   3.516   2.314  0.1436  0.6641 -0.4499
 5186TIP3    H137117   4.884   3.603   2.316  0.9025  0.3309  0.3874
 5186TIP3    H237118   4.920   3.458   2.296  0.0214  0.0211  1.0072
 5187TIP3   OH237119   0.586   0.078   2.215 -0.3762 -0.8296 -0.7490
 5187TIP3    H137120   0.523   0.131   2.166  0.1568  1.5804  0.9534
 5187TIP3    H237121   0.669   0.093   2.171 -0.4864 -1.6342 -1.2477
 5188TIP3   OH237122   1.665   4.945   7.652 -0.6903 -0.3869 -0.2047
 5188TIP3    H137123   1.760   4.943   7.663 -0.6683 -0.0198 -0.3243
 5188TIP3    H237124   1.643   5.038   7.647 -0.8861 -0.4856 -1.6775
 5189TIP3   OH237125   4.278   2.237   8.389 -0.4556 -0.6649  0.3799
 5189TIP3    H137126   4.228   2.156   8.381 -1.0060 -0.2145 -1.2686
 5189TIP3    H237127   4.366   2.215   8.357 -0.7495 -0.5227 -0.5778
 5190TIP3   OH237128   6.088   6.548   0.776  0.3877  0.0065  0.3272
 5190TIP3    H137129   6.129   6.589   0.701 -0.6447 -1.0024 -0.8307
 5190TIP3    H237130   6.075   6.620   0.838  1.5466  0.7946 -0.3101
 5191TIP3   OH237131   1.315   2.221   1.285  0.1679  0.2044  0.5599
 5191TIP3    H137132   1.295   2.136   1.246 -0.2584 -0.2849  1.7918
 5191TIP3    H237133   1.377   2.261   1.225 -0.8445 -0.2950 -0.8703
 5192TIP3   OH237134   4.084   5.297   9.073 -0.2830 -0.0856 -0.2286
 5192TIP3    H137135   4.114   5.367   9.016  0.3347  0.6759  0.9768
 5192TIP3    H237136   3.989   5.310   9.079 -0.2708  0.1883 -0.6027
 5193TIP3   OH237137   1.828   4.708   0.139  0.0502 -0.0369 -0.3984
 5193TIP3    H137138   1.756   4.692   0.200  1.0137  0.4051  0.9200
 5193TIP3    H237139   1.867   4.790   0.169  0.6253  0.1342 -1.5614
 5194TIP3   OH237140   5.363   1.547   2.438 -0.5628 -0.2104  0.4839
 5194TIP3    H137141   5.437   1.554   2.498 -1.1066 -1.0756  1.2867
 5194TIP3    H237142   5.367   1.457   2.405  0.4641  0.5902 -1.8083
 5195TIP3   OH237143   2.422   0.249   0.610 -0.3838 -0.0976 -0.0632
 5195TIP3    H137144   2.404   0.318   0.545 -0.7930 -0.5754 -0.4634
 5195TIP3    H237145   2.517   0.250   0.620 -0.4649  1.3340  0.8394
 5196TIP3   OH237146   2.244   4.990   1.968 -0.0655  0.5330  0.6371
 5196TIP3    H137147   2.179   4.945   1.914 -0.4756 -0.0005  1.5564
 5196TIP3    H237148   2.240   4.946   2.052  0.9092  1.0398  0.9631
 5197TIP3   OH237149   1.669   3.385   1.350  0.5699  0.3699 -0.0575
 5197TIP3    H137150   1.590   3.337   1.376  1.5203 -0.5057  1.3575
 5197TIP3    H237151   1.722   3.319   1.304  1.1715  0.4898  0.4494
 5198TIP3   OH237152   5.036   6.647   2.154 -0.0399 -0.2902 -0.9135
 5198TIP3    H137153   5.028   6.731   2.110 -1.4501  0.2217  0.2283
 5198TIP3    H237154   4.978   6.654   2.230  3.6492 -0.3160  2.2497
 5199TIP3   OH237155   5.691   0.954   1.218  0.2997  0.4180 -0.0960
 5199TIP3    H137156   5.690   1.037   1.266  0.7197  0.4896 -0.2043
 5199TIP3    H237157   5.600   0.926   1.217  0.0571  1.1883 -0.5957
 5200TIP3   OH237158   1.503   0.330   2.506  0.1368 -0.6305 -0.2268
 5200TIP3    H137159   1.557   0.371   2.574  2.4605 -0.9566 -1.7527
 5200TIP3    H237160   1.475   0.247   2.544  1.2329 -0.7236  0.4061
 5201TIP3   OH237161   4.501   0.153   7.138  0.5788 -0.5156  0.4932
 5201TIP3    H137162   4.489   0.242   7.172 -1.4797 -0.0331 -1.2297
 5201TIP3    H237163   4.578   0.159   7.082 -0.4762  0.7034 -0.9320
 5202TIP3   OH237164   0.865   1.428   1.883 -0.0383 -0.3957 -0.0491
 5202TIP3    H137165   0.957   1.427   1.911  0.8164  1.9949 -2.4013
 5202TIP3    H237166   0.853   1.345   1.837  1.2625 -0.2946 -0.5983
 5203TIP3   OH237167   1.634   4.999   0.021  0.4296 -0.2151 -0.2275
 5203TIP3    H137168   1.621   4.924  -0.037  2.8352  0.5212 -1.8732
 5203TIP3    H237169   1.545   5.030   0.040 -0.5312 -2.0793 -1.3582
 5204TIP3   OH237170   3.660   1.412   0.620  0.0305  0.0426 -0.4881
 5204TIP3    H137171   3.721   1.477   0.653  0.7665 -2.0882  2.7902
 5204TIP3    H237172   3.573   1.446   0.641  0.2120  1.1882 -1.4500
 5205TIP3   OH237173   4.434   2.507   7.746 -0.1593  0.1430 -0.0719
 5205TIP3    H137174   4.373   2.559   7.798 -0.7980 -2.6908  2.2864
 5205TIP3    H237175   4.381   2.437   7.709  1.1720 -0.7150 -0.4326
 5206TIP3   OH237176   4.218   5.479   0.151 -0.4140 -0.1403  0.3287
 5206TIP3    H137177   4.236   5.426   0.074 -0.7545 -0.1746  0.2690
 5206TIP3    H237178   4.125   5.499   0.145 -0.2020  0.8322  0.1169
 5207TIP3   OH237179   2.271   5.598   0.857 -0.0401 -0.5687  0.3374
 5207TIP3    H137180   2.212   5.529   0.884 -0.1890 -0.4749  0.2522
 5207TIP3    H237181   2.272   5.594   0.761  1.3757 -1.6542  0.3620
 5208TIP3   OH237182   3.166   3.547   0.641 -0.4804  0.9809 -0.0470
 5208TIP3    H137183   3.165   3.482   0.571  1.3095 -0.5435  1.2652
 5208TIP3    H237184   3.080   3.588   0.636 -0.8092  0.1761 -2.4118
 5209TIP3   OH237185   0.154   1.433   8.288 -0.1784 -0.0413  0.3509
 5209TIP3    H137186   0.239   1.429   8.332  0.9313 -0.9684 -1.6943
 5209TIP3    H237187   0.168   1.491   8.213 -0.5451 -2.1160 -1.4542
 5210TIP3   OH237188   4.471   2.774   2.846  0.3365  0.0734  0.1019
 5210TIP3    H137189   4.378   2.754   2.838 -0.1988  1.7170  1.5380
 5210TIP3    H237190   4.502   2.786   2.756 -0.1417 -3.1161 -0.5956
 5211TIP3   OH237191   1.121   0.827   8.568  0.1811  0.0145 -0.6563
 5211TIP3    H137192   1.117   0.815   8.663 -0.9376  0.1471 -0.6738
 5211TIP3    H237193   1.074   0.908   8.551  1.7580  0.8695 -1.1993
 5212TIP3   OH237194   3.583   4.875   8.839  0.2852 -0.1892 -0.2364
 5212TIP3    H137195   3.592   4.788   8.802  2.9265  0.7330 -2.0773
 5212TIP3    H237196   3.671   4.898   8.870 -0.4288  1.6348  0.6222
 5213TIP3   OH237197   3.019   2.037   0.538 -0.1630 -0.2781  0.7863
 5213TIP3    H137198   2.989   2.128   0.545 -0.0802  0.0703 -2.0137
 5213TIP3    H237199   2.980   2.006   0.456 -0.4717 -2.9087  1.8599
 5214TIP3   OH237200   3.622   1.732   0.205  0.0044 -0.0841  0.4272
 5214TIP3    H137201   3.704   1.774   0.179  0.4188 -0.3457  1.2583
 5214TIP3    H237202   3.620   1.741   0.300 -2.0661  1.9724  0.2829
 5215TIP3   OH237203   2.906   6.119   7.998  0.0164  0.0809 -0.3880
 5215TIP3    H137204   2.910   6.071   7.915  0.1906  1.4255 -1.1916
 5215TIP3    H237205   2.897   6.211   7.972  0.6081  0.5884  1.0880
 5216TIP3   OH237206   4.628   3.264   0.033  0.2923 -0.1014  0.2075
 5216TIP3    H137207   4.660   3.287  -0.054  0.1407  3.4358  0.9321
 5216TIP3    H237208   4.634   3.169   0.036  1.3670 -0.2907 -3.2247
 5217TIP3   OH237209   3.147   3.770   1.562  0.7675 -0.4555 -0.2105
 5217TIP3    H137210   3.084   3.827   1.518  3.1383  1.7441 -1.0288
 5217TIP3    H237211   3.209   3.745   1.494  1.5276 -1.4622  0.8148
 5218TIP3   OH237212   3.791   0.421   8.674  1.0411 -0.3757  0.6628
 5218TIP3    H137213   3.850   0.432   8.748 -0.1361 -0.2469  1.6005
 5218TIP3    H237214   3.819   0.488   8.611  1.5466  0.0414  1.3190
 5219TIP3   OH237215   1.365   1.877   0.069 -0.5723 -0.5023 -0.4528
 5219TIP3    H137216   1.441   1.872   0.011 -0.8333  0.4702 -0.9037
 5219TIP3    H237217   1.399   1.854   0.155  0.3562  0.4374 -0.5502
 5220TIP3   OH237218   4.422   0.915   6.956 -0.3246  0.7517 -0.4032
 5220TIP3    H137219   4.494   0.892   6.897 -0.4492  1.5353 -0.8675
 5220TIP3    H237220   4.363   0.968   6.903 -1.2633  0.1067 -0.0356
 5221TIP3   OH237221   4.565   6.500   7.496  0.0627 -0.0651 -0.4462
 5221TIP3    H137222   4.512   6.432   7.453 -0.5177 -1.5731  2.4092
 5221TIP3    H237223   4.502   6.549   7.549  1.0435  0.3279  0.3689
 5222TIP3   OH237224   4.301   6.514   1.193 -0.3346 -0.2100  0.1933
 5222TIP3    H137225   4.311   6.437   1.137 -1.2514 -1.8955  2.1967
 5222TIP3    H237226   4.374   6.571   1.169  0.1885 -1.5372 -1.5909
 5223TIP3   OH237227   5.510   5.985   0.602 -0.0597  0.0810  0.6491
 5223TIP3    H137228   5.451   6.060   0.609  0.3007  0.5065 -0.6700
 5223TIP3    H237229   5.537   5.968   0.693  0.5835  2.1266  0.8978
 5224TIP3   OH237230   0.417   1.364   2.514  0.4965  0.5466 -0.1770
 5224TIP3    H137231   0.472   1.393   2.441  1.5626 -0.1551  0.3237
 5224TIP3    H237232   0.375   1.444   2.545  1.1259  1.0794 -0.6672
 5225TIP3   OH237233   4.647   1.532   8.600  0.3918 -0.8333 -0.3720
 5225TIP3    H137234   4.574   1.551   8.660 -1.6778 -2.4626 -2.2069
 5225TIP3    H237235   4.678   1.618   8.573 -1.1895 -0.0613  0.1192
 5226TIP3   OH237236   4.766   5.529   2.039  0.1673 -0.0577 -0.0482
 5226TIP3    H137237   4.823   5.507   1.965  2.1079 -2.4298  1.9747
 5226TIP3    H237238   4.819   5.586   2.094 -1.0540  1.2394 -0.1608
 5227TIP3   OH237239   1.310   5.981   0.160  0.0998 -0.2955  0.3613
 5227TIP3    H137240   1.320   5.970   0.255  1.7302 -0.1221  0.2337
 5227TIP3    H237241   1.237   5.923   0.137 -2.2511  1.7671  2.0915
 5228TIP3   OH237242   0.669   0.897   1.328  0.8511 -0.3026 -0.0998
 5228TIP3    H137243   0.576   0.906   1.351  1.0902  0.5417  0.6053
 5228TIP3    H237244   0.670   0.895   1.233  0.1870  0.9086 -0.1648
 5229TIP3   OH237245   3.346   3.017   7.881 -0.3887 -0.4089 -0.4785
 5229TIP3    H137246   3.378   3.078   7.947 -1.5206 -1.0881  0.7305
 5229TIP3    H237247   3.421   2.959   7.864  0.3309  0.5861 -0.8085
 5230TIP3   OH237248   2.377   1.250   2.678  0.7373  0.1013 -0.3149
 5230TIP3    H137249   2.326   1.185   2.726 -0.1149 -0.4416 -1.8981
 5230TIP3    H237250   2.460   1.206   2.659  1.3714  0.5638  1.2012
 5231TIP3   OH237251   6.493   5.028   1.655 -0.1800  0.8013  0.0479
 5231TIP3    H137252   6.421   5.083   1.624 -1.5187 -2.4457 -3.2217
 5231TIP3    H237253   6.563   5.043   1.592  0.9120  1.5259  1.3746
 5232TIP3   OH237254   5.576   0.138   7.851 -0.5281  0.2349 -0.1163
 5232TIP3    H137255   5.544   0.048   7.863  2.6745 -1.4604 -2.6438
 5232TIP3    H237256   5.594   0.169   7.940  1.4314 -3.0092  0.7999
 5233TIP3   OH237257   2.052   0.392   2.220  0.0968 -0.5381 -0.3138
 5233TIP3    H137258   1.982   0.456   2.237 -0.6242 -1.1033 -1.0966
 5233TIP3    H237259   2.113   0.438   2.162 -0.0535 -0.3383 -0.3153
 5234TIP3   OH237260   2.211   5.346   2.160 -0.3111  0.6275 -0.1796
 5234TIP3    H137261   2.202   5.318   2.251  0.8251  0.4157 -0.1247
 5234TIP3    H237262   2.148   5.418   2.151 -0.5125  0.5769  0.7390
 5235TIP3   OH237263   4.014   3.624   2.036  0.4591  0.2490  0.0101
 5235TIP3    H137264   4.023   3.646   2.128  0.5457 -0.1615  0.1046
 5235TIP3    H237265   3.920   3.624   2.020  0.4716  3.0479 -0.6010
 5236TIP3   OH237266   2.091   3.875   0.155 -0.2551 -0.2685 -0.6692
 5236TIP3    H137267   2.077   3.782   0.140 -1.6103 -0.2022  0.0011
 5236TIP3    H237268   2.147   3.903   0.083 -0.1880 -1.4987 -1.1228
 5237TIP3   OH237269   4.311   3.722   2.124  0.1372  0.4092  0.4107
 5237TIP3    H137270   4.319   3.813   2.153 -2.4642  0.7456  0.3443
 5237TIP3    H237271   4.284   3.674   2.202 -0.7378  0.1430 -0.0415
 5238TIP3   OH237272   0.692   2.605   2.325 -0.0641 -0.1579 -0.0652
 5238TIP3    H137273   0.619   2.646   2.279 -1.0624 -0.4368  1.2274
 5238TIP3    H237274   0.693   2.515   2.293 -0.8895 -0.4098  0.5912
 5239TIP3   OH237275   6.063   3.816   0.535 -0.2952  0.3360  0.3854
 5239TIP3    H137276   6.152   3.842   0.558 -0.1134 -1.3051  1.8050
 5239TIP3    H237277   6.058   3.825   0.440  0.0670  4.1737  0.5812
 5240TIP3   OH237278   6.067   5.975   7.524  0.3922 -0.1377  0.3548
 5240TIP3    H137279   5.984   6.012   7.554 -0.5846 -1.3784 -0.7228
 5240TIP3    H237280   6.055   5.963   7.430  1.0325 -2.1900  0.4917
 5241TIP3   OH237281   5.059   2.701   0.157 -0.3634 -0.0645  0.3799
 5241TIP3    H137282   5.054   2.749   0.240  0.4738  1.4854 -0.4138
 5241TIP3    H237283   5.153   2.692   0.141 -0.5220 -0.4073 -0.3717
 5242TIP3   OH237284   3.388   0.682   7.764  0.0460 -0.1698 -0.0201
 5242TIP3    H137285   3.325   0.694   7.693 -0.6922 -1.5217  0.3700
 5242TIP3    H237286   3.338   0.704   7.843  0.8548  1.3082  0.1131
 5243TIP3   OH237287   4.819   1.005   0.941  1.0459  0.5013  0.0466
 5243TIP3    H137288   4.907   0.974   0.966  1.3180  1.0468 -0.2123
 5243TIP3    H237289   4.800   0.959   0.860  1.0329  0.2751  0.1771
 5244TIP3   OH237290   0.084   3.476   1.724  0.4797 -0.3350  0.1098
 5244TIP3    H137291   0.062   3.487   1.816  0.6943  0.2632  0.0903
 5244TIP3    H237292   0.087   3.381   1.711  4.4616 -0.6184  1.6941
 5245TIP3   OH237293   4.009   4.929   2.145  0.1917  0.1759  0.3177
 5245TIP3    H137294   4.013   5.012   2.192  1.1817  0.0530  0.4715
 5245TIP3    H237295   3.993   4.953   2.054  3.4750  0.7788 -0.2276
 5246TIP3   OH237296   6.041   5.251   9.039 -0.4190 -0.0957  0.0211
 5246TIP3    H137297   5.956   5.231   9.077 -0.2486 -0.0125  0.4614
 5246TIP3    H237298   6.022   5.287   8.953 -0.7718 -1.1915 -0.3699
 5247TIP3   OH237299   4.459   3.420   0.182  0.2581  0.2001 -0.4898
 5247TIP3    H137300   4.365   3.413   0.162  0.2015  2.0281 -1.0212
 5247TIP3    H237301   4.498   3.345   0.136 -0.8208 -0.0146 -1.1011
 5248TIP3   OH237302   3.044   6.067   8.231 -0.3904 -0.2622  0.1722
 5248TIP3    H137303   3.036   6.064   8.136  1.2648  0.2070 -0.0096
 5248TIP3    H237304   3.090   5.986   8.255  0.3064  0.2050  0.4364
 5249TIP3   OH237305   3.813   5.345   9.014  0.1916 -0.5732 -0.1980
 5249TIP3    H137306   3.793   5.262   9.058  1.0011 -1.4648 -1.4389
 5249TIP3    H237307   3.779   5.412   9.073 -1.3574 -1.8072  0.3776
 5250TIP3   OH237308   0.506   3.433   7.678 -0.7708  0.3989  0.2322
 5250TIP3    H137309   0.547   3.422   7.593 -1.3372  1.3486 -0.1778
 5250TIP3    H237310   0.575   3.413   7.741 -0.0401  0.7642 -0.4488
 5251TIP3   OH237311   4.144   5.471   2.455  0.1555  0.4785  0.2172
 5251TIP3    H137312   4.136   5.405   2.523 -0.2529 -0.7991 -1.0244
 5251TIP3    H237313   4.239   5.478   2.440  0.1521 -1.8292 -1.4472
 5252TIP3   OH237314   0.579   4.483   0.281 -0.6640 -0.2365  1.0539
 5252TIP3    H137315   0.674   4.485   0.276 -0.5077 -1.5457  2.5265
 5252TIP3    H237316   0.560   4.445   0.367 -2.5371  1.6131  1.5453
 5253TIP3   OH237317   5.449   5.829   7.414 -0.2914 -0.2169  0.1918
 5253TIP3    H137318   5.472   5.848   7.323  0.7536  0.2210  0.5300
 5253TIP3    H237319   5.490   5.745   7.432  0.3368  0.1540  0.5362
 5254TIP3   OH237320   3.874   4.437   2.435  0.3073 -0.1292  0.0192
 5254TIP3    H137321   3.939   4.467   2.499  0.8153 -0.1279 -0.4909
 5254TIP3    H237322   3.852   4.516   2.385  0.6540 -0.3190 -0.4491
 5255TIP3   OH237323   2.264   1.916   8.078 -0.4496 -0.1568 -0.2898
 5255TIP3    H137324   2.295   1.836   8.119 -1.3748 -0.4744 -0.1839
 5255TIP3    H237325   2.196   1.887   8.017  1.3092  0.2159 -2.5784
 5256TIP3   OH237326   3.171   4.540   7.707  0.5410 -0.2847 -0.1972
 5256TIP3    H137327   3.149   4.495   7.625 -0.0823  1.8350 -1.2669
 5256TIP3    H237328   3.267   4.544   7.706  0.5860 -1.1939 -0.2891
 5257TIP3   OH237329   0.805   5.391   1.672 -0.1973  0.0592 -0.0698
 5257TIP3    H137330   0.813   5.306   1.715 -0.7539 -0.0092 -0.0866
 5257TIP3    H237331   0.735   5.379   1.608  0.2341  0.3213 -0.6038
 5258TIP3   OH237332   3.185   0.127   0.833 -0.0706 -0.2250 -0.3286
 5258TIP3    H137333   3.145   0.065   0.772 -0.5855 -2.7289  2.3207
 5258TIP3    H237334   3.264   0.157   0.788 -0.9947 -1.0178 -2.6502
 5259TIP3   OH237335   4.821   5.908   0.837  0.3260 -0.1340  0.5116
 5259TIP3    H137336   4.750   5.843   0.846 -0.4090  0.4858 -0.5242
 5259TIP3    H237337   4.826   5.924   0.743  1.7376 -0.0241  0.5978
 5260TIP3   OH237338   5.229   4.592   0.063 -0.3327  0.0172  0.4584
 5260TIP3    H137339   5.316   4.592   0.024 -0.1963  0.3624  0.7548
 5260TIP3    H237340   5.220   4.507   0.105 -0.2938 -0.1705  0.0887
 5261TIP3   OH237341   0.728   1.843   0.105 -0.2071  0.6677  0.3989
 5261TIP3    H137342   0.787   1.810   0.038 -0.6008  0.8446 -0.0402
 5261TIP3    H237343   0.783   1.857   0.182  0.2841  0.6661  0.0472
 5262TIP3   OH237344   3.846   0.983   0.227 -0.3448 -0.5601  0.0969
 5262TIP3    H137345   3.785   1.047   0.191  0.9501  0.3608 -0.5038
 5262TIP3    H237346   3.932   1.023   0.218  0.3442 -1.7078  1.2028
 5263TIP3   OH237347   6.520   3.513   0.637 -0.4250 -0.0690  0.2802
 5263TIP3    H137348   6.460   3.553   0.701 -2.5862 -2.1317 -0.2898
 5263TIP3    H237349   6.586   3.468   0.690  0.3873  1.8120  0.9368
 5264TIP3   OH237350   0.171   6.603   8.664  0.5098  0.5850 -0.2642
 5264TIP3    H137351   0.132   6.659   8.730  1.2091 -0.3058  0.9482
 5264TIP3    H237352   0.163   6.514   8.699  1.3605  0.1383 -1.1328
 5265TIP3   OH237353   4.818   3.116   7.602 -0.1311  0.0929  0.2106
 5265TIP3    H137354   4.851   3.202   7.628  0.1967 -0.1027  0.4468
 5265TIP3    H237355   4.831   3.061   7.679 -1.6031  0.1704  0.5397
 5266TIP3   OH237356   3.082   3.473   8.093  0.1722 -0.0247 -0.2935
 5266TIP3    H137357   3.093   3.546   8.153  0.3401 -1.3183  1.3442
 5266TIP3    H237358   2.993   3.442   8.109  0.6346 -1.1452  0.2146
 5267TIP3   OH237359   2.509   4.215   2.793 -0.0618 -0.0481  0.3601
 5267TIP3    H137360   2.447   4.246   2.726 -0.2028 -0.9196  0.0801
 5267TIP3    H237361   2.587   4.190   2.744 -0.3857 -1.2691  0.4390
 5268TIP3   OH237362   0.802   1.287   2.176 -0.2755  0.3120 -0.5050
 5268TIP3    H137363   0.741   1.215   2.191 -0.2207  0.2932 -0.3726
 5268TIP3    H237364   0.874   1.271   2.237  0.3766 -0.2492 -1.4038
 5269TIP3   OH237365   0.141   6.431   7.961  0.4750 -0.4685  0.4130
 5269TIP3    H137366   0.171   6.341   7.946 -1.1756 -1.2660  1.6433
 5269TIP3    H237367   0.204   6.467   8.023  0.9698 -0.8692  0.1546
 5270TIP3   OH237368   0.238   1.463   8.920 -0.1773  0.4872 -0.1006
 5270TIP3    H137369   0.308   1.401   8.901  0.4903  1.0250  0.5305
 5270TIP3    H237370   0.191   1.473   8.838 -1.2292 -1.9665  0.1061
 5271TIP3   OH237371   3.729   5.175   7.923  0.2532 -0.6997  0.7025
 5271TIP3    H137372   3.653   5.117   7.921  0.3042 -0.7558  0.4170
 5271TIP3    H237373   3.722   5.227   7.843 -1.7306  2.2040  2.5658
 5272TIP3   OH237374   1.209   6.063   0.862  0.2777  0.3879 -0.1951
 5272TIP3    H137375   1.277   6.113   0.817  0.8720  0.3681  0.6474
 5272TIP3    H237376   1.239   6.059   0.953 -0.1892 -0.7583 -0.0734
 5273TIP3   OH237377   5.175   6.422   0.454 -0.0283  0.3788  0.5851
 5273TIP3    H137378   5.141   6.441   0.366  1.2590 -1.1058 -0.2603
 5273TIP3    H237379   5.120   6.475   0.512 -1.5396  0.6572 -1.0189
 5274TIP3   OH237380   0.427   2.394   1.222  0.1370  0.2838 -0.0344
 5274TIP3    H137381   0.362   2.337   1.181 -1.7615  0.5798  2.3998
 5274TIP3    H237382   0.510   2.369   1.180 -1.4182 -0.2848 -3.0547
 5275TIP3   OH237383   3.903   5.565   0.872  0.0600  0.3914 -0.1235
 5275TIP3    H137384   3.869   5.653   0.858 -0.7048 -0.1663 -2.1599
 5275TIP3    H237385   3.886   5.519   0.790 -0.0137 -1.8126  1.0412
 5276TIP3   OH237386   3.218   2.104   1.985 -0.1419  0.6287  0.1956
 5276TIP3    H137387   3.207   2.199   1.981  1.6316  0.8317 -0.3354
 5276TIP3    H237388   3.311   2.090   1.970  0.0516 -1.0602  2.4727
 5277TIP3   OH237389   2.565   1.052   2.303 -0.1562 -0.0766  0.5973
 5277TIP3    H137390   2.567   1.091   2.391 -2.0450 -1.1707  1.1938
 5277TIP3    H237391   2.471   1.046   2.283  0.2442  0.1673 -1.5305
 5278TIP3   OH237392   2.934   3.523   1.344 -0.1598 -0.4217  0.1234
 5278TIP3    H137393   2.893   3.605   1.372 -1.1105 -1.2468  1.2538
 5278TIP3    H237394   2.952   3.536   1.251  0.1177  1.2225  0.3772
 5279TIP3   OH237395   4.778   3.607   8.752  0.3618  0.6095 -0.0672
 5279TIP3    H137396   4.778   3.559   8.834 -0.9022  1.4937  0.4908
 5279TIP3    H237397   4.820   3.690   8.773 -1.0396  1.3305  0.0390
 5280TIP3   OH237398   5.091   0.892   1.977 -0.3358 -0.3687  0.0251
 5280TIP3    H137399   5.048   0.957   2.032  1.3251  1.9719 -1.2535
 5280TIP3    H237400   5.100   0.935   1.891  0.2230 -2.5635 -1.1002
 5281TIP3   OH237401   6.411   1.563   2.352  0.6380 -0.1057 -0.4506
 5281TIP3    H137402   6.365   1.637   2.393 -0.1553 -0.5213 -0.5767
 5281TIP3    H237403   6.455   1.519   2.425  1.7204  0.8845 -0.4600
 5282TIP3   OH237404   0.313   6.142   7.331  0.1279 -0.1740  0.0317
 5282TIP3    H137405   0.259   6.168   7.256  1.2282  0.7140 -0.4864
 5282TIP3    H237406   0.403   6.159   7.302  0.5575  0.4609  1.6646
 5283TIP3   OH237407   6.662   6.361   9.025  0.3467 -0.6566  0.3026
 5283TIP3    H137408   6.695   6.433   8.972 -0.9566  0.3651  0.8215
 5283TIP3    H237409   6.739   6.306   9.043  1.2949  0.4166 -0.3697
 5284TIP3   OH237410   1.380   5.126   1.459 -0.2835 -0.1817 -0.0263
 5284TIP3    H137411   1.394   5.211   1.417 -2.8871  0.2367 -0.1934
 5284TIP3    H237412   1.444   5.068   1.418 -0.1281  1.1245 -1.7361
 5285TIP3   OH237413   2.051   4.651   2.514  0.1737  0.0025  0.1944
 5285TIP3    H137414   2.007   4.608   2.587 -0.0300 -0.0265  0.0536
 5285TIP3    H237415   1.985   4.708   2.476  0.2334 -0.0996 -0.0665
 5286TIP3   OH237416   0.887   4.363   0.547  0.0333 -0.5990  0.3775
 5286TIP3    H137417   0.844   4.367   0.462  0.9244  1.1275 -0.0259
 5286TIP3    H237418   0.963   4.307   0.533  0.5468  0.2183 -0.1473
 5287TIP3   OH237419   0.570   4.076   1.694 -0.2346  0.1390 -0.3041
 5287TIP3    H137420   0.500   4.073   1.759  0.7454  1.0551  0.8209
 5287TIP3    H237421   0.558   3.996   1.643 -2.2507  0.4094 -0.3166
 5288TIP3   OH237422   0.355   1.192   0.647 -0.7485  0.2721 -0.1776
 5288TIP3    H137423   0.384   1.249   0.718 -1.0540 -0.4411  0.5305
 5288TIP3    H237424   0.433   1.183   0.591  0.0245 -0.5354  0.9867
 5289TIP3   OH237425   6.298   5.759   0.305  0.7137  0.0474  0.2156
 5289TIP3    H137426   6.375   5.707   0.330  1.0971  1.1586  1.4752
 5289TIP3    H237427   6.230   5.694   0.287  2.1326 -1.0055 -1.7624
 5290TIP3   OH237428   2.629   3.487   7.912 -0.4474  0.3766  0.3465
 5290TIP3    H137429   2.653   3.403   7.873 -0.5729  0.5366 -0.0815
 5290TIP3    H237430   2.547   3.469   7.959  0.5949 -0.2245  2.0086
 5291TIP3   OH237431   5.007   1.852   0.982 -0.3091 -0.3997 -0.4589
 5291TIP3    H137432   5.009   1.757   0.968 -0.1855 -0.6797  1.2826
 5291TIP3    H237433   5.045   1.864   1.068  0.8965  1.3734 -1.1901
 5292TIP3   OH237434   6.676   6.724   8.486  0.1862 -0.1103 -0.5708
 5292TIP3    H137435   6.607   6.669   8.524  0.0743  0.6798  0.3955
 5292TIP3    H237436   6.723   6.759   8.561  0.2097  1.1759 -1.1706
 5293TIP3   OH237437   1.394   2.352   8.602  0.2896  0.1260 -0.3193
 5293TIP3    H137438   1.465   2.323   8.659  0.8845 -2.6359 -2.2533
 5293TIP3    H237439   1.433   2.419   8.546  0.2389  1.3857  1.0876
 5294TIP3   OH237440   3.876   0.708   8.892  0.0065  0.7318  0.7119
 5294TIP3    H137441   3.902   0.759   8.968 -1.9400  1.3053  1.0480
 5294TIP3    H237442   3.791   0.671   8.916  0.5899 -1.3546 -0.1569
 5295TIP3   OH237443   0.650   0.169   7.786  0.0279  0.1030 -0.4951
 5295TIP3    H137444   0.603   0.152   7.868 -1.1748  0.1261 -1.1741
 5295TIP3    H237445   0.684   0.083   7.760  0.7417  0.1553  0.2026
 5296TIP3   OH237446   4.086   5.952   0.085  0.3747 -0.0444  0.0219
 5296TIP3    H137447   4.014   5.948   0.023  0.6703 -1.2124 -0.2772
 5296TIP3    H237448   4.163   5.928   0.033  0.9018  0.7389  0.4378
 5297TIP3   OH237449   0.361   6.097   1.315 -0.0196 -0.5150 -0.3782
 5297TIP3    H137450   0.363   6.021   1.258  0.4430  0.1585 -1.2908
 5297TIP3    H237451   0.388   6.170   1.259 -1.0712  0.4333  0.2870
 5298TIP3   OH237452   6.652   2.566   0.159  0.3118  0.1156  0.1749
 5298TIP3    H137453   6.605   2.633   0.209 -0.7052  0.3594 -1.0706
 5298TIP3    H237454   6.632   2.484   0.204  0.7546  0.5047  1.1215
 5299TIP3   OH237455   4.440   4.180   0.510 -0.2805  0.0410  0.3657
 5299TIP3    H137456   4.354   4.222   0.515 -0.4294 -0.2844  0.5820
 5299TIP3    H237457   4.470   4.176   0.601 -0.8059 -1.4103  0.5019
 5300TIP3   OH237458   4.285   3.108   0.882 -0.3662 -0.3574  0.6151
 5300TIP3    H137459   4.339   3.187   0.877 -1.2264  0.2884  1.2610
 5300TIP3    H237460   4.344   3.041   0.918  0.5539 -0.2075 -0.5436
 5301TIP3   OH237461   5.150   5.620   1.891 -0.1927 -0.1213 -0.2488
 5301TIP3    H137462   5.144   5.576   1.807  0.4936 -0.1987 -0.2669
 5301TIP3    H237463   5.220   5.686   1.879 -1.8036  1.6252 -0.5018
 5302TIP3   OH237464   0.990   6.101   7.471 -0.0209  0.8979  0.2404
 5302TIP3    H137465   0.946   6.069   7.392 -0.0061 -0.4409  0.7423
 5302TIP3    H237466   0.962   6.040   7.540  0.8849  1.3430  1.0214
 5303TIP3   OH237467   1.269   5.604   7.841 -0.0920  0.0164 -0.0155
 5303TIP3    H137468   1.212   5.529   7.825 -0.7769  0.2855  0.9843
 5303TIP3    H237469   1.291   5.638   7.754  2.2659 -2.7673 -0.6428
 5304TIP3   OH237470   4.282   6.032   2.426 -0.4249 -0.8389  0.1348
 5304TIP3    H137471   4.240   6.034   2.512  0.6291  0.8842  0.6504
 5304TIP3    H237472   4.374   6.016   2.444 -0.1504 -0.2296 -0.6584
 5305TIP3   OH237473   4.150   1.428   7.745  0.7468 -0.6193  0.4601
 5305TIP3    H137474   4.203   1.485   7.689  1.0276 -0.4527  0.8969
 5305TIP3    H237475   4.209   1.359   7.772  0.3891 -1.1725 -0.1262
 5306TIP3   OH237476   3.232   0.330   1.475  0.3050 -0.3210 -0.1806
 5306TIP3    H137477   3.197   0.342   1.563  2.3619  1.4961  0.4539
 5306TIP3    H237478   3.230   0.235   1.461 -0.6868 -0.5880  1.5183
 5307TIP3   OH237479   2.623   2.017   8.464  0.2788 -0.1945 -0.3000
 5307TIP3    H137480   2.654   2.000   8.375  1.2986  0.1592 -0.0248
 5307TIP3    H237481   2.648   1.940   8.514 -0.7610 -0.6234 -0.4210
 5308TIP3   OH237482   1.057   1.438   9.005 -0.1807 -0.2303 -0.1685
 5308TIP3    H137483   1.089   1.402   9.088  0.2802 -0.3126 -0.3791
 5308TIP3    H237484   0.995   1.372   8.973 -0.2140 -0.2882  0.0142
 5309TIP3   OH237485   2.075   6.493   8.258 -0.0798 -0.0719  0.1527
 5309TIP3    H137486   1.995   6.535   8.291  0.4103  0.2457  0.9740
 5309TIP3    H237487   2.045   6.411   8.218 -0.9197  0.4958 -0.4205
 5310TIP3   OH237488   6.445   0.945   1.955 -0.8095 -0.6624  0.1172
 5310TIP3    H137489   6.485   0.917   2.038 -0.8460 -2.1499 -0.3474
 5310TIP3    H237490   6.517   0.986   1.907 -0.9468  0.8840  1.1352
 5311TIP3   OH237491   2.732   3.218   8.865 -0.6417  0.4241  0.4810
 5311TIP3    H137492   2.658   3.179   8.911 -0.5615  1.9419  1.9904
 5311TIP3    H237493   2.799   3.149   8.864 -1.3420 -0.2720  0.9589
 5312TIP3   OH237494   4.210   6.148   0.765 -0.1651  0.1818 -0.0417
 5312TIP3    H137495   4.304   6.153   0.784 -0.4258 -1.8526  2.2099
 5312TIP3    H237496   4.205   6.144   0.670  1.7919  3.2575 -0.4171
 5313TIP3   OH237497   5.817   5.867   0.176  0.0114 -0.2598 -0.6699
 5313TIP3    H137498   5.845   5.847   0.265 -0.5463 -1.4825 -0.7506
 5313TIP3    H237499   5.730   5.905   0.186 -0.4841 -1.3663 -0.7580
 5314TIP3   OH237500   5.230   6.065   1.174 -0.0956 -0.6447 -0.5531
 5314TIP3    H137501   5.169   6.014   1.121  1.6161 -0.8091 -2.5252
 5314TIP3    H237502   5.305   6.079   1.116  1.3398  0.3481  1.4306
 5315TIP3   OH237503   5.102   5.844   7.201 -0.7193 -0.1037 -0.1194
 5315TIP3    H137504   5.097   5.877   7.111  1.4904 -2.9637 -1.4376
 5315TIP3    H237505   5.146   5.760   7.194 -0.9788 -0.7384  3.6322
 5316TIP3   OH237506   0.463   0.918   0.397  0.3929 -0.2910 -0.3167
 5316TIP3    H137507   0.392   0.899   0.458  0.8956  0.3793  0.5033
 5316TIP3    H237508   0.425   0.979   0.334  0.1591 -0.1571 -0.0479
 5317TIP3   OH237509   2.394   3.907   1.410  0.7494  0.2287  0.8298
 5317TIP3    H137510   2.321   3.947   1.459  1.3188  1.8957  0.3914
 5317TIP3    H237511   2.354   3.878   1.328  0.7426  2.4274 -0.0406
 5318TIP3   OH237512   5.068   2.425   2.135 -0.2506 -0.6920 -0.0032
 5318TIP3    H137513   5.131   2.462   2.073 -0.1739  0.0326  0.4972
 5318TIP3    H237514   5.105   2.341   2.160 -0.0659 -0.7920 -0.6097
 5319TIP3   OH237515   5.982   6.003   7.257  0.7715  0.3471  0.5845
 5319TIP3    H137516   6.029   6.063   7.200 -0.5251  3.0133  2.0871
 5319TIP3    H237517   5.894   5.997   7.218  0.6235  0.1739  0.9381
 5320TIP3   OH237518   3.418   5.728   2.174  0.6371 -0.1515 -0.0850
 5320TIP3    H137519   3.380   5.747   2.088 -0.6045 -0.7133  0.3199
 5320TIP3    H237520   3.343   5.731   2.234  1.4119 -0.2566  0.9064
 5321TIP3   OH237521   0.242   5.781   8.982 -0.3141  0.6194  0.1142
 5321TIP3    H137522   0.295   5.747   8.910 -0.0648  1.9613 -0.3588
 5321TIP3    H237523   0.259   5.875   8.983 -3.0183  1.1832 -0.3317
 5322TIP3   OH237524   3.682   3.132   8.189  0.0351  0.0854  0.3151
 5322TIP3    H137525   3.639   3.217   8.178 -0.5475 -0.3174 -0.6731
 5322TIP3    H237526   3.618   3.079   8.237  0.5367  0.2917  1.2408
 5323TIP3   OH237527   1.787   3.599   2.479 -0.4162 -0.4829 -0.1282
 5323TIP3    H137528   1.873   3.576   2.444 -1.0182 -1.2429 -1.1897
 5323TIP3    H237529   1.760   3.521   2.528 -1.4173 -1.1722 -1.6792
 5324TIP3   OH237530   4.201   5.758   8.240 -0.2532 -0.1188  0.0330
 5324TIP3    H137531   4.113   5.788   8.263 -1.2494 -0.9518 -2.3904
 5324TIP3    H237532   4.199   5.664   8.259 -0.1950 -0.2968 -0.8067
 5325TIP3   OH237533   3.065   0.443   2.068 -0.4505  0.1016  0.4666
 5325TIP3    H137534   3.159   0.429   2.079 -0.2404  1.6188  0.7650
 5325TIP3    H237535   3.026   0.355   2.078  1.0195 -0.7459 -0.9243
 5326TIP3   OH237536   3.625   6.112   8.926 -0.4217  0.1115 -0.1582
 5326TIP3    H137537   3.687   6.147   8.990 -0.0857 -1.0833  0.1876
 5326TIP3    H237538   3.542   6.153   8.949 -0.1949  0.0880  0.7129
 5327TIP3   OH237539   3.983   1.476   1.293  0.2384  0.0475 -0.3808
 5327TIP3    H137540   3.959   1.387   1.318 -0.7126  0.0660 -1.1629
 5327TIP3    H237541   4.072   1.468   1.259 -0.2672 -0.8367 -1.5676
 5328TIP3   OH237542   2.980   4.243   1.177  1.0440  0.1867  0.5479
 5328TIP3    H137543   2.897   4.278   1.209  2.0681  0.6622  2.9424
 5328TIP3    H237544   3.016   4.313   1.121  1.0415  1.1571  1.7093
 5329TIP3   OH237545   1.727   5.250   1.430  0.0623 -0.1484 -0.3054
 5329TIP3    H137546   1.703   5.238   1.522  0.1334 -0.1595 -0.2883
 5329TIP3    H237547   1.811   5.206   1.421  0.5371  0.6859 -0.1336
 5330TIP3   OH237548   4.032   2.778   2.330 -0.2358 -0.5071 -0.0090
 5330TIP3    H137549   4.123   2.799   2.310 -0.0036 -0.9898  0.5083
 5330TIP3    H237550   4.035   2.687   2.361 -0.6252  0.0292  1.7117
 5331TIP3   OH237551   4.526   4.921   0.451 -0.3222  0.4894  0.0786
 5331TIP3    H137552   4.480   4.871   0.518  1.5945  0.6454  1.5925
 5331TIP3    H237553   4.508   5.012   0.473 -1.4786  0.5450 -0.9804
 5332TIP3   OH237554   1.928   2.117   8.882  0.5647  0.2750  0.2180
 5332TIP3    H137555   1.981   2.157   8.812  1.4432  0.0774  0.7492
 5332TIP3    H237556   1.897   2.191   8.934 -1.1378  0.5205 -1.0609
 5333TIP3   OH237557   6.605   1.018   7.233 -0.4670 -0.1411 -0.8057
 5333TIP3    H137558   6.531   1.001   7.292 -0.6200 -1.3438 -1.3044
 5333TIP3    H237559   6.566   1.020   7.146  0.1324 -1.3369 -1.1310
 5334TIP3   OH237560   5.734   1.375   8.091  0.3170 -0.4019  0.5422
 5334TIP3    H137561   5.767   1.324   8.017 -1.1602 -0.3378 -0.1890
 5334TIP3    H237562   5.681   1.314   8.141  0.4014 -0.1549  0.9349
 5335TIP3   OH237563   0.148   2.015   8.524 -0.0203 -0.5695 -0.4656
 5335TIP3    H137564   0.180   1.937   8.570 -1.1278 -1.8194 -1.7635
 5335TIP3    H237565   0.056   1.997   8.506 -0.1722  0.8346 -1.2494
 5336TIP3   OH237566   0.265   6.060   1.582 -0.6690  0.4241 -0.4540
 5336TIP3    H137567   0.300   6.055   1.493 -0.4541 -1.3887 -0.2974
 5336TIP3    H237568   0.176   6.094   1.571 -1.3552 -1.5706 -1.5968
 5337TIP3   OH237569   0.283   3.841   0.270 -0.5141 -0.4632 -0.1532
 5337TIP3    H137570   0.261   3.913   0.210 -0.8389 -0.7398 -0.3668
 5337TIP3    H237571   0.371   3.815   0.244  0.7485  1.6413  1.6761
 5338TIP3   OH237572   6.386   0.873   1.701 -0.4736 -0.5909 -0.7491
 5338TIP3    H137573   6.368   0.911   1.786  0.8001  0.8507 -1.0898
 5338TIP3    H237574   6.419   0.785   1.720 -0.2019 -0.2827  0.2354
 5339TIP3   OH237575   2.141   6.650   7.288  0.0089  0.2333 -0.0958
 5339TIP3    H137576   2.127   6.680   7.198 -0.6382  1.5882  0.4325
 5339TIP3    H237577   2.067   6.686   7.337  1.1992  0.8801  1.2812
 5340TIP3   OH237578   2.590   2.518   1.323 -0.8241 -0.1676 -0.3377
 5340TIP3    H137579   2.563   2.487   1.237 -1.1609  0.5572 -0.4979
 5340TIP3    H237580   2.547   2.459   1.385 -0.7704 -0.5427 -0.6529
 5341TIP3   OH237581   5.211   0.450   1.474 -0.6588 -0.2452  1.0506
 5341TIP3    H137582   5.148   0.390   1.513 -1.9835  1.2111  1.2237
 5341TIP3    H237583   5.295   0.403   1.478 -1.7071 -2.2071  0.8255
 5342TIP3   OH237584   4.131   5.379   8.746 -0.0850 -0.1779 -0.1539
 5342TIP3    H137585   4.172   5.293   8.757  0.3039  0.0276 -0.0193
 5342TIP3    H237586   4.081   5.370   8.664 -0.1536 -0.5740 -0.0738
 5343TIP3   OH237587   6.435   3.901   8.250 -0.2379 -0.3996 -0.4554
 5343TIP3    H137588   6.455   3.813   8.281 -1.5404 -0.1104  1.3336
 5343TIP3    H237589   6.402   3.947   8.327 -3.1802  0.5410 -2.1222
 5344TIP3   OH237590   5.261   4.132   8.346  0.5494 -0.1335  0.0351
 5344TIP3    H137591   5.227   4.205   8.398  0.2423 -0.1007 -0.2073
 5344TIP3    H237592   5.269   4.167   8.257  0.7645 -0.2828 -0.0053
 5345TIP3   OH237593   2.356   1.393   7.349 -0.2573 -0.1386  0.0064
 5345TIP3    H137594   2.340   1.301   7.329 -0.2934 -0.6693  2.2779
 5345TIP3    H237595   2.279   1.421   7.397 -0.3771  1.1965 -0.9117
 5346TIP3   OH237596   3.717   3.264   7.775  0.0417  0.5146  0.9204
 5346TIP3    H137597   3.743   3.235   7.863  0.3507 -1.2011  0.3033
 5346TIP3    H237598   3.635   3.217   7.758 -0.2152  1.1286  0.4300
 5347TIP3   OH237599   2.254   0.033   2.059 -0.1602  0.2388  0.0900
 5347TIP3    H137600   2.305   0.111   2.082  0.3366  0.0705 -0.4014
 5347TIP3    H237601   2.191   0.063   1.994  1.8157 -0.2442 -2.2014
 5348TIP3   OH237602   1.822   5.629   2.025  0.4631 -0.1518 -0.4023
 5348TIP3    H137603   1.881   5.704   2.029 -1.5709  1.5331  0.7114
 5348TIP3    H237604   1.823   5.601   1.934  1.9768  0.6441 -0.6466
 5349TIP3   OH237605   1.769   1.015   9.021  0.0186 -0.2047  0.1995
 5349TIP3    H137606   1.799   1.106   9.025  0.6054 -0.3887  0.0723
 5349TIP3    H237607   1.726   1.007   8.936  1.9174 -0.6226 -0.7638
 5350TIP3   OH237608   2.274   6.091   0.495  0.2237 -0.2549 -0.7372
 5350TIP3    H137609   2.332   6.152   0.451 -1.6622  1.3101 -1.2070
 5350TIP3    H237610   2.245   6.137   0.573 -1.3312 -0.4628 -1.1580
 5351TIP3   OH237611   1.151   3.672   7.755 -0.6271 -0.0426 -0.6042
 5351TIP3    H137612   1.103   3.638   7.679  1.9669 -0.7503 -2.0608
 5351TIP3    H237613   1.180   3.759   7.728 -1.6920  0.7146  0.5708
 5352TIP3   OH237614   1.284   0.063   8.573 -0.2495 -0.3329  0.1659
 5352TIP3    H137615   1.282  -0.029   8.547  0.5727 -0.6024  0.9797
 5352TIP3    H237616   1.375   0.078   8.601 -0.1359  0.9727 -0.7877
 5353TIP3   OH237617   0.033   2.163   7.931 -0.2334  0.3008 -0.3543
 5353TIP3    H137618   0.125   2.138   7.941 -0.1210  0.7753 -0.1971
 5353TIP3    H237619   0.026   2.191   7.840  0.3957  2.7345  0.2756
 5354TIP3   OH237620   1.724   6.207   7.440  0.0772  0.1437 -0.5224
 5354TIP3    H137621   1.693   6.117   7.443 -0.5923  0.3870  0.1661
 5354TIP3    H237622   1.647   6.258   7.413 -0.2910  0.8044  1.5960
 5355TIP3   OH237623   4.406   5.146   0.767  0.4036  0.3480  0.3389
 5355TIP3    H137624   4.356   5.115   0.692 -0.4945  0.6338  0.8108
 5355TIP3    H237625   4.401   5.075   0.831 -0.9954  1.1092  1.1143
 5356TIP3   OH237626   4.548   6.383   1.015  0.3012  0.5973  0.0951
 5356TIP3    H137627   4.641   6.359   1.011 -0.0178 -0.8025  0.5755
 5356TIP3    H237628   4.503   6.315   0.966 -0.3681  2.1351 -1.5421
 5357TIP3   OH237629   3.270   3.774   2.682  0.0130 -0.2134 -0.7114
 5357TIP3    H137630   3.309   3.845   2.631 -0.1831 -1.4139 -2.6308
 5357TIP3    H237631   3.179   3.803   2.697  0.8555  1.5252  1.7477
 5358TIP3   OH237632   6.608   2.858   8.273 -0.0068  0.5398 -0.1449
 5358TIP3    H137633   6.661   2.820   8.343 -1.7380 -1.4984  0.1427
 5358TIP3    H237634   6.659   2.840   8.193 -0.0203 -1.0654  0.1609
 5359TIP3   OH237635   5.959   5.549   0.616  0.1625 -0.1493 -0.0588
 5359TIP3    H137636   5.874   5.591   0.607 -0.6987 -1.3133  1.8772
 5359TIP3    H237637   5.979   5.514   0.529 -1.3479  0.1230 -0.5368
 5360TIP3   OH237638   6.077   5.650   1.567 -1.0616 -0.7028 -0.0616
 5360TIP3    H137639   6.085   5.743   1.591 -2.5705 -0.3980 -0.6544
 5360TIP3    H237640   6.058   5.606   1.650 -0.6665 -0.4501  0.1716
 5361TIP3   OH237641   2.880   2.630   8.322 -0.3510 -0.0586  0.5279
 5361TIP3    H137642   2.814   2.686   8.281  1.0961  2.0217  0.8847
 5361TIP3    H237643   2.944   2.691   8.360  0.2875 -1.9364  2.7247
 5362TIP3   OH237644   1.186   6.399   0.995  0.3730 -0.0072  0.6912
 5362TIP3    H137645   1.250   6.418   0.927  1.8949 -1.1045  1.7631
 5362TIP3    H237646   1.234   6.408   1.077 -1.8001  2.8239  1.7890
 5363TIP3   OH237647   4.010   6.558   2.135  0.7139 -0.3782 -0.5758
 5363TIP3    H137648   3.921   6.581   2.160  0.4988 -0.1653 -1.4756
 5363TIP3    H237649   4.059   6.641   2.142  0.6136 -0.2799 -1.0100
 5364TIP3   OH237650   2.429   5.106   0.126  0.2236  0.3859  0.1996
 5364TIP3    H137651   2.510   5.059   0.146 -0.1673 -0.3328  0.1081
 5364TIP3    H237652   2.452   5.199   0.138  0.3908  0.0988  2.6133
 5365TIP3   OH237653   5.963   6.318   0.104 -0.5699  0.3057 -0.0653
 5365TIP3    H137654   5.993   6.242   0.054 -0.4130  0.6018 -0.4303
 5365TIP3    H237655   5.957   6.388   0.039 -2.4143  0.1798 -0.0682
 5366TIP3   OH237656   3.899   4.926   1.589 -0.4524  0.0293  0.2557
 5366TIP3    H137657   3.896   4.958   1.498  0.4304 -0.6616 -0.0267
 5366TIP3    H237658   3.814   4.883   1.602  0.1783 -1.7289 -0.9736
 5367TIP3   OH237659   0.339   3.571   1.755 -0.3200  0.2075 -0.0381
 5367TIP3    H137660   0.396   3.496   1.769  0.4500  1.0658  1.7080
 5367TIP3    H237661   0.253   3.542   1.785  0.5431  0.8271  3.5018
 5368TIP3   OH237662   3.600   3.481   7.658 -0.1261  0.0143  0.0996
 5368TIP3    H137663   3.658   3.538   7.708  0.8124 -0.9213  0.0987
 5368TIP3    H237664   3.629   3.392   7.679 -1.3076 -0.4683 -0.2024
 5369TIP3   OH237665   1.422   3.574   1.671  0.1672  0.1851 -0.1141
 5369TIP3    H137666   1.373   3.492   1.670 -0.4044  0.4940 -1.8637
 5369TIP3    H237667   1.434   3.595   1.578  1.9371  1.1251  0.2928
 5370TIP3   OH237668   6.453   2.064   7.587  0.5348  0.4624 -0.2207
 5370TIP3    H137669   6.505   2.136   7.622  2.0479 -1.2933  1.3251
 5370TIP3    H237670   6.458   2.076   7.492  0.1672  2.7338 -0.0141
 5371TIP3   OH237671   1.782   4.083   1.007  0.2967 -0.5946 -0.3154
 5371TIP3    H137672   1.748   3.995   1.022  1.2340 -1.3428 -2.2643
 5371TIP3    H237673   1.748   4.108   0.921 -0.2155  1.1134  0.3292
 5372TIP3   OH237674   5.081   0.919   0.974  0.5291 -0.0113 -0.3698
 5372TIP3    H137675   5.159   0.926   1.028  1.0948 -0.7893 -1.0702
 5372TIP3    H237676   5.105   0.859   0.904 -0.2613  0.7942 -1.3632
 5373TIP3   OH237677   3.668   6.209   1.849  0.3945  0.1827 -0.0054
 5373TIP3    H137678   3.605   6.137   1.860  0.0744 -0.3390 -3.8057
 5373TIP3    H237679   3.730   6.176   1.784  1.5856  2.5417 -0.1723
 5374TIP3   OH237680   3.768   1.294   8.969 -0.4075 -0.6498 -0.2510
 5374TIP3    H137681   3.756   1.291   9.064  0.1990 -2.3291 -0.1929
 5374TIP3    H237682   3.684   1.264   8.933 -1.9143  3.1952 -0.4569
 5375TIP3   OH237683   4.888   6.414   8.692 -0.3790 -0.3479 -0.1668
 5375TIP3    H137684   4.827   6.473   8.648 -0.9759 -0.6442  0.2537
 5375TIP3    H237685   4.859   6.413   8.784  0.8272  0.2361  0.2387
 5376TIP3   OH237686   0.406   5.307   3.549 -0.7553  0.0031 -0.5785
 5376TIP3    H137687   0.449   5.364   3.485  0.1936  1.9510  1.6276
 5376TIP3    H237688   0.318   5.295   3.515 -0.4570  1.4159 -1.9836
 5377TIP3   OH237689   2.646   4.155   1.157  0.4090 -0.2075  0.1296
 5377TIP3    H137690   2.688   4.201   1.084  0.8971 -2.5411 -1.1575
 5377TIP3    H237691   2.560   4.130   1.123  0.4416 -0.8856  0.5392
 5378TIP3   OH237692   2.178   0.578   9.028 -0.1969  0.0445  0.4931
 5378TIP3    H137693   2.213   0.582   8.939 -0.7643 -2.1570  0.1004
 5378TIP3    H237694   2.104   0.638   9.027  0.0508  0.3524 -0.3997
 5379TIP3   OH237695   0.362   2.993   1.050  0.0423  0.8153 -0.6318
 5379TIP3    H137696   0.301   3.021   0.982 -2.5068 -1.6799  0.4102
 5379TIP3    H237697   0.395   2.909   1.019  0.2539  0.5205  0.3706
 5380TIP3   OH237698   5.064   3.713   0.353 -0.3058  0.3462 -0.4570
 5380TIP3    H137699   5.002   3.640   0.351  0.1217 -0.0407  0.1316
 5380TIP3    H237700   5.049   3.756   0.437  0.4373  0.0499 -0.1596
 5381TIP3   OH237701   1.108   0.332   8.730 -0.3828 -0.1495 -0.4078
 5381TIP3    H137702   1.136   0.279   8.804 -0.2303  1.2845  0.5989
 5381TIP3    H237703   1.189   0.355   8.684 -0.2263  0.9158  0.3662
 5382TIP3   OH237704   5.396   5.655   0.913 -0.1597 -0.5267  0.6334
 5382TIP3    H137705   5.307   5.681   0.889 -0.0840  0.4631  1.3969
 5382TIP3    H237706   5.400   5.562   0.890 -1.6213 -0.7685  1.2581
 5383TIP3   OH237707   4.878   1.066   0.151  0.9121  0.7230 -0.4645
 5383TIP3    H137708   4.959   1.114   0.171  1.5292 -0.3170 -0.4324
 5383TIP3    H237709   4.821   1.084   0.226  1.7173  0.1359  0.3032
 5384TIP3   OH237710   2.023   0.304   1.627 -0.3234 -0.2716  0.1586
 5384TIP3    H137711   2.075   0.301   1.546 -0.4639  2.2882 -0.0990
 5384TIP3    H237712   2.052   0.384   1.671 -1.4334 -0.7549  1.8471
 5385TIP3   OH237713   3.376   0.054   8.809 -0.1076  0.6308 -0.0674
 5385TIP3    H137714   3.393   0.117   8.880 -1.3304 -1.0024  1.7945
 5385TIP3    H237715   3.386  -0.031   8.851  0.5974 -0.4470 -2.2877
 5386TIP3   OH237716   5.087   6.317   0.767 -0.0123 -0.0309  0.0088
 5386TIP3    H137717   5.040   6.234   0.772  1.4650 -1.2476 -3.2934
 5386TIP3    H237718   5.020   6.381   0.744 -0.8507 -0.6915  0.5355
 5387TIP3   OH237719   4.895   3.842   9.047 -0.4718  0.1815 -0.4471
 5387TIP3    H137720   4.806   3.850   9.080 -0.2933  1.8106 -0.2520
 5387TIP3    H237721   4.885   3.841   8.952 -0.7024  0.4603 -0.4280
 5388TIP3   OH237722   6.044   1.537   2.357  0.5135  0.0509  0.3356
 5388TIP3    H137723   5.981   1.601   2.323  0.7485  0.6071  0.9341
 5388TIP3    H237724   6.108   1.528   2.287 -0.0887 -0.3227 -0.1745
 5389TIP3   OH237725   5.626   5.184   2.173  0.5069 -0.3379  0.1768
 5389TIP3    H137726   5.685   5.109   2.172  0.8885 -0.0478  0.5546
 5389TIP3    H237727   5.604   5.199   2.081  1.4581 -0.1065 -0.0264
 5390TIP3   OH237728   3.428   4.009   0.163  0.6837 -0.1172  0.4323
 5390TIP3    H137729   3.354   3.976   0.214  1.0259  1.3600  1.9315
 5390TIP3    H237730   3.442   4.098   0.195  0.4297  1.2164 -2.7577
 5391TIP3   OH237731   6.687   3.198   1.941 -0.6399  0.5022 -0.2699
 5391TIP3    H137732   6.628   3.145   1.995  0.4160 -1.3562 -0.8537
 5391TIP3    H237733   6.636   3.217   1.863 -0.5033 -1.1739 -0.8196
 5392TIP3   OH237734   2.569   4.278   7.818  0.6133 -0.1203  0.1029
 5392TIP3    H137735   2.498   4.339   7.802 -0.5373 -1.6685 -0.9109
 5392TIP3    H237736   2.630   4.293   7.746  0.9151  0.6006  0.4942
 5393TIP3   OH237737   2.892   0.197   0.195  0.2258  0.2023 -0.1242
 5393TIP3    H137738   2.918   0.113   0.231 -0.2293  0.1280  0.0314
 5393TIP3    H237739   2.928   0.197   0.106 -0.2234 -0.3742 -0.3072
 5394TIP3   OH237740   2.498   4.755   8.422  0.0483 -0.3998  0.2387
 5394TIP3    H137741   2.578   4.703   8.413  0.0076 -0.2517 -1.1633
 5394TIP3    H237742   2.508   4.825   8.358 -0.5261  0.5198  1.1337
 5395TIP3   OH237743   1.505   4.571   8.085 -0.1962 -0.8723 -0.4535
 5395TIP3    H137744   1.599   4.550   8.085 -0.2426 -1.0857 -0.4836
 5395TIP3    H237745   1.494   4.633   8.157  0.3793  1.0507 -1.9182
 5396TIP3   OH237746   0.076   0.874   1.085  0.1165  0.5474 -0.4628
 5396TIP3    H137747   0.028   0.815   1.026 -1.6439  0.3863  1.0233
 5396TIP3    H237748   0.007   0.924   1.130  1.3514  0.6501  1.4504
 5397TIP3   OH237749   3.344   3.726   1.387  0.1473  0.0656  0.4576
 5397TIP3    H137750   3.333   3.681   1.303  0.8901 -0.2814  0.5428
 5397TIP3    H237751   3.432   3.762   1.384 -0.6650  2.1556  0.1050
 5398TIP3   OH237752   0.532   6.585   2.379  0.4592 -0.3230  0.4638
 5398TIP3    H137753   0.551   6.671   2.342  1.5973 -1.3243 -1.3725
 5398TIP3    H237754   0.439   6.571   2.359  0.4972  0.1022 -0.0349
 5399TIP3   OH237755   5.746   2.413   8.085 -0.7867 -0.0714 -0.2887
 5399TIP3    H137756   5.665   2.462   8.072 -1.4255 -1.0972 -0.2791
 5399TIP3    H237757   5.788   2.413   8.000 -0.8367  0.3738 -0.3191
 5400TIP3   OH237758   5.770   3.779   7.457 -0.7329 -0.1298 -0.0978
 5400TIP3    H137759   5.678   3.753   7.445 -0.2396 -2.2775  0.3028
 5400TIP3    H237760   5.778   3.792   7.552 -0.7528  0.7151 -0.2026
 5401TIP3   OH237761   1.050   3.669   0.336  0.6079 -0.1601 -0.0299
 5401TIP3    H137762   0.989   3.629   0.274  1.2471 -2.5143  0.7486
 5401TIP3    H237763   0.997   3.735   0.381 -1.7152 -2.6253  1.1545
 5402TIP3   OH237764   5.630   0.174   2.337 -0.7010  0.7713 -0.5281
 5402TIP3    H137765   5.665   0.261   2.321  1.6489 -0.4032 -2.6366
 5402TIP3    H237766   5.694   0.133   2.396 -2.5561  0.8564  1.6710
 5403TIP3   OH237767   5.776   0.721   2.817 -0.0267  0.3788  0.0262
 5403TIP3    H137768   5.763   0.641   2.867 -2.0124  1.1288  0.7773
 5403TIP3    H237769   5.688   0.751   2.795  0.7142  1.5643 -1.5549
 5404TIP3   OH237770   2.587   4.127   8.636  0.0565  0.2707 -0.2360
 5404TIP3    H137771   2.495   4.100   8.644  0.4852 -1.2111 -0.0782
 5404TIP3    H237772   2.635   4.069   8.695  1.0801  1.2268 -0.0841
 5405TIP3   OH237773   5.578   0.602   2.611  0.2976 -0.7163  0.0677
 5405TIP3    H137774   5.529   0.537   2.662  1.3472  0.0456  2.1820
 5405TIP3    H237775   5.549   0.686   2.646  1.1983 -0.1618 -0.4754
 5406TIP3   OH237776   2.052   4.574   0.540  0.0002 -0.1475 -0.3243
 5406TIP3    H137777   1.971   4.621   0.517  0.4339  0.3880 -0.7877
 5406TIP3    H237778   2.073   4.604   0.628  0.9854  1.5866 -1.0883
 5407TIP3   OH237779   4.662   6.042   0.143 -0.0104 -0.2584 -0.0428
 5407TIP3    H137780   4.649   6.129   0.181 -0.0325 -0.0610 -0.4910
 5407TIP3    H237781   4.658   5.982   0.217  0.8697  0.2013  0.3991
 5408TIP3   OH237782   1.894   0.230   8.067 -0.2159  0.1723  0.2933
 5408TIP3    H137783   1.923   0.312   8.107  0.0727 -0.7733  2.0839
 5408TIP3    H237784   1.884   0.169   8.140 -1.1533 -1.1926 -0.9172
 5409TIP3   OH237785   3.773   4.696   8.709 -0.5281  0.1432 -0.1042
 5409TIP3    H137786   3.755   4.789   8.694  0.0863  0.5444  1.4535
 5409TIP3    H237787   3.827   4.670   8.635 -0.7128  1.0230 -0.5655
 5410TIP3   OH237788   5.807   0.988   0.031  0.7742  0.1850  0.0805
 5410TIP3    H137789   5.756   0.909   0.014  0.8821 -0.4904  2.4915
 5410TIP3    H237790   5.854   1.005  -0.051 -1.6960 -0.3418 -1.5406
 5411TIP3   OH237791   3.529   0.838   2.888 -0.0386  0.5504  0.1114
 5411TIP3    H137792   3.470   0.785   2.834 -0.0096  0.0415  0.5777
 5411TIP3    H237793   3.493   0.833   2.976  1.1204 -0.4149  0.5615
 5412TIP3   OH237794   3.631   1.629   0.816  0.0280 -0.2392  0.2807
 5412TIP3    H137795   3.672   1.576   0.885  0.0366 -0.6345 -0.0264
 5412TIP3    H237796   3.555   1.667   0.859 -0.3680 -1.0480  0.3266
 5413TIP3   OH237797   0.945   1.181   7.254 -0.9836  0.0663  0.3340
 5413TIP3    H137798   0.965   1.110   7.315 -0.1943 -0.8340 -0.9271
 5413TIP3    H237799   0.852   1.170   7.234 -0.5676 -1.4899 -0.8993
 5414TIP3   OH237800   5.813   5.897   2.463 -0.4692  0.1870 -0.8376
 5414TIP3    H137801   5.805   5.989   2.435 -1.1285 -0.2148 -2.0068
 5414TIP3    H237802   5.907   5.880   2.458 -0.0300  1.4368  1.5839
 5415TIP3   OH237803   3.104   0.836   1.259  0.1828 -0.0355  0.0318
 5415TIP3    H137804   3.087   0.773   1.190 -0.0639 -3.2427  2.7756
 5415TIP3    H237805   3.175   0.797   1.310  0.0180  1.9131  1.8979
 5416TIP3   OH237806   1.278   4.884   0.166  0.1620 -0.4315 -0.0678
 5416TIP3    H137807   1.300   4.962   0.116 -1.2702  0.0872  0.0816
 5416TIP3    H237808   1.234   4.827   0.103 -0.7192 -0.2079  0.3300
 5417TIP3   OH237809   0.474   3.480   1.443  0.0340 -0.3524 -0.4591
 5417TIP3    H137810   0.473   3.421   1.518 -0.3386  0.3194  0.0784
 5417TIP3    H237811   0.565   3.484   1.417  0.1757 -0.5554 -0.0123
 5418TIP3   OH237812   0.030   0.596   7.599  0.3587  0.0757  0.3251
 5418TIP3    H137813   0.079   0.627   7.523  1.6399  0.7628  1.3733
 5418TIP3    H237814   0.065   0.508   7.616  0.9207  0.3662  0.7625
 5419TIP3   OH237815   2.202   6.044   2.764 -0.0481  0.2948 -0.2394
 5419TIP3    H137816   2.170   5.956   2.742 -0.0157  0.2560 -0.1313
 5419TIP3    H237817   2.207   6.044   2.859  1.6758 -0.1910 -0.3044
 5420TIP3   OH237818   1.430   0.723   8.840 -0.3509  0.0721 -0.1820
 5420TIP3    H137819   1.340   0.754   8.837 -0.1440  0.6505 -0.8049
 5420TIP3    H237820   1.447   0.689   8.752 -0.0781 -0.3781  0.0384
 5421TIP3   OH237821   6.311   4.098   8.981  0.0608  0.2665  0.5851
 5421TIP3    H137822   6.387   4.048   9.011  0.3087  0.6387  0.5709
 5421TIP3    H237823   6.267   4.039   8.920  0.1198 -0.1013  0.8898
 5422TIP3   OH237824   3.176   5.427   2.053 -0.1812 -0.2844  0.5427
 5422TIP3    H137825   3.260   5.464   2.026 -0.3544  1.8763  2.5801
 5422TIP3    H237826   3.112   5.495   2.030 -1.3613 -1.7428 -0.6557
 5423TIP3   OH237827   1.032   1.177   0.401 -0.2298 -0.1140  0.3864
 5423TIP3    H137828   0.969   1.109   0.378 -0.2081  0.0147 -0.0531
 5423TIP3    H237829   1.106   1.129   0.439 -1.0509 -0.1878  1.9710
 5424TIP3   OH237830   5.630   0.949   7.718 -0.0931  0.3181  0.6959
 5424TIP3    H137831   5.630   0.854   7.727 -2.6676  0.3988  2.7338
 5424TIP3    H237832   5.568   0.966   7.647  0.2332  0.5010  0.4494
 5425TIP3   OH237833   1.493   1.800   8.944 -0.0934  0.0921 -0.1586
 5425TIP3    H137834   1.536   1.873   8.899  2.7201 -1.7575 -0.7327
 5425TIP3    H237835   1.537   1.722   8.909 -2.6629 -1.8732  0.7498
 5426TIP3   OH237836   5.392   0.051   8.903 -0.2665  0.3726  0.2980
 5426TIP3    H137837   5.319   0.060   8.964  0.9150  0.4382  1.7508
 5426TIP3    H237838   5.449  -0.014   8.943  0.9304  0.9872 -0.3469
 5427TIP3   OH237839   3.562   4.328   1.433 -0.1291  0.1793  0.5390
 5427TIP3    H137840   3.645   4.281   1.443 -0.4949 -0.2745  1.5532
 5427TIP3    H237841   3.521   4.322   1.519 -2.6027 -2.2326 -0.6727
 5428TIP3   OH237842   3.665   3.591   8.015  0.0908  0.0985 -0.2972
 5428TIP3    H137843   3.638   3.681   7.995 -2.0303 -1.0139 -2.9994
 5428TIP3    H237844   3.729   3.570   7.948  1.7648  0.0011  1.2506
 5429TIP3   OH237845   2.732   2.680   1.839 -0.1735 -0.2023 -0.4097
 5429TIP3    H137846   2.731   2.585   1.853 -0.7781 -0.0790  0.4844
 5429TIP3    H237847   2.722   2.690   1.745  0.2181 -1.0349 -0.5486
 5430TIP3   OH237848   4.848   3.440   0.122  0.4950 -0.1880 -0.3956
 5430TIP3    H137849   4.939   3.438   0.151  0.9486 -0.7132 -1.7540
 5430TIP3    H237850   4.827   3.348   0.103 -0.5314 -0.1558  0.4851
 5431TIP3   OH237851   3.686   2.524   1.598 -0.2839  0.0171  0.1082
 5431TIP3    H137852   3.622   2.569   1.543 -1.2557 -1.0289  0.3387
 5431TIP3    H237853   3.633   2.466   1.653  0.9131 -1.4851 -0.2718
 5432TIP3   OH237854   0.218   6.040   3.468  0.1589  0.0261  0.3589
 5432TIP3    H137855   0.189   5.960   3.423 -0.6846  0.0202  0.8878
 5432TIP3    H237856   0.292   6.012   3.522  0.0686 -0.3341  0.2976
 5433TIP3   OH237857   5.986   6.477   8.987  0.0016 -0.0063 -0.0164
 5433TIP3    H137858   5.983   6.453   8.894  0.4937 -0.9539  0.2007
 5433TIP3    H237859   5.921   6.547   8.996 -1.3662 -1.1311 -0.7270
 5434TIP3   OH237860   6.089   5.308   1.470 -0.1538 -0.8034  0.7514
 5434TIP3    H137861   6.103   5.395   1.433 -0.1324 -1.6461 -1.3902
 5434TIP3    H237862   5.996   5.306   1.492 -0.7517 -1.0049 -1.5240
 5435TIP3   OH237863   1.819   2.518   7.703  0.4489  0.3645 -0.1750
 5435TIP3    H137864   1.906   2.502   7.740 -0.3991 -0.1565  1.7134
 5435TIP3    H237865   1.780   2.430   7.696 -0.0398  0.6204 -0.7016
 5436TIP3   OH237866   0.867   6.080   0.190  0.3120 -0.2225 -0.4281
 5436TIP3    H137867   0.908   6.049   0.271  1.3865  0.2628 -0.7767
 5436TIP3    H237868   0.869   6.005   0.132  0.8815 -0.1410 -0.5111
 5437TIP3   OH237869   4.858   0.860   2.383  0.3239 -0.6564 -0.3815
 5437TIP3    H137870   4.939   0.879   2.336 -0.2644  0.0177 -1.1763
 5437TIP3    H237871   4.877   0.882   2.474  1.4341 -1.8117 -0.3132
 5438TIP3   OH237872   0.820   0.806   2.213  0.0371  0.2553  0.1128
 5438TIP3    H137873   0.811   0.892   2.172  0.6654 -0.5686 -1.8772
 5438TIP3    H237874   0.891   0.817   2.277  1.0646  0.9052 -1.0971
 5439TIP3   OH237875   4.700   5.371   9.073  0.1912  0.0838  0.2139
 5439TIP3    H137876   4.689   5.466   9.081 -0.3187 -0.0751  1.6685
 5439TIP3    H237877   4.780   5.360   9.021 -0.2922  1.2969 -0.8274
 5440TIP3   OH237878   5.048   1.443   7.996  0.0836  0.4415 -0.6130
 5440TIP3    H137879   5.129   1.461   7.948  0.5641 -0.3388 -0.1176
 5440TIP3    H237880   5.005   1.373   7.946  0.1422  0.2590 -0.4118
 5441TIP3   OH237881   1.712   6.522   1.542 -0.4742 -0.1622 -0.0767
 5441TIP3    H137882   1.688   6.446   1.595  0.6296  0.4088  1.3177
 5441TIP3    H237883   1.731   6.590   1.606  0.5465  0.6785 -1.2329
 5442TIP3   OH237884   6.195   6.085   0.676  0.3127  0.5823 -0.6247
 5442TIP3    H137885   6.242   6.132   0.607  0.2930  0.3894 -0.7693
 5442TIP3    H237886   6.185   6.150   0.746 -0.8206  1.1772 -1.3135
 5443TIP3   OH237887   6.501   2.798   1.598 -0.0040  0.2073 -0.6468
 5443TIP3    H137888   6.575   2.740   1.614 -0.2002 -0.0961 -0.8443
 5443TIP3    H237889   6.465   2.769   1.514 -0.1690  0.5419 -0.6928
 5444TIP3   OH237890   5.941   2.730   8.024  0.6241  0.0628  0.1323
 5444TIP3    H137891   5.846   2.728   8.031  0.4407  0.4604 -1.7507
 5444TIP3    H237892   5.964   2.645   7.986  0.8857  0.4531 -0.6030
 5445TIP3   OH237893   1.086   4.878   2.138  0.1908 -0.3396  0.3677
 5445TIP3    H137894   1.155   4.912   2.195  2.2539 -0.7457 -1.6925
 5445TIP3    H237895   1.134   4.836   2.066 -2.2153  0.1743 -1.6739
 5446TIP3   OH237896   6.145   3.496   7.914 -0.1086  0.1437 -0.9816
 5446TIP3    H137897   6.118   3.454   7.996 -2.6551  2.0552 -0.7047
 5446TIP3    H237898   6.238   3.514   7.926 -0.3959  0.3079  1.4856
 5447TIP3   OH237899   0.752   1.222   1.469 -0.2883  0.1448  0.3571
 5447TIP3    H137900   0.788   1.134   1.482 -1.1581 -0.3263 -0.3397
 5447TIP3    H237901   0.687   1.232   1.538 -1.7572 -0.6362 -0.8685
 5448TIP3   OH237902   6.083   0.653   0.197 -0.6520 -0.7409  0.1883
 5448TIP3    H137903   6.123   0.737   0.177 -0.4114 -0.9957 -0.4121
 5448TIP3    H237904   6.009   0.647   0.136  0.3910 -1.7504 -1.0416
 5449TIP3   OH237905   0.104   1.069   1.436  0.2816  0.2414  0.3598
 5449TIP3    H137906   0.152   0.987   1.425 -2.2140 -1.2360 -0.4921
 5449TIP3    H237907   0.055   1.057   1.517 -0.6856  0.5351 -0.1649
 5450TIP3   OH237908   5.707   6.101   0.464  0.4521 -0.1709  0.3236
 5450TIP3    H137909   5.748   6.015   0.454  0.1377 -0.3816  0.8251
 5450TIP3    H237910   5.615   6.082   0.478 -0.2125  0.3360 -2.5843
 5451TIP3   OH237911   5.096   6.399   0.202  0.3936  0.1557 -0.3432
 5451TIP3    H137912   5.065   6.466   0.141  1.0951 -0.2110 -1.1204
 5451TIP3    H237913   5.188   6.387   0.180  0.7292  0.1638  0.9438
 5452TIP3   OH237914   4.763   1.481   0.179 -0.0174 -0.2649  0.4225
 5452TIP3    H137915   4.763   1.456   0.271  1.7010  1.1019  0.8487
 5452TIP3    H237916   4.678   1.522   0.165  0.1025  0.4503  1.6835
 5453TIP3   OH237917   2.806   0.371   0.552 -0.4793  0.2020  0.4797
 5453TIP3    H137918   2.803   0.335   0.641  1.5265  0.3773  0.6577
 5453TIP3    H237919   2.889   0.418   0.547 -0.8175  0.7142 -1.3167
 5454TIP3   OH237920   4.088   2.932   7.454 -0.2330 -0.1008  0.1679
 5454TIP3    H137921   4.009   2.961   7.409 -0.0516  1.1766  0.6103
 5454TIP3    H237922   4.136   2.882   7.388 -0.6777  0.4524 -0.5976
 5455TIP3   OH237923   1.169   0.983   7.029 -0.2857  0.1117  0.1801
 5455TIP3    H137924   1.179   1.069   7.070 -3.9192  0.4994  0.5449
 5455TIP3    H237925   1.085   0.951   7.061 -0.2677 -2.4482 -2.0250
 5456TIP3   OH237926   1.780   1.620   2.285  0.1805  0.1603  0.5600
 5456TIP3    H137927   1.768   1.704   2.330 -1.4960  0.5543 -0.5160
 5456TIP3    H237928   1.743   1.555   2.345  0.4434  0.3327  0.9112
 5457TIP3   OH237929   4.688   1.547   7.310 -0.1861  0.1404  0.2641
 5457TIP3    H137930   4.753   1.602   7.267 -0.0039  0.7068  1.2363
 5457TIP3    H237931   4.714   1.458   7.288 -0.0857  0.4141 -0.7654
 5458TIP3   OH237932   3.486   2.816   8.804 -0.2091 -0.2951 -0.6624
 5458TIP3    H137933   3.554   2.842   8.866 -0.4854  0.6052 -0.7231
 5458TIP3    H237934   3.406   2.814   8.856 -0.4767  0.6576 -1.0134
 5459TIP3   OH237935   0.434   1.406   8.368  0.5586 -0.3858 -0.4648
 5459TIP3    H137936   0.490   1.345   8.319  0.6231  0.5116 -1.5544
 5459TIP3    H237937   0.480   1.490   8.361 -0.8402  0.3383 -1.2595
 5460TIP3   OH237938   5.675   5.123   8.087  0.0438 -0.3142  0.0090
 5460TIP3    H137939   5.766   5.100   8.074  0.4515  0.1977  1.7207
 5460TIP3    H237940   5.628   5.076   8.018  1.6331 -0.1824 -1.2072
 5461TIP3   OH237941   6.476   1.791   2.108 -0.4832 -0.1346 -0.0282
 5461TIP3    H137942   6.471   1.781   2.013  0.5302 -0.5532 -0.0510
 5461TIP3    H237943   6.411   1.858   2.129 -1.0617 -0.3902 -0.9565
 5462TIP3   OH237944   0.650   0.550   7.977 -0.1867  0.4017  0.0756
 5462TIP3    H137945   0.580   0.513   8.031  0.7169 -0.4856  0.6833
 5462TIP3    H237946   0.730   0.534   8.027  0.6160  0.1004 -1.2487
 5463TIP3   OH237947   0.981   5.273   8.334 -0.3367 -0.0387 -0.4041
 5463TIP3    H137948   1.059   5.328   8.340  0.3336 -0.7385 -2.0453
 5463TIP3    H237949   0.941   5.296   8.250 -1.9791  0.3797  0.4550
 5464TIP3   OH237950   2.332   4.266   8.998 -0.0398 -0.1700  0.0468
 5464TIP3    H137951   2.262   4.300   8.943  2.0625  2.3611 -1.2914
 5464TIP3    H237952   2.348   4.335   9.062  0.5264 -1.1762  1.0290
 5465TIP3   OH237953   1.114   1.583   8.753 -0.1946  0.2761 -0.1782
 5465TIP3    H137954   1.085   1.533   8.829 -2.2326  2.2737  0.4600
 5465TIP3    H237955   1.078   1.536   8.678  2.6029 -2.2406 -0.1648
 5466TIP3   OH237956   0.779   0.989   2.570  0.5837 -0.1518  0.2767
 5466TIP3    H137957   0.790   0.902   2.610 -0.8392 -0.0011  1.0656
 5466TIP3    H237958   0.843   1.044   2.615  1.1151 -0.6725  0.1675
 5467TIP3   OH237959   4.656   4.316   8.125 -0.4658 -0.0908 -0.1542
 5467TIP3    H137960   4.571   4.359   8.117 -1.0898 -0.5998  2.6499
 5467TIP3    H237961   4.681   4.296   8.035 -2.8421  0.9463 -1.1416
 5468TIP3   OH237962   3.339   3.711   1.744 -0.5931 -0.8874  0.1848
 5468TIP3    H137963   3.299   3.755   1.819 -0.0898 -1.5154  0.8346
 5468TIP3    H237964   3.269   3.705   1.679 -0.3449  2.0399 -0.4635
 5469TIP3   OH237965   4.804   2.631   0.261  0.2233  0.2714  0.2179
 5469TIP3    H137966   4.827   2.540   0.280 -0.0461  0.3893  1.1490
 5469TIP3    H237967   4.886   2.672   0.235  0.6080  0.0831  1.1003
 5470TIP3   OH237968   5.383   6.406   1.476 -0.1594  0.3066 -0.5456
 5470TIP3    H137969   5.311   6.401   1.413 -0.8842 -2.1480  0.3416
 5470TIP3    H237970   5.456   6.363   1.432 -1.1002 -2.8016  0.6837
 5471TIP3   OH237971   6.494   3.056   2.068 -0.2558  0.3649  0.0937
 5471TIP3    H137972   6.541   3.023   2.145  0.2990 -0.0106 -0.4013
 5471TIP3    H237973   6.504   2.987   2.002 -1.3285  0.3711 -0.0932
 5472TIP3   OH237974   6.396   6.073   2.750 -0.2252  1.0090  0.2649
 5472TIP3    H137975   6.365   6.026   2.828 -4.1548  0.7236 -1.2714
 5472TIP3    H237976   6.403   6.165   2.779 -0.3270  0.7127  1.2766
 5473TIP3   OH237977   2.308   0.352   3.460 -0.5660 -0.4592 -0.4346
 5473TIP3    H137978   2.318   0.290   3.388 -1.0977  0.0598 -0.9651
 5473TIP3    H237979   2.329   0.301   3.538  1.3451 -0.6733 -1.0490
 5474TIP3   OH237980   1.869   5.252   7.324 -0.0102 -0.3929  0.1683
 5474TIP3    H137981   1.951   5.300   7.310  0.7965 -1.6887  0.2954
 5474TIP3    H237982   1.889   5.162   7.298 -0.9554 -1.0488  1.5936
 5475TIP3   OH237983   0.258   0.095   7.229  0.2710  0.2065  0.2199
 5475TIP3    H137984   0.268   0.072   7.137 -0.3434  0.8629 -0.0218
 5475TIP3    H237985   0.332   0.153   7.248 -0.5184  1.4625 -0.3499
 5476TIP3   OH237986   1.570   3.356   8.134  0.8205  0.5297 -0.0408
 5476TIP3    H137987   1.661   3.385   8.139  2.0176 -2.2440 -2.4939
 5476TIP3    H237988   1.573   3.264   8.160 -1.1701  0.2174 -0.7377
 5477TIP3   OH237989   2.163   5.408   7.955  0.1713 -0.1684  0.4962
 5477TIP3    H137990   2.236   5.390   8.014 -0.3369 -0.4393  1.0595
 5477TIP3    H237991   2.139   5.499   7.972  1.4286  0.4630 -0.8862
 5478TIP3   OH237992   3.770   6.206   0.576 -0.1846 -0.0479  0.5527
 5478TIP3    H137993   3.789   6.157   0.496  3.2239  1.2287  0.3852
 5478TIP3    H237994   3.776   6.141   0.646 -0.0768 -0.6372  0.0100
 5479TIP3   OH237995   5.540   3.756   1.510 -0.6300 -0.0868  0.1574
 5479TIP3    H137996   5.534   3.825   1.577 -0.0531 -0.5911  0.7418
 5479TIP3    H237997   5.460   3.705   1.521 -0.3601 -0.3941  0.7205
 5480TIP3   OH237998   1.065   0.744   6.903  0.2643 -0.5525  0.2297
 5480TIP3    H137999   1.104   0.829   6.921 -0.1533 -0.6248  1.5737
 5480TIP3    H238000   0.971   0.758   6.914  0.3211 -1.6625  2.7221
 5481TIP3   OH238001   0.600   2.557   1.634 -0.1034 -0.4269 -0.3450
 5481TIP3    H138002   0.582   2.608   1.554 -0.1992 -0.4866 -0.3618
 5481TIP3    H238003   0.540   2.483   1.628 -2.1685  1.0220  1.1787
 5482TIP3   OH238004   4.677   5.562   2.514  0.1298  0.4958 -0.0125
 5482TIP3    H138005   4.744   5.596   2.454  0.3873 -0.1419 -0.1009
 5482TIP3    H238006   4.695   5.606   2.597 -0.2208  1.3767 -0.3963
 5483TIP3   OH238007   3.260   1.684   0.139  0.1189 -0.2539 -0.0647
 5483TIP3    H138008   3.251   1.722   0.226 -0.1708  1.8689 -0.9456
 5483TIP3    H238009   3.253   1.590   0.152 -2.0777  0.1048  1.9330
 5484TIP3   OH238010   5.806   5.781   9.012  0.2640 -0.1111  0.0477
 5484TIP3    H138011   5.815   5.826   9.096 -1.3027 -0.4443  0.4328
 5484TIP3    H238012   5.844   5.694   9.027 -1.6055 -0.8246  1.0260
 5485TIP3   OH238013   1.710   3.182   8.678 -0.2566  0.1867 -0.4608
 5485TIP3    H138014   1.626   3.179   8.633 -0.7988  0.7647  0.4739
 5485TIP3    H238015   1.755   3.258   8.641 -1.6375  2.0627  1.4846
 5486TIP3   OH238016   5.451   3.052   1.348 -0.0024  0.1012 -0.2232
 5486TIP3    H138017   5.464   2.966   1.308  0.0608 -0.5955  1.2530
 5486TIP3    H238018   5.357   3.068   1.340  0.0299  0.0455 -0.7696
 5487TIP3   OH238019   0.619   4.698   7.873 -0.3007  0.5237  0.2867
 5487TIP3    H138020   0.557   4.765   7.901  0.0867  1.5541 -1.1908
 5487TIP3    H238021   0.566   4.636   7.823 -0.0552  2.0415 -2.0265
 5488TIP3   OH238022   3.341   2.938   2.229 -0.3440 -0.8492 -0.7834
 5488TIP3    H138023   3.358   3.025   2.265 -0.3317 -0.2095 -2.2670
 5488TIP3    H238024   3.253   2.916   2.259 -0.2758 -0.4028 -0.2508
 5489TIP3   OH238025   5.971   1.234   7.391 -0.9286 -0.2680  0.0738
 5489TIP3    H138026   5.977   1.329   7.377 -1.9860 -0.1428  0.4141
 5489TIP3    H238027   5.931   1.200   7.312  0.4731 -0.5981 -0.5298
 5490TIP3   OH238028   6.376   1.567   8.824 -0.2277  0.3996 -0.0947
 5490TIP3    H138029   6.421   1.604   8.748  1.2661  1.0657  1.0611
 5490TIP3    H238030   6.414   1.480   8.834 -2.1330 -0.6731 -1.4657
 5491TIP3   OH238031   4.679   4.338   2.478 -0.0386  0.4811 -0.2196
 5491TIP3    H138032   4.688   4.288   2.558 -0.4828  0.5076 -0.1476
 5491TIP3    H238033   4.768   4.362   2.453  0.0317  1.5344  0.9431
 5492TIP3   OH238034   1.197   4.920   1.847  0.0061 -0.6025 -0.5630
 5492TIP3    H138035   1.204   5.001   1.796  2.8044 -1.5066 -1.8205
 5492TIP3    H238036   1.269   4.925   1.910 -1.7394 -0.7614  1.5732
 5493TIP3   OH238037   2.651   2.903   7.703  0.2720 -0.1555  0.0527
 5493TIP3    H138038   2.722   2.943   7.753 -0.9613 -0.3953  2.0738
 5493TIP3    H238039   2.608   2.977   7.660  0.7995  0.1616  0.0610
 5494TIP3   OH238040   4.428   5.523   2.448 -0.6329 -0.2091  0.1946
 5494TIP3    H138041   4.522   5.524   2.464 -0.2697 -1.4086 -1.5565
 5494TIP3    H238042   4.417   5.577   2.370 -1.2760 -0.7430 -0.0945
 5495TIP3   OH238043   3.311   4.624   0.930 -0.4133 -0.3668  0.4066
 5495TIP3    H138044   3.343   4.712   0.950  1.0547 -0.3048 -1.9382
 5495TIP3    H238045   3.358   4.567   0.991 -0.4564  0.3427  1.1144
 5496TIP3   OH238046   6.476   0.339   1.842 -0.4180  0.1181 -0.3326
 5496TIP3    H138047   6.409   0.276   1.814 -0.7431  0.3191 -0.0110
 5496TIP3    H238048   6.488   0.321   1.935  0.5170 -0.4150 -0.5478
 5497TIP3   OH238049   1.920   0.946   7.510 -0.0964 -0.1939  0.2352
 5497TIP3    H138050   1.834   0.927   7.471  0.1503  0.6659 -0.7753
 5497TIP3    H238051   1.968   0.993   7.441  0.7782  0.3569  1.1842
 5498TIP3   OH238052   2.122   1.053   1.845  0.6528 -0.8735 -0.8508
 5498TIP3    H138053   2.082   1.025   1.928  1.3571  2.9886  1.0130
 5498TIP3    H238054   2.052   1.099   1.799  1.7507  2.9981  0.9241
 5499TIP3   OH238055   1.370   0.010   7.394  0.6526  0.3470 -0.0995
 5499TIP3    H138056   1.345  -0.020   7.307 -0.3768  2.4961 -0.6335
 5499TIP3    H238057   1.308   0.081   7.413  1.0765  0.1726  2.2406
 5500TIP3   OH238058   6.295   3.483   8.716  0.0285 -0.0465  0.1473
 5500TIP3    H138059   6.324   3.523   8.798  0.3795  0.6491 -0.3059
 5500TIP3    H238060   6.353   3.408   8.704  0.3125  0.1517  0.2774
 5501TIP3   OH238061   1.672   3.335   0.053  0.1538  0.2775  0.2533
 5501TIP3    H138062   1.715   3.399   0.110  0.5850  1.8804 -1.7406
 5501TIP3    H238063   1.601   3.384   0.011 -0.7339 -1.1022  0.0861
 5502TIP3   OH238064   6.585   3.500   2.154  0.2439 -0.0215 -0.1084
 5502TIP3    H138065   6.511   3.455   2.194  1.5831 -0.8974  1.5025
 5502TIP3    H238066   6.620   3.556   2.223  0.6925  0.9190 -1.0530
 5503TIP3   OH238067   3.085   6.661   0.659  0.0086 -0.0862 -0.7813
 5503TIP3    H138068   3.031   6.664   0.580 -0.0741  0.1956 -0.7146
 5503TIP3    H238069   3.173   6.640   0.627 -0.1679 -0.6825 -0.8751
 5504TIP3   OH238070   3.258   1.606   1.313  0.0705 -0.1529  0.0823
 5504TIP3    H138071   3.210   1.688   1.303  2.0353  1.4273  2.3716
 5504TIP3    H238072   3.214   1.560   1.384  0.5091  0.1744  0.5714
 5505TIP3   OH238073   3.452   0.280   2.124 -0.1762 -0.4054  0.5825
 5505TIP3    H138074   3.387   0.248   2.187 -1.7782 -0.7826 -1.1673
 5505TIP3    H238075   3.423   0.369   2.104  0.2104 -0.3493  0.2717
 5506TIP3   OH238076   5.298   0.497   7.939  0.3323 -0.2016  0.4716
 5506TIP3    H138077   5.312   0.412   7.897  0.2383  0.3909 -0.8241
 5506TIP3    H238078   5.205   0.497   7.961  0.1298 -0.1071 -0.3354
 5507TIP3   OH238079   6.151   6.649   7.433  0.2555  0.3313 -0.1150
 5507TIP3    H138080   6.243   6.633   7.412  0.0822 -0.0364 -0.5988
 5507TIP3    H238081   6.104   6.573   7.398 -0.2164  0.4376  0.2693
 5508TIP3   OH238082   4.457   1.242   7.076 -0.4183 -0.1631 -0.0950
 5508TIP3    H138083   4.392   1.292   7.125 -0.0950 -0.5922  0.7973
 5508TIP3    H238084   4.406   1.189   7.016 -0.9072 -0.5660  0.6629
 5509TIP3   OH238085   2.773   6.281   2.517 -0.5140 -0.8993 -0.2333
 5509TIP3    H138086   2.862   6.312   2.500 -0.0002 -2.5510 -0.6879
 5509TIP3    H238087   2.751   6.318   2.603 -0.6660  2.1763 -1.4484
 5510TIP3   OH238088   5.221   6.076   6.751 -0.0853  0.1451  0.4046
 5510TIP3    H138089   5.313   6.075   6.726  0.0796 -0.8820  0.9874
 5510TIP3    H238090   5.196   6.169   6.752  0.5326  0.3470 -1.1920
 5511TIP3   OH238091   4.636   6.708   7.692 -0.0817  0.4567  0.0926
 5511TIP3    H138092   4.617   6.727   7.784  1.0276  0.0326  0.4264
 5511TIP3    H238093   4.553   6.677   7.656 -0.4311  0.2344  1.0565
 5512TIP3   OH238094   0.983   4.960   1.040 -0.0672 -0.2907 -0.2763
 5512TIP3    H138095   1.047   4.998   0.980 -1.1022  2.0687  0.0232
 5512TIP3    H238096   1.036   4.913   1.105  1.1374 -1.6351 -2.1224
 5513TIP3   OH238097   3.322   3.610   0.215  0.0005  0.1702  0.4859
 5513TIP3    H138098   3.326   3.530   0.162  0.7696  0.4068  0.1765
 5513TIP3    H238099   3.413   3.629   0.237 -0.2737  0.3398  1.5047
 5514TIP3   OH238100   3.587   4.582   7.253 -0.1367 -0.1068  0.1792
 5514TIP3    H138101   3.512   4.543   7.298 -2.0458  1.5041 -1.4202
 5514TIP3    H238102   3.561   4.673   7.237  2.0494  0.4261 -0.7237
 5515TIP3   OH238103   4.327   3.693   0.875 -0.1499  0.0046  0.3196
 5515TIP3    H138104   4.354   3.756   0.943 -0.1567  0.2785  0.0709
 5515TIP3    H238105   4.338   3.741   0.793  0.4190 -0.5219  0.0865
 5516TIP3   OH238106   1.363   0.027   0.473 -0.0669 -0.2467  0.1140
 5516TIP3    H138107   1.389  -0.059   0.442  0.9162  0.1525 -0.2245
 5516TIP3    H238108   1.268   0.022   0.482 -0.0115 -1.3791  0.1727
 5517TIP3   OH238109   4.670   2.134   6.892 -0.1097 -0.1701  0.5635
 5517TIP3    H138110   4.651   2.047   6.858 -1.0262  0.0102  0.5909
 5517TIP3    H238111   4.586   2.166   6.925 -0.6872  2.1161 -2.6528
 5518TIP3   OH238112   0.346   0.845   8.344  0.1800 -0.0371  0.2223
 5518TIP3    H138113   0.329   0.798   8.262 -3.2009 -0.4873  1.0316
 5518TIP3    H238114   0.391   0.781   8.399 -1.5665 -1.3313  0.2236
 5519TIP3   OH238115   0.259   0.922   0.587  0.0948  0.1595 -0.1961
 5519TIP3    H138116   0.187   0.917   0.649  0.7617  0.3249  0.6119
 5519TIP3    H238117   0.278   1.015   0.578  0.5229  0.0914 -0.0295
 5520TIP3   OH238118   6.150   0.144   1.586 -0.1576 -0.0898 -0.4369
 5520TIP3    H138119   6.119   0.228   1.551  1.3790  1.2748  1.2588
 5520TIP3    H238120   6.238   0.134   1.550  0.9069  0.6593  1.7341
 5521TIP3   OH238121   2.252   3.246   8.550 -0.4355  0.5752  0.1548
 5521TIP3    H138122   2.322   3.303   8.519 -0.2820 -0.2941 -1.1999
 5521TIP3    H238123   2.200   3.301   8.609  0.5345  1.6608  0.0329
 5522TIP3   OH238124   1.514   4.580   7.347  0.6448  0.3551  0.2786
 5522TIP3    H138125   1.536   4.526   7.422 -1.1412  0.8918  1.2370
 5522TIP3    H238126   1.438   4.537   7.308  0.5999  0.9335 -0.2922
 5523TIP3   OH238127   2.157   0.163   8.367 -0.4438  0.1621  0.0114
 5523TIP3    H138128   2.154   0.106   8.444  0.2186 -0.3181 -0.3162
 5523TIP3    H238129   2.140   0.250   8.402 -1.0946 -0.1705  0.5694
 5524TIP3   OH238130   0.476   2.181   8.519  0.4967  0.3125  0.0867
 5524TIP3    H138131   0.435   2.225   8.593 -0.2657 -1.4593  0.7542
 5524TIP3    H238132   0.531   2.249   8.479  3.0352  0.7254  3.7508
 5525TIP3   OH238133   5.775   5.200   0.012  0.2387 -0.2825 -0.7420
 5525TIP3    H138134   5.726   5.117   0.006  1.3168 -0.9556 -0.4778
 5525TIP3    H238135   5.728   5.250   0.079  0.6581 -1.4612  0.4869
 5526TIP3   OH238136   4.258   5.985   8.047 -0.2948 -0.3867  0.1114
 5526TIP3    H138137   4.246   5.926   8.121  1.5477  1.0447  1.6343
 5526TIP3    H238138   4.351   5.978   8.025 -0.3022  1.0223 -0.4746
 5527TIP3   OH238139   5.089   3.914   0.122  0.3450  0.2985  0.0608
 5527TIP3    H138140   5.043   3.855   0.181  0.7603 -0.9977 -0.8748
 5527TIP3    H238141   5.031   3.923   0.047  0.4363  0.8182  0.0477
 5528TIP3   OH238142   6.184   3.633   1.983  0.2399 -0.3906 -0.3073
 5528TIP3    H138143   6.167   3.566   1.916  1.1048  0.3860 -1.3325
 5528TIP3    H238144   6.137   3.711   1.951  0.8532  0.0519 -0.1391
 5529TIP3   OH238145   6.133   2.754   0.270 -0.4084  0.6655 -0.4033
 5529TIP3    H138146   6.216   2.707   0.279 -1.7442 -1.5856  0.8590
 5529TIP3    H238147   6.104   2.733   0.181 -0.8621 -0.7685  0.0548
 5530TIP3   OH238148   4.652   4.180   1.008  0.0946 -0.8295 -0.4828
 5530TIP3    H138149   4.696   4.264   1.014 -1.1894 -0.1522 -0.0572
 5530TIP3    H238150   4.617   4.165   1.096 -0.8124 -1.1536 -0.8830
 5531TIP3   OH238151   4.941   0.801   3.094  0.4928  0.6656  0.1367
 5531TIP3    H138152   4.912   0.718   3.057 -0.8662  1.1239  0.1400
 5531TIP3    H238153   4.979   0.848   3.019  3.5914 -0.8736  0.5757
 5532TIP3   OH238154   1.531   1.364   7.558  0.1825 -0.9869  0.0918
 5532TIP3    H138155   1.534   1.393   7.467 -1.9021 -0.7597  0.0659
 5532TIP3    H238156   1.571   1.436   7.607 -2.5843  0.9045 -0.2427
 5533TIP3   OH238157   1.246   2.738   2.031 -0.2961  0.0726 -0.0835
 5533TIP3    H138158   1.246   2.643   2.022 -1.3395  0.0331  0.1582
 5533TIP3    H238159   1.271   2.754   2.122  3.1552  0.1933 -0.9324
 5534TIP3   OH238160   2.025   4.860   0.570 -0.1990 -0.2662  0.0719
 5534TIP3    H138161   2.090   4.904   0.516 -1.1505 -0.6509 -1.4596
 5534TIP3    H238162   1.946   4.859   0.516 -0.8890 -1.6567  1.0333
 5535TIP3   OH238163   4.329   0.116   0.516  0.4828 -0.5498  0.1189
 5535TIP3    H138164   4.277   0.173   0.460 -0.2508 -0.5342  0.8008
 5535TIP3    H238165   4.374   0.176   0.576  1.8199 -0.5138 -0.8774
 5536TIP3   OH238166   3.384   4.685   8.236 -0.3265  0.8263  0.2665
 5536TIP3    H138167   3.441   4.758   8.261 -1.1530  1.0609  1.5831
 5536TIP3    H238168   3.300   4.726   8.216 -0.5817  0.3081  0.2553
 5537TIP3   OH238169   3.767   1.636   1.412  0.8210 -0.6482 -0.3915
 5537TIP3    H138170   3.695   1.588   1.452  0.2130 -0.3459 -1.0891
 5537TIP3    H238171   3.820   1.568   1.369  0.0013 -0.7244 -1.3183
 5538TIP3   OH238172   2.193   0.807   1.751 -0.0729 -0.0833 -0.5102
 5538TIP3    H138173   2.254   0.804   1.825 -0.1537  0.8974 -0.3892
 5538TIP3    H238174   2.185   0.900   1.731  1.5490 -0.4184 -3.1154
 5539TIP3   OH238175   6.371   1.334   1.951  0.0663 -0.5423  0.2115
 5539TIP3    H138176   6.461   1.325   1.922  0.2913 -0.9294  1.0086
 5539TIP3    H238177   6.322   1.352   1.871  1.1724  2.4010  0.0794
 5540TIP3   OH238178   2.082   2.941   2.860 -0.1114  0.1390 -0.1127
 5540TIP3    H138179   2.157   2.994   2.886  1.8312 -1.0923 -2.7815
 5540TIP3    H238180   2.080   2.870   2.924  1.1133  0.0792 -0.1225
 5541TIP3   OH238181   5.592   6.730   0.681 -0.1610 -0.0271 -0.7654
 5541TIP3    H138182   5.607   6.650   0.732  0.4213  0.4900 -0.1074
 5541TIP3    H238183   5.554   6.792   0.743  0.7576  0.6853 -0.8896
 5542TIP3   OH238184   0.316   4.554   0.615 -0.1797 -0.3947 -0.1954
 5542TIP3    H138185   0.240   4.604   0.643  0.9491  1.3266 -0.0485
 5542TIP3    H238186   0.383   4.620   0.595  0.9637 -1.7968 -1.2926
 5543TIP3   OH238187   1.209   3.314   0.353 -0.2911 -0.4147 -0.3794
 5543TIP3    H138188   1.113   3.313   0.346 -0.2896 -1.0749 -0.3587
 5543TIP3    H238189   1.231   3.227   0.386  0.3540 -0.4181 -0.8180
 5544TIP3   OH238190   4.729   3.842   7.283 -0.2716  0.5253  0.0642
 5544TIP3    H138191   4.799   3.906   7.296  0.2489 -0.1961  0.9332
 5544TIP3    H238192   4.712   3.806   7.370  0.2275 -1.3048 -0.5326
 5545TIP3   OH238193   1.347   3.006   7.548 -0.0560  0.4012 -0.6617
 5545TIP3    H138194   1.361   3.083   7.493 -0.2329  2.2556  1.6947
 5545TIP3    H238195   1.334   3.042   7.636  2.4796 -2.4593  1.0886
 5546TIP3   OH238196   0.370   1.351   7.898  0.2169  0.2631  0.6914
 5546TIP3    H138197   0.306   1.372   7.831 -0.5685 -1.6302  0.7894
 5546TIP3    H238198   0.323   1.296   7.961  2.5917 -4.3305 -1.0309
 5547TIP3   OH238199   4.914   2.213   6.837 -0.0271  0.3204 -0.1509
 5547TIP3    H138200   4.830   2.173   6.860  0.3925  0.2302  1.3405
 5547TIP3    H238201   4.892   2.278   6.770 -1.4583  1.0370  0.9458
 5548TIP3   OH238202   6.514   0.813   2.172  0.6752  0.2550 -0.5224
 5548TIP3    H138203   6.466   0.819   2.255 -0.3858 -0.4782 -1.0604
 5548TIP3    H238204   6.601   0.783   2.197  0.2180 -0.4338  0.2933
 5549TIP3   OH238205   2.951   0.131   7.866  0.3828 -0.3800 -0.0703
 5549TIP3    H138206   2.889   0.204   7.859  0.7173 -0.2468 -2.4380
 5549TIP3    H238207   3.032   0.172   7.897  0.5329  0.2967 -1.2595
 5550TIP3   OH238208   1.323   2.527   8.046 -0.2050  0.1377  0.3796
 5550TIP3    H138209   1.381   2.600   8.071  0.9986 -0.3262 -0.9424
 5550TIP3    H238210   1.375   2.475   7.984 -1.7078 -0.8305 -0.1152
 5551TIP3   OH238211   4.271   4.147   7.975  0.8155  0.2797 -0.7369
 5551TIP3    H138212   4.290   4.219   7.915  0.5171  1.1589  0.1898
 5551TIP3    H238213   4.267   4.188   8.061  0.1409 -0.7632 -0.2454
 5552TIP3   OH238214   0.570   5.158   7.777 -0.6978  0.0818 -0.4714
 5552TIP3    H138215   0.652   5.203   7.754 -0.4445 -0.7035 -1.1759
 5552TIP3    H238216   0.531   5.137   7.692 -0.6069 -1.3698 -0.1775
 5553TIP3   OH238217   1.324   3.346   7.750 -0.0252 -0.0931 -0.1241
 5553TIP3    H138218   1.349   3.403   7.822 -0.0959 -0.8712  0.5337
 5553TIP3    H238219   1.356   3.390   7.672  2.4207 -0.4858  0.5834
 5554TIP3   OH238220   2.930   2.472   8.104  0.1243 -0.1985  0.2316
 5554TIP3    H138221   2.866   2.480   8.033  1.8704 -0.1603 -1.4252
 5554TIP3    H238222   2.899   2.532   8.171 -1.9326 -0.6973 -0.1934
 5555TIP3   OH238223   6.316   2.963   1.735 -0.3767 -0.9715  0.0745
 5555TIP3    H138224   6.348   3.043   1.692  2.2944 -1.1895  1.4251
 5555TIP3    H238225   6.348   2.892   1.680 -0.6120 -1.1758  0.1988
 5556TIP3   OH238226   1.654   4.555   1.930 -0.3545 -0.0421  0.1097
 5556TIP3    H138227   1.645   4.590   1.842  1.2952 -2.0887 -0.9646
 5556TIP3    H238228   1.723   4.609   1.970  0.0887 -0.1648 -0.4751
 5557TIP3   OH238229   4.193   4.795   1.543 -0.2415  0.1434 -0.0357
 5557TIP3    H138230   4.156   4.883   1.552  0.3007  0.2131  2.0971
 5557TIP3    H238231   4.244   4.798   1.462 -0.3493  1.7416 -0.0667
 5558TIP3   OH238232   3.028   6.384   2.467  0.4088  0.6102 -0.8038
 5558TIP3    H138233   3.082   6.412   2.393  0.8183  1.4962 -0.1887
 5558TIP3    H238234   3.085   6.395   2.544 -0.2329  0.3618 -0.2829
 5559TIP3   OH238235   1.351   3.604   0.717 -0.1629  0.1341 -0.6120
 5559TIP3    H138236   1.350   3.577   0.626  0.3548 -0.2448 -0.5081
 5559TIP3    H238237   1.258   3.614   0.740 -0.2835  1.0072 -1.3970
 5560TIP3   OH238238   5.551   4.256   3.363 -0.7498 -0.0287 -0.5423
 5560TIP3    H138239   5.549   4.326   3.298  0.5441  0.4948 -0.0391
 5560TIP3    H238240   5.611   4.191   3.327 -3.4863 -1.9623 -2.0057
 5561TIP3   OH238241   3.878   0.536   2.424  0.4314  0.2644 -0.1527
 5561TIP3    H138242   3.928   0.469   2.470 -0.1477 -0.3923 -0.4654
 5561TIP3    H238243   3.926   0.617   2.440  1.1116 -0.2144  0.2728
 5562TIP3   OH238244   3.616   3.434   8.873  0.2181  0.2351 -0.2590
 5562TIP3    H138245   3.544   3.394   8.825 -1.0889  0.5475  1.3514
 5562TIP3    H238246   3.574   3.498   8.930  1.9475  1.5301 -0.3767
 5563TIP3   OH238247   4.739   2.221   0.564 -0.5445 -0.1678 -0.6348
 5563TIP3    H138248   4.689   2.283   0.617 -0.6964  0.2836 -1.2975
 5563TIP3    H238249   4.691   2.215   0.481  0.4513  0.2334 -1.2621
 5564TIP3   OH238250   0.474   2.142   8.971 -0.2404  0.3091  0.6657
 5564TIP3    H138251   0.515   2.081   8.910  0.4813  0.6161  0.8356
 5564TIP3    H238252   0.547   2.188   9.012 -0.5496 -1.2447  3.2032
 5565TIP3   OH238253   0.350   0.703   0.094 -0.3301 -0.5523 -0.0607
 5565TIP3    H138254   0.373   0.653   0.172  1.2672 -0.7817 -0.6351
 5565TIP3    H238255   0.337   0.637   0.026 -3.1826 -0.4560  0.2911
 5566TIP3   OH238256   2.531   5.929   8.352  0.1456 -0.5905 -0.0679
 5566TIP3    H138257   2.538   5.850   8.405  2.0313  0.1115  0.7920
 5566TIP3    H238258   2.488   5.993   8.409  3.3629  0.5798  1.2348
 5567TIP3   OH238259   1.634   0.993   8.715 -0.4024  0.3937  0.1692
 5567TIP3    H138260   1.575   0.926   8.681 -1.0755  1.3310 -0.5955
 5567TIP3    H238261   1.644   1.055   8.642 -0.0097  1.2456  0.9208
 5568TIP3   OH238262   4.278   4.430   1.954  0.0396  0.2465  0.5575
 5568TIP3    H138263   4.275   4.506   1.896 -0.3093  0.0431  0.3092
 5568TIP3    H238264   4.207   4.373   1.924  1.4095 -1.0199 -0.4191
 5569TIP3   OH238265   0.615   5.590   7.853 -0.0579 -0.1632 -0.1447
 5569TIP3    H138266   0.537   5.538   7.836  0.2157 -1.0417  1.1965
 5569TIP3    H238267   0.679   5.557   7.790 -0.6199  0.3088 -0.9977
 5570TIP3   OH238268   4.535   0.639   1.147  0.4221  0.3281  0.2575
 5570TIP3    H138269   4.520   0.676   1.233 -0.6403 -0.0446  0.2460
 5570TIP3    H238270   4.630   0.629   1.141  0.4281 -1.0718  2.0090
 5571TIP3   OH238271   1.646   4.214   9.082  0.4923  0.2328 -0.2256
 5571TIP3    H138272   1.694   4.193   9.163 -0.2046  2.9931  1.0240
 5571TIP3    H238273   1.672   4.303   9.061 -0.7033  0.2021 -2.0732
 5572TIP3   OH238274   2.894   3.775   8.114 -0.4636 -0.0420 -0.1885
 5572TIP3    H138275   2.899   3.721   8.035  1.1294  1.3532 -1.1121
 5572TIP3    H238276   2.975   3.756   8.161 -1.0110 -0.2289  0.6954
 5573TIP3   OH238277   2.848   6.208   8.582 -0.2927 -0.2019  0.3152
 5573TIP3    H138278   2.894   6.145   8.528  0.3508  0.5771 -0.0712
 5573TIP3    H238279   2.851   6.171   8.670 -0.8319 -1.1932 -0.0702
 5574TIP3   OH238280   3.831   5.819   7.791 -0.7343  0.6256  0.1443
 5574TIP3    H138281   3.736   5.817   7.790 -0.7234 -0.9300 -0.6948
 5574TIP3    H238282   3.858   5.731   7.765  0.9494  0.5193  1.9769
 5575TIP3   OH238283   2.706   0.682   8.645 -0.5731  0.4730  0.3841
 5575TIP3    H138284   2.737   0.604   8.599  1.2367  1.1863  0.2920
 5575TIP3    H238285   2.669   0.737   8.575 -1.6018 -0.1710  0.4107
 5576TIP3   OH238286   0.864   5.755   8.126  0.3406 -0.1470  0.3940
 5576TIP3    H138287   0.959   5.747   8.116  0.3968  0.4131  0.4836
 5576TIP3    H238288   0.852   5.802   8.208  0.0782  2.3996 -1.0054
 5577TIP3   OH238289   6.633   1.298   1.858  0.4957  0.1160 -0.2612
 5577TIP3    H138290   6.654   1.208   1.885 -0.2424 -0.1185 -0.4461
 5577TIP3    H238291   6.697   1.318   1.789  0.5951 -0.3078 -0.2942
 5578TIP3   OH238292   5.079   0.252   8.178 -0.3939  0.0089 -0.3440
 5578TIP3    H138293   5.097   0.266   8.271 -0.9860  1.3145 -0.4083
 5578TIP3    H238294   5.046   0.162   8.173 -0.8201  0.0889  0.7763
 5579TIP3   OH238295   3.269   1.185   9.089 -0.6789 -0.2201  0.4622
 5579TIP3    H138296   3.280   1.158   8.998 -0.1290 -0.8524  0.7088
 5579TIP3    H238297   3.224   1.111   9.131  0.3469 -0.5441  1.0195
 5580TIP3   OH238298   6.126   3.942   0.289  0.6219  0.1251 -0.3012
 5580TIP3    H138299   6.207   3.892   0.288 -0.0101 -0.9497  0.4402
 5580TIP3    H238300   6.110   3.964   0.198  1.6484  0.2025 -0.4768
 5581TIP3   OH238301   0.882   2.960   8.290 -0.1985  0.0234 -0.2062
 5581TIP3    H138302   0.894   2.902   8.365  3.6695  1.4343  0.5102
 5581TIP3    H238303   0.913   2.909   8.215  3.0670  0.8882  0.4021
 5582TIP3   OH238304   2.110   3.076   7.361  0.5469 -0.9484 -0.0746
 5582TIP3    H138305   2.024   3.106   7.330  0.0630  0.5129  2.3942
 5582TIP3    H238306   2.172   3.111   7.297 -0.3984  1.5647  0.2786
 5583TIP3   OH238307   5.589   5.389   2.347 -0.0448 -0.1103 -0.1480
 5583TIP3    H138308   5.603   5.312   2.291  2.1110  0.8609 -1.0529
 5583TIP3    H238309   5.514   5.434   2.307 -1.1933 -1.5728  0.2631
 5584TIP3   OH238310   2.838   5.636   0.981 -0.3128  0.2127 -0.4941
 5584TIP3    H138311   2.822   5.654   1.073  0.9637  2.4013 -0.6189
 5584TIP3    H238312   2.775   5.692   0.935  0.8548  1.2490 -0.9062
 5585TIP3   OH238313   2.562   6.277   1.966 -0.1217 -0.2575 -0.2485
 5585TIP3    H138314   2.522   6.364   1.966  1.3269  0.4621  1.4224
 5585TIP3    H238315   2.488   6.217   1.958 -1.1083  1.0781 -2.2636
 5586TIP3   OH238316   3.446   4.508   1.147  0.5284  0.4689  0.0970
 5586TIP3    H138317   3.419   4.567   1.217 -0.1570  1.0316 -0.6209
 5586TIP3    H238318   3.450   4.421   1.188 -0.9877  0.6051  0.5736
 5587TIP3   OH238319   0.465   2.299   1.621  0.2609 -0.0077 -0.3944
 5587TIP3    H138320   0.459   2.238   1.695  0.3953  1.1522  0.6064
 5587TIP3    H238321   0.534   2.262   1.566 -0.2484 -1.2118 -0.2560
 5588TIP3   OH238322   3.395   5.341   7.401 -0.0391  0.3919 -0.4492
 5588TIP3    H138323   3.450   5.283   7.455  0.6297 -0.5837 -2.1135
 5588TIP3    H238324   3.415   5.429   7.432  0.7808 -0.1070  0.4843
 5589TIP3   OH238325   5.229   4.636   8.845 -1.0148  0.1488 -0.0663
 5589TIP3    H138326   5.184   4.554   8.824 -0.0244 -0.0900 -1.4459
 5589TIP3    H238327   5.163   4.689   8.888 -1.1586 -2.0758  2.7771
 5590TIP3   OH238328   2.701   6.350   1.617  0.4368  0.2502 -0.2809
 5590TIP3    H138329   2.702   6.314   1.529  0.0666  3.5531 -1.8100
 5590TIP3    H238330   2.784   6.396   1.626 -0.0934  1.1067  0.5367
 5591TIP3   OH238331   6.339   1.266   0.762 -0.0226  0.5460 -0.1952
 5591TIP3    H138332   6.249   1.247   0.789 -0.2571  0.3492 -1.0946
 5591TIP3    H238333   6.348   1.360   0.776 -0.6297  0.7083 -0.8470
 5592TIP3   OH238334   5.167   0.185   3.060  0.2685 -0.3155  0.1358
 5592TIP3    H138335   5.224   0.257   3.033 -0.3173  0.0081 -0.2819
 5592TIP3    H238336   5.078   0.221   3.049 -0.0096 -0.7397  0.9443
 5593TIP3   OH238337   5.804   5.186   1.750 -0.4210 -0.3270  0.8474
 5593TIP3    H138338   5.770   5.242   1.819 -1.4365  1.4434 -0.9923
 5593TIP3    H238339   5.807   5.241   1.672 -2.9239 -3.1063 -1.4938
 5594TIP3   OH238340   0.448   3.393   8.068 -0.0626  0.0057 -0.1442
 5594TIP3    H138341   0.436   3.298   8.066  0.6812 -0.1084  0.4793
 5594TIP3    H238342   0.496   3.410   8.149  0.2518  0.8662 -0.4965
 5595TIP3   OH238343   0.808   1.174   1.760  0.1188  0.2552 -0.5476
 5595TIP3    H138344   0.739   1.129   1.809 -0.1487  1.8309  0.5926
 5595TIP3    H238345   0.817   1.123   1.679 -0.8404 -1.2422  0.2420
 5596TIP3   OH238346   4.776   4.744   2.339 -0.0803  0.1987  0.6765
 5596TIP3    H138347   4.714   4.809   2.373  0.3459  0.5047  0.8793
 5596TIP3    H238348   4.778   4.761   2.244 -0.5371 -0.0149  0.6271
 5597TIP3   OH238349   5.152   5.470   2.152  0.1101 -0.3446 -0.3507
 5597TIP3    H138350   5.171   5.514   2.069 -0.6441 -0.5541 -0.6358
 5597TIP3    H238351   5.080   5.410   2.132 -0.1155 -0.3560  0.4679
 5598TIP3   OH238352   3.489   4.325   0.122  0.1696 -0.4103 -0.0764
 5598TIP3    H138353   3.582   4.305   0.130  0.6104  1.7154  0.5921
 5598TIP3    H238354   3.480   4.358   0.032  0.4042  0.8791  0.3518
 5599TIP3   OH238355   3.299   3.022   1.598  0.3349  0.4475 -0.4120
 5599TIP3    H138356   3.317   3.019   1.504 -2.1675  2.3515 -1.0469
 5599TIP3    H238357   3.354   3.094   1.630 -0.8097  1.6117 -0.9846
 5600TIP3   OH238358   0.277   5.566   8.464  0.3184 -0.6543  0.2595
 5600TIP3    H138359   0.187   5.545   8.438  0.1115  1.2969 -0.7487
 5600TIP3    H238360   0.330   5.498   8.422 -0.6683 -2.0662  1.1877
 5601TIP3   OH238361   4.107   2.701   8.485  0.1727  0.5718 -0.2684
 5601TIP3    H138362   4.100   2.764   8.413  0.9828  0.2382 -0.6427
 5601TIP3    H238363   4.107   2.615   8.442 -1.3937  0.2599  0.2636
 5602TIP3   OH238364   4.670   0.751   8.869 -0.1388 -1.3718 -0.1418
 5602TIP3    H138365   4.664   0.750   8.965 -1.2998 -0.8961 -0.1861
 5602TIP3    H238366   4.625   0.672   8.841 -0.2806 -1.2351 -0.3050
 5603TIP3   OH238367   5.640   5.678   8.259 -0.3623 -0.3672 -0.2898
 5603TIP3    H138368   5.702   5.730   8.208 -0.8890 -1.1305 -1.7501
 5603TIP3    H238369   5.578   5.742   8.295  1.0310  0.3630  0.9170
 5604TIP3   OH238370   6.438   2.316   8.086 -0.0136  0.1160  0.2953
 5604TIP3    H138371   6.419   2.369   8.009 -1.0742 -0.9995 -0.2442
 5604TIP3    H238372   6.531   2.332   8.103 -0.2743  2.0477  0.1165
 5605TIP3   OH238373   0.157   5.833   2.581  0.0003  0.3614  0.1737
 5605TIP3    H138374   0.208   5.893   2.636  0.2467 -0.4454  0.8308
 5605TIP3    H238375   0.156   5.750   2.629 -0.2504 -0.2007 -0.7746
 5606TIP3   OH238376   1.991   0.648   3.554 -0.4496 -0.6591 -0.0812
 5606TIP3    H138377   1.905   0.628   3.516 -0.3765  0.7648 -1.1019
 5606TIP3    H238378   2.053   0.597   3.501 -0.6747 -2.0666  0.9673
 5607TIP3   OH238379   0.990   3.455   8.256  0.2528 -0.1740 -0.2962
 5607TIP3    H138380   1.002   3.541   8.296 -0.3328 -0.8789  1.5067
 5607TIP3    H238381   1.048   3.455   8.180  0.8928  1.5015  0.1616
 5608TIP3   OH238382   5.672   4.878   2.231  0.1064  0.2248  0.7259
 5608TIP3    H138383   5.715   4.842   2.154 -0.6975 -0.8995  0.7863
 5608TIP3    H238384   5.580   4.883   2.207 -0.3553 -1.3173  2.0266
 5609TIP3   OH238385   5.204   5.227   8.209 -0.1983 -0.5880  0.1455
 5609TIP3    H138386   5.246   5.276   8.139 -0.5485  0.8350  0.8909
 5609TIP3    H238387   5.116   5.209   8.177 -0.2176 -0.3227  0.0542
 5610TIP3   OH238388   0.493   5.162   7.502 -0.6404 -0.1081  0.0274
 5610TIP3    H138389   0.429   5.230   7.524 -0.1996  0.5506 -0.6800
 5610TIP3    H238390   0.440   5.083   7.487 -1.2013  0.2091  0.3162
 5611TIP3   OH238391   5.955   6.032   2.994 -0.4695  0.8312  0.1942
 5611TIP3    H138392   5.939   5.984   3.076  0.1855  2.9026  1.6038
 5611TIP3    H238393   6.049   6.051   2.996 -0.5659  1.4367 -0.7599
 5612TIP3   OH238394   4.353   5.272   7.581  0.3473 -0.0730 -0.0944
 5612TIP3    H138395   4.370   5.365   7.572 -1.6343  0.3122 -0.2781
 5612TIP3    H238396   4.417   5.230   7.524  1.3386  1.1518  0.0822
 5613TIP3   OH238397   4.793   6.231   1.540  0.6991  1.1084 -0.3767
 5613TIP3    H138398   4.850   6.194   1.473 -0.2371  0.1329 -0.6553
 5613TIP3    H238399   4.714   6.256   1.493 -0.9348 -1.7017  0.6296
 5614TIP3   OH238400   0.592   3.100   7.998 -0.5465 -0.0991 -0.7700
 5614TIP3    H138401   0.616   3.168   7.935 -1.7853  0.8504 -0.2490
 5614TIP3    H238402   0.501   3.078   7.975 -0.3629 -1.1420 -0.5337
 5615TIP3   OH238403   0.670   4.931   3.579  0.4130 -0.2074  0.0378
 5615TIP3    H138404   0.642   5.003   3.636 -1.2659 -2.0217  1.6591
 5615TIP3    H238405   0.632   4.952   3.494  0.2074  0.9720  0.3939
 5616TIP3   OH238406   0.748   1.018   7.864 -0.5837 -0.1933 -0.4731
 5616TIP3    H138407   0.677   0.957   7.844 -0.8588 -0.0512  0.0509
 5616TIP3    H238408   0.796   1.028   7.781 -0.4665 -1.2037 -0.5324
 5617TIP3   OH238409   0.148   6.282   3.566 -0.0053  0.1963 -0.6301
 5617TIP3    H138410   0.239   6.280   3.594 -0.6249 -3.4767  1.9039
 5617TIP3    H238411   0.131   6.193   3.533 -3.2673 -0.2076  1.6133
 5618TIP3   OH238412   1.480   6.486   0.389  0.2185  0.1922 -0.0476
 5618TIP3    H138413   1.518   6.404   0.358  2.4236  1.1318  0.0334
 5618TIP3    H238414   1.497   6.485   0.483 -0.5532  0.3601  0.1005
 5619TIP3   OH238415   3.168   2.440   8.372 -0.0656  0.5441 -0.0977
 5619TIP3    H138416   3.211   2.422   8.289  0.1372 -1.2104  0.3374
 5619TIP3    H238417   3.107   2.510   8.353  1.6003  1.7853 -1.1823
 5620TIP3   OH238418   5.936   1.557   7.618  0.0221 -0.0878  0.2160
 5620TIP3    H138419   5.968   1.540   7.529  0.0437 -0.3626  0.2760
 5620TIP3    H238420   5.848   1.519   7.619 -0.7968  1.6603 -0.3122
 5621TIP3   OH238421   6.089   3.785   7.877 -0.2132  0.5182  0.2576
 5621TIP3    H138422   6.139   3.865   7.862  1.2510 -0.5652 -0.9206
 5621TIP3    H238423   6.155   3.717   7.890 -1.3509 -0.9215 -1.0717
 5622TIP3   OH238424   6.536   3.586   1.233  0.2006  0.6269 -0.7063
 5622TIP3    H138425   6.443   3.566   1.240  0.1252  1.3750  0.9194
 5622TIP3    H238426   6.578   3.528   1.297  0.5300  2.0414  0.4188
 5623TIP3   OH238427   3.994   2.029   1.778 -0.3090  0.6500 -0.4159
 5623TIP3    H138428   3.978   2.040   1.872 -0.3219  1.2033 -0.4802
 5623TIP3    H238429   4.066   2.088   1.759 -0.9531  1.2790 -0.9460
 5624TIP3   OH238430   1.265   1.525   7.935 -0.0798  0.7558  0.3379
 5624TIP3    H138431   1.302   1.577   7.863 -1.1228 -1.5482 -2.0363
 5624TIP3    H238432   1.339   1.472   7.967 -0.3908 -1.4419 -2.1841
 5625TIP3   OH238433   5.055   2.510   0.487  0.1143 -0.2040  0.5439
 5625TIP3    H138434   5.012   2.563   0.555 -2.1535 -2.2609  0.8703
 5625TIP3    H238435   5.123   2.462   0.534  0.0109  0.0016  0.9127
 5626TIP3   OH238436   4.241   2.712   8.105  0.3523  0.3191 -0.9432
 5626TIP3    H138437   4.150   2.741   8.106  0.5896  1.1108 -1.1853
 5626TIP3    H238438   4.288   2.782   8.059  0.9724 -0.4273 -1.4703
 5627TIP3   OH238439   2.189   2.824   7.383 -0.3592  0.6202 -0.1356
 5627TIP3    H138440   2.158   2.914   7.373 -1.4484  0.4293  1.2352
 5627TIP3    H238441   2.158   2.779   7.304  0.6266  1.5351 -1.0705
 5628TIP3   OH238442   1.524   5.388   8.217 -0.0616 -0.0988  0.0657
 5628TIP3    H138443   1.566   5.458   8.267  0.9155 -0.8099  0.2777
 5628TIP3    H238444   1.596   5.327   8.197 -1.2708 -2.2824  1.9319
 5629TIP3   OH238445   4.216   4.003   1.747 -0.1820  0.0398 -0.3475
 5629TIP3    H138446   4.205   3.980   1.655 -0.1041 -1.1920 -0.0592
 5629TIP3    H238447   4.162   4.081   1.758 -0.6800 -0.1550 -1.2901
 5630TIP3   OH238448   6.111   6.096   7.882  0.1457  0.0912 -0.2449
 5630TIP3    H138449   6.158   6.171   7.916 -0.0252 -0.5431  1.4566
 5630TIP3    H238450   6.138   6.023   7.938 -2.3525 -0.4092  0.4116
 5631TIP3   OH238451   5.432   4.466   8.698  0.4165 -0.3372 -0.3885
 5631TIP3    H138452   5.383   4.500   8.623 -0.1341 -0.1208  0.0566
 5631TIP3    H238453   5.513   4.517   8.700  0.4896 -0.4287 -0.9013
 5632TIP3   OH238454   3.983   0.893   7.652  0.5830  0.1457 -0.1989
 5632TIP3    H138455   3.946   0.807   7.671  0.5392  0.2958  0.4129
 5632TIP3    H238456   4.039   0.878   7.575 -0.4261 -0.1595 -0.8991
 5633TIP3   OH238457   1.608   5.613   6.958 -0.1829  0.9702  0.5763
 5633TIP3    H138458   1.618   5.708   6.952  0.9886  0.9046  1.1918
 5633TIP3    H238459   1.694   5.582   6.983 -0.1155 -0.4159 -1.1701
 5634TIP3   OH238460   1.226   1.191   2.081  0.3613  0.6300 -0.0503
 5634TIP3    H138461   1.299   1.223   2.135  0.7066  1.0702 -0.7568
 5634TIP3    H238462   1.257   1.202   1.991  0.3305 -1.3537 -0.3299
 5635TIP3   OH238463   2.133   6.272   9.018 -0.1826 -0.0843 -0.4809
 5635TIP3    H138464   2.223   6.299   9.037  0.5460 -1.3304 -2.0050
 5635TIP3    H238465   2.141   6.191   8.969 -2.2134 -1.1585  0.8192
 5636TIP3   OH238466   5.574   6.370   9.099 -0.1586 -0.1948 -0.4150
 5636TIP3    H138467   5.622   6.341   9.177 -1.6662 -0.6077  0.4014
 5636TIP3    H238468   5.606   6.313   9.029  1.6980  0.6171 -0.2861
 5637TIP3   OH238469   1.387   0.308   8.082  0.5194  0.4676 -1.3572
 5637TIP3    H138470   1.338   0.318   8.164  2.4260 -0.6836  0.0025
 5637TIP3    H238471   1.349   0.231   8.040 -0.1671  0.8013 -1.3723
 5638TIP3   OH238472   5.173   6.718   2.612 -0.1218 -0.2559  0.6204
 5638TIP3    H138473   5.165   6.659   2.536 -2.8782 -1.3061  1.6134
 5638TIP3    H238474   5.098   6.777   2.604  0.5376  0.7428  1.6240
 5639TIP3   OH238475   0.161   2.819   8.020 -0.1447  0.9840 -0.6823
 5639TIP3    H138476   0.206   2.826   8.104 -0.6393  0.0863 -0.3324
 5639TIP3    H238477   0.069   2.828   8.041 -0.2595  0.9390 -1.1561
 5640TIP3   OH238478   0.506   0.385   1.776  0.3521  0.4120 -0.1189
 5640TIP3    H138479   0.496   0.477   1.801  1.3229  0.6506 -0.5794
 5640TIP3    H238480   0.599   0.375   1.758  0.2738 -0.7044  0.0687
 5641TIP3   OH238481   3.199   1.852   2.317  0.1940  0.0934  0.1406
 5641TIP3    H138482   3.108   1.826   2.332  0.0256  0.4328 -0.2713
 5641TIP3    H238483   3.197   1.948   2.319  0.7191  0.0985  1.1370
 5642TIP3   OH238484   4.713   1.736   1.252 -0.1900 -0.7209  0.1650
 5642TIP3    H138485   4.648   1.802   1.275 -0.1258 -0.1792 -1.1039
 5642TIP3    H238486   4.790   1.758   1.305 -0.4163 -0.2122  0.2850
 5643TIP3   OH238487   0.155   4.964   7.887 -0.0898 -0.4696  0.2292
 5643TIP3    H138488   0.145   4.892   7.949 -2.6782 -0.0921  0.3566
 5643TIP3    H238489   0.136   4.926   7.801  1.6516 -0.5772 -0.1518
 5644TIP3   OH238490   4.713   1.155   0.391  0.3237 -0.1904 -0.4105
 5644TIP3    H138491   4.769   1.154   0.469 -0.1079  0.5354 -0.0774
 5644TIP3    H238492   4.640   1.212   0.415  0.1981  0.0615 -1.3564
 5645TIP3   OH238493   5.734   0.257   8.061  0.2048 -0.0961 -0.4187
 5645TIP3    H138494   5.792   0.333   8.060 -0.4519  0.4536 -2.7153
 5645TIP3    H238495   5.736   0.226   8.151 -0.2809  3.2378  0.8765
 5646TIP3   OH238496   0.331   2.306   2.231 -0.1444 -0.1070 -0.6923
 5646TIP3    H138497   0.365   2.223   2.265  1.2307  1.4279  2.0928
 5646TIP3    H238498   0.404   2.342   2.180 -0.1844  0.0614 -0.6300
 5647TIP3   OH238499   4.246   2.831   7.251  0.6875  0.0140  0.5475
 5647TIP3    H138500   4.215   2.906   7.201 -0.7955 -0.3348  0.8929
 5647TIP3    H238501   4.341   2.834   7.241  0.5225  0.4610 -1.5632
 5648TIP3   OH238502   2.515   2.371   7.536 -0.2132 -0.2177  0.0339
 5648TIP3    H138503   2.463   2.397   7.460 -0.8966 -0.7991  0.2975
 5648TIP3    H238504   2.590   2.324   7.499 -0.4960 -0.4224 -0.2787
 5649TIP3   OH238505   4.339   1.817   7.106 -0.5627 -0.0330  0.1793
 5649TIP3    H138506   4.303   1.901   7.076 -0.7344  0.8764  2.7292
 5649TIP3    H238507   4.424   1.841   7.144  0.6399 -1.4565 -1.4755
 5650TIP3   OH238508   1.935   2.232   0.728  0.2309 -0.0098 -0.2537
 5650TIP3    H138509   1.896   2.318   0.710 -1.5997 -1.1373 -2.2791
 5650TIP3    H238510   1.944   2.229   0.823 -0.4550  2.0784 -0.0616
 5651TIP3   OH238511   1.007   0.588   2.445 -0.0903  0.4455  0.3416
 5651TIP3    H138512   0.959   0.519   2.400 -0.1360  0.7224 -0.0465
 5651TIP3    H238513   1.075   0.613   2.382  0.2565  0.3874  0.6928
 5652TIP3   OH238514   1.867   3.451   0.655  0.0470 -0.0766 -0.7348
 5652TIP3    H138515   1.919   3.382   0.696 -0.1896 -0.9053 -1.7846
 5652TIP3    H238516   1.790   3.460   0.712  0.7771  0.3745  0.2129
 5653TIP3   OH238517   3.131   3.368   0.421  0.2239  0.3560  0.2911
 5653TIP3    H138518   3.120   3.301   0.355 -1.6198  1.2809 -0.4086
 5653TIP3    H238519   3.123   3.322   0.505 -2.4036 -0.1680 -0.1720
 5654TIP3   OH238520   1.497   4.161   1.703 -0.2120  0.2657 -0.1000
 5654TIP3    H138521   1.433   4.183   1.635  0.1562 -0.2468 -0.6175
 5654TIP3    H238522   1.495   4.066   1.708 -1.4272  0.3257  1.7654
 5655TIP3   OH238523   6.473   6.681   8.911  0.6249  0.4888 -0.4810
 5655TIP3    H138524   6.477   6.599   8.961  3.7725 -0.4398 -2.0341
 5655TIP3    H238525   6.382   6.709   8.920  0.3021 -1.1010  3.2838
 5656TIP3   OH238526   6.703   0.456   2.893 -0.5313  0.4957 -0.5158
 5656TIP3    H138527   6.678   0.512   2.968 -0.9847 -1.0685  0.5527
 5656TIP3    H238528   6.732   0.375   2.933  3.1711  0.9855 -1.8814
 5657TIP3   OH238529   3.812   3.284   2.212  0.2064 -0.0050  0.2949
 5657TIP3    H138530   3.871   3.344   2.167 -0.1537 -0.2246 -0.4830
 5657TIP3    H238531   3.726   3.326   2.208  0.4755  0.9629  2.5934
 5658TIP3   OH238532   4.063   1.693   1.438 -0.4809  0.4064  0.1923
 5658TIP3    H138533   4.062   1.604   1.403  1.2507  0.2356  0.4744
 5658TIP3    H238534   3.971   1.719   1.441 -1.1508 -1.8365  1.3173
 5659TIP3   OH238535   3.980   0.614   0.769 -0.0917  0.9253  0.4346
 5659TIP3    H138536   4.057   0.659   0.806 -0.2926  0.4361  1.4997
 5659TIP3    H238537   4.008   0.585   0.683  0.7101  1.3206  0.5522
 5660TIP3   OH238538   1.566   4.245   1.140  0.3498 -0.3945 -0.3609
 5660TIP3    H138539   1.543   4.305   1.068  1.0298  0.3396  0.0186
 5660TIP3    H238540   1.653   4.212   1.117 -0.5352 -2.2582 -1.2070
 5661TIP3   OH238541   3.286   5.133   8.720 -0.7844  0.3066 -0.2767
 5661TIP3    H138542   3.242   5.204   8.768 -0.8203 -0.5048  0.9441
 5661TIP3    H238543   3.319   5.075   8.789  2.3449  0.9165 -1.1173
 5662TIP3   OH238544   4.067   4.771   9.064  0.3236 -0.7297  0.0824
 5662TIP3    H138545   4.030   4.819   9.138 -0.8968  0.6956 -1.3774
 5662TIP3    H238546   4.075   4.681   9.095 -2.7097 -0.7485  1.1131
 5663TIP3   OH238547   5.151   2.310   6.957 -0.2589 -0.5021  0.1536
 5663TIP3    H138548   5.127   2.373   7.025  0.5527 -1.4291  1.3390
 5663TIP3    H238549   5.067   2.278   6.924 -0.6635 -0.0329  0.7136
 5664TIP3   OH238550   5.865   1.541   8.517 -0.6682  0.1803  0.0156
 5664TIP3    H138551   5.800   1.518   8.451 -0.2510  1.1850 -0.7864
 5664TIP3    H238552   5.949   1.528   8.473 -0.3230 -0.5874  0.8623
 5665TIP3   OH238553   3.864   3.141   0.524  0.4225  0.0744  0.1821
 5665TIP3    H138554   3.774   3.127   0.552  0.7816 -1.3794  0.6857
 5665TIP3    H238555   3.917   3.114   0.599  1.2930  0.6025 -0.2269
 5666TIP3   OH238556   4.931   4.726   8.848 -0.6049  0.3917  0.2881
 5666TIP3    H138557   4.982   4.793   8.894 -1.1663  0.1467  1.2921
 5666TIP3    H238558   4.857   4.774   8.811 -0.7319  0.4168  0.5689
 5667TIP3   OH238559   0.408   2.365   7.471  0.0643  0.0779 -0.0138
 5667TIP3    H138560   0.367   2.335   7.552 -2.8844 -0.6824 -1.6641
 5667TIP3    H238561   0.446   2.286   7.432 -0.9726 -0.1146 -0.6699
 5668TIP3   OH238562   1.316   1.620   2.770  0.2657  0.1625  0.2671
 5668TIP3    H138563   1.375   1.671   2.827 -0.5324  3.0244 -1.2649
 5668TIP3    H238564   1.234   1.669   2.771 -0.7720 -1.4793 -0.8606
 5669TIP3   OH238565   5.785   0.806   8.414 -0.4913  0.1135  0.2426
 5669TIP3    H138566   5.742   0.730   8.373  0.4846 -0.1579 -0.3154
 5669TIP3    H238567   5.717   0.872   8.420 -0.7428  0.0622 -1.6000
 5670TIP3   OH238568   1.696   2.582   8.923  0.4179  0.1780 -0.2607
 5670TIP3    H138569   1.679   2.670   8.890 -1.5217  0.1596  0.5288
 5670TIP3    H238570   1.646   2.577   9.005  2.2657 -0.9313  0.8775
 5671TIP3   OH238571   6.048   2.102   0.580  0.2173 -0.4475  0.3806
 5671TIP3    H138572   6.079   2.155   0.653 -1.9275  2.5589 -0.7160
 5671TIP3    H238573   6.085   2.145   0.502 -0.1479 -1.6658 -0.4947
 5672TIP3   OH238574   3.292   0.611   7.433 -0.7034  0.2131 -0.1345
 5672TIP3    H138575   3.197   0.623   7.442 -0.6950 -1.0668  2.4493
 5672TIP3    H238576   3.303   0.518   7.415  0.0851  0.3764 -0.5598
 5673TIP3   OH238577   4.551   2.427   0.994 -0.1982  0.1980  0.0295
 5673TIP3    H138578   4.461   2.432   1.027  0.0032 -0.3155  0.6918
 5673TIP3    H238579   4.578   2.337   1.012 -0.1487 -0.1966 -1.8146
 5674TIP3   OH238580   5.485   6.313   0.654  0.4216 -0.3097 -0.6493
 5674TIP3    H138581   5.563   6.326   0.707 -0.8338 -0.7258  1.4267
 5674TIP3    H238582   5.483   6.387   0.594  1.5641  0.5702  0.3599
 5675TIP3   OH238583   4.457   3.671   0.054  0.2040 -0.1827 -0.1211
 5675TIP3    H138584   4.451   3.575   0.059  0.2833 -0.4072 -2.8474
 5675TIP3    H238585   4.538   3.692   0.101  0.9303 -1.6210 -0.6486
 5676TIP3   OH238586   1.359   6.476   1.457 -0.2781  0.0045 -0.3595
 5676TIP3    H138587   1.388   6.512   1.541 -2.2556  0.8347  0.0345
 5676TIP3    H238588   1.382   6.543   1.393  1.8755 -0.9376 -0.6425
 5677TIP3   OH238589   5.734   2.025   1.427 -0.5360  0.1955  0.4223
 5677TIP3    H138590   5.687   2.097   1.385 -0.5475  1.1131  1.9636
 5677TIP3    H238591   5.762   2.060   1.511 -1.1121 -1.8075  1.5021
 5678TIP3   OH238592   5.032   0.141   2.022  0.3932 -0.1271  0.2851
 5678TIP3    H138593   5.071   0.209   2.077 -0.9085 -0.8134  2.1873
 5678TIP3    H238594   5.037   0.176   1.933  2.6742  0.9998  0.7969
 5679TIP3   OH238595   5.036   1.022   7.770 -0.3972 -0.1727  0.1338
 5679TIP3    H138596   5.125   1.050   7.752 -0.0238 -2.3367 -1.9515
 5679TIP3    H238597   4.999   1.002   7.683 -2.6682 -0.0504  0.9956
 5680TIP3   OH238598   4.082   1.953   1.306 -0.3648 -0.1233 -0.3854
 5680TIP3    H138599   3.993   1.930   1.282 -0.4213 -0.4555  0.1154
 5680TIP3    H238600   4.088   1.931   1.400  0.5392 -1.0734 -0.6348
 5681TIP3   OH238601   5.290   2.436   1.995 -0.3423  0.5947  0.2178
 5681TIP3    H138602   5.355   2.384   1.949  1.7880 -0.3423  3.9071
 5681TIP3    H238603   5.313   2.527   1.976  0.4532  0.2469 -0.5124
 5682TIP3   OH238604   1.446   2.519   2.220  0.0113 -0.7866  0.0789
 5682TIP3    H138605   1.397   2.499   2.140  0.7978  1.7291 -1.1576
 5682TIP3    H238606   1.419   2.608   2.242  2.8850  0.1763  0.1534
 5683TIP3   OH238607   0.567   6.116   0.891  0.1105  0.1998  0.2038
 5683TIP3    H138608   0.609   6.039   0.930 -1.3849  0.2929  2.1492
 5683TIP3    H238609   0.544   6.171   0.965  0.1686  2.0497 -1.0787
 5684TIP3   OH238610   6.368   0.454   8.195 -0.3326  0.2124  0.8419
 5684TIP3    H138611   6.364   0.534   8.142 -0.2193  0.3208  0.9928
 5684TIP3    H238612   6.284   0.411   8.181  0.1152 -0.3315 -0.3037
 5685TIP3   OH238613   5.575   3.584   8.021  0.3239  0.7006 -0.3925
 5685TIP3    H138614   5.502   3.573   8.082  0.0474  1.2544 -0.6219
 5685TIP3    H238615   5.602   3.494   8.001 -0.8771  0.4521 -1.0075
 5686TIP3   OH238616   4.880   6.237   2.597  0.2202  0.0573  0.2352
 5686TIP3    H138617   4.837   6.291   2.663  0.2493 -0.8588  1.0178
 5686TIP3    H238618   4.889   6.295   2.521 -0.9307  0.7562  0.5995
 5687TIP3   OH238619   3.735   0.331   2.155  0.3678 -0.2713 -0.2415
 5687TIP3    H138620   3.792   0.279   2.213 -1.1835 -0.5203  1.1276
 5687TIP3    H238621   3.648   0.292   2.165 -0.7200  2.1047  0.2785
 5688TIP3   OH238622   3.545   0.239   0.989  0.2892 -0.1959 -0.6695
 5688TIP3    H138623   3.640   0.246   0.982  0.3296  0.9241  0.5016
 5688TIP3    H238624   3.520   0.312   1.045 -1.4348  0.4021 -2.1296
 5689TIP3   OH238625   1.465   0.626   0.353  0.2351 -0.5146  0.1497
 5689TIP3    H138626   1.369   0.624   0.349  0.2184 -0.7889  0.6550
 5689TIP3    H238627   1.488   0.710   0.312 -0.1596 -0.9144 -0.9350
 5690TIP3   OH238628   2.605   5.317   8.992 -0.3608  0.3749 -0.0321
 5690TIP3    H138629   2.534   5.337   9.053 -1.3492  0.5337 -1.1753
 5690TIP3    H238630   2.672   5.274   9.045 -0.9158  1.0631  1.2628
 5691TIP3   OH238631   2.998   3.194   8.522  0.6975  0.1769 -0.1092
 5691TIP3    H138632   2.948   3.143   8.458 -1.3058  0.6194  1.0275
 5691TIP3    H238633   3.044   3.128   8.574 -1.0384 -0.4798  0.6696
 5692TIP3   OH238634   5.198   3.243   8.657 -0.5567  0.4614  0.3946
 5692TIP3    H138635   5.236   3.289   8.731 -1.9664  2.1025  0.1560
 5692TIP3    H238636   5.271   3.230   8.597  0.2129  0.8335  1.2269
 5693TIP3   OH238637   5.736   0.027   1.109 -0.2555  0.1223  0.3672
 5693TIP3    H138638   5.745   0.050   1.017  0.7166  1.4303  0.7586
 5693TIP3    H238639   5.819   0.054   1.149 -1.6103  2.0029  2.0912
 5694TIP3   OH238640   1.379   0.667   1.065 -0.2107 -0.0724  0.0572
 5694TIP3    H138641   1.381   0.617   1.147 -0.3490 -2.1004 -1.1237
 5694TIP3    H238642   1.465   0.709   1.060 -0.2823  0.2719  1.3224
 5695TIP3   OH238643   5.632   3.266   1.240  0.1986  0.5340  0.1236
 5695TIP3    H138644   5.560   3.202   1.243  1.0025 -0.3705  0.8894
 5695TIP3    H238645   5.711   3.212   1.245  1.0501  1.3090 -2.9391
 5696TIP3   OH238646   4.776   4.590   7.623 -0.1253  0.4026 -0.4408
 5696TIP3    H138647   4.688   4.586   7.586 -0.5732  2.1775  0.3493
 5696TIP3    H238648   4.822   4.517   7.582 -2.4568 -1.7526  0.5080
 5697TIP3   OH238649   3.769   0.570   7.389  0.0774  0.2167 -0.0750
 5697TIP3    H138650   3.682   0.608   7.401 -0.3571 -0.2381 -1.5891
 5697TIP3    H238651   3.753   0.479   7.365  0.9154  0.3679 -1.3370
 5698TIP3   OH238652   0.508   6.003   3.420 -0.4141 -0.1425  0.3195
 5698TIP3    H138653   0.591   5.955   3.428 -0.3329 -0.1719 -0.6233
 5698TIP3    H238654   0.512   6.043   3.333 -1.3063  0.0170  0.3466
 5699TIP3   OH238655   4.991   4.010   1.287 -0.1787  0.1089 -0.3816
 5699TIP3    H138656   5.085   3.995   1.293 -0.4687 -1.6214  0.5609
 5699TIP3    H238657   4.980   4.061   1.207  1.4347 -0.7847 -1.2373
 5700TIP3   OH238658   0.287   1.948   7.633  0.0119 -0.6256 -0.0052
 5700TIP3    H138659   0.327   2.030   7.662 -0.9842 -0.6084  1.4077
 5700TIP3    H238660   0.212   1.975   7.581  2.2063 -0.6418 -3.4977
 5701TIP3   OH238661   3.209   1.928   1.502 -0.0145  0.3143 -0.6999
 5701TIP3    H138662   3.283   1.986   1.520 -1.3640  1.7646  0.5779
 5701TIP3    H238663   3.219   1.857   1.565 -0.3015  1.1413  0.3297
 5702TIP3   OH238664   2.196   2.968   2.612  0.7549 -0.8161 -0.6972
 5702TIP3    H138665   2.274   3.022   2.628 -0.0102  0.9271 -2.3611
 5702TIP3    H238666   2.165   2.945   2.699 -0.2625  3.6445  0.3888
 5703TIP3   OH238667   0.705   3.421   0.809 -0.1702  0.4291  0.7082
 5703TIP3    H138668   0.762   3.488   0.774 -1.1380  1.2288  0.6153
 5703TIP3    H238669   0.624   3.467   0.832 -0.2306 -0.3787  2.2965
 5704TIP3   OH238670   5.031   5.374   0.888 -0.4069  0.3323  0.6126
 5704TIP3    H138671   5.033   5.329   0.972 -0.7467  0.1526  0.5276
 5704TIP3    H238672   4.939   5.394   0.873 -0.2625  1.0360  0.6350
 5705TIP3   OH238673   4.340   2.889   2.293  0.2169  0.1686  0.8176
 5705TIP3    H138674   4.287   2.969   2.289 -2.0901 -1.3364 -0.6971
 5705TIP3    H238675   4.431   2.920   2.287 -0.6522  2.5897 -1.8684
 5706TIP3   OH238676   2.420   1.344   2.327  0.1586 -0.2169  0.5287
 5706TIP3    H138677   2.408   1.354   2.422 -0.7180 -1.9956  0.6505
 5706TIP3    H238678   2.512   1.364   2.312  0.9121 -2.0766  2.1487
 5707TIP3   OH238679   5.731   2.594   9.089  0.1503  0.8822  0.1914
 5707TIP3    H138680   5.671   2.663   9.117 -1.2262  1.2585 -3.2085
 5707TIP3    H238681   5.713   2.582   8.995  1.5933 -2.8498  0.1905
 5708TIP3   OH238682   0.202   3.824   1.026 -0.1554 -0.6290  0.1918
 5708TIP3    H138683   0.142   3.886   0.985 -0.0834 -0.9329 -0.3894
 5708TIP3    H238684   0.232   3.769   0.953 -0.8156 -1.8408  0.7958
 5709TIP3   OH238685   4.239   2.799   7.665  0.0938  0.2278 -0.4125
 5709TIP3    H138686   4.209   2.719   7.706  1.8371 -0.0495  0.3762
 5709TIP3    H238687   4.160   2.836   7.625 -1.1824 -0.6979  1.1375
 5710TIP3   OH238688   1.853   5.461   7.916 -0.1237 -0.6906  0.4415
 5710TIP3    H138689   1.792   5.510   7.861 -1.1322 -0.3847  1.7589
 5710TIP3    H238690   1.899   5.528   7.966  2.0524 -0.8569 -1.1969
 5711TIP3   OH238691   4.287   1.769   1.258 -0.0215  0.9158 -0.0399
 5711TIP3    H138692   4.366   1.823   1.249  0.6594  0.4493  2.3422
 5711TIP3    H238693   4.217   1.832   1.276  0.3006  1.1926  0.2662
 5712TIP3   OH238694   1.297   5.728   0.674  0.3504 -0.4836  0.4649
 5712TIP3    H138695   1.391   5.740   0.691  0.5240  2.9219 -1.9864
 5712TIP3    H238696   1.256   5.740   0.760  2.0398 -1.3667  1.4634
 5713TIP3   OH238697   4.208   5.111   1.054 -0.1531  0.2619 -0.2897
 5713TIP3    H138698   4.134   5.127   0.994  0.7567 -0.3753 -1.6433
 5713TIP3    H238699   4.264   5.051   1.005  0.9327  0.2056  0.9972
 5714TIP3   OH238700   2.187   0.974   7.894 -0.7034 -0.2629 -0.0350
 5714TIP3    H138701   2.244   1.012   7.962  0.6665  0.2649 -1.4339
 5714TIP3    H238702   2.099   1.002   7.919 -0.2698 -0.2233  1.6075
 5715TIP3   OH238703   1.546   0.639   8.143 -0.2844  0.1171  0.4486
 5715TIP3    H138704   1.640   0.645   8.130 -0.0757 -0.1510  1.6872
 5715TIP3    H238705   1.536   0.582   8.220 -1.3463  1.7210  1.5673
 5716TIP3   OH238706   2.196   1.918   0.500 -0.3117  0.3348  0.1881
 5716TIP3    H138707   2.174   2.008   0.477 -1.9180 -0.2301 -0.6574
 5716TIP3    H238708   2.111   1.876   0.516  0.3963 -1.0729  0.3918
 5717TIP3   OH238709   6.497   2.177   7.065  0.7452 -0.3415  0.3202
 5717TIP3    H138710   6.557   2.132   7.006  2.7918  1.2100  1.1026
 5717TIP3    H238711   6.419   2.195   7.012  0.8642 -2.5501 -0.6762
 5718TIP3   OH238712   0.484   6.268   2.106  0.2514  0.2350  0.0746
 5718TIP3    H138713   0.533   6.248   2.026  0.1271  0.2945 -0.0173
 5718TIP3    H238714   0.428   6.191   2.119  1.4445 -0.5250  1.0223
 5719TIP3   OH238715   5.017   1.692   0.406  0.0844 -0.4129  0.2375
 5719TIP3    H138716   5.032   1.735   0.322 -1.0233 -1.9530 -0.7840
 5719TIP3    H238717   4.936   1.642   0.394  0.8179 -2.0365  1.6541
 5720TIP3   OH238718   4.161   1.475   0.232  0.0673  0.4446 -0.0092
 5720TIP3    H138719   4.206   1.549   0.273  0.1390  0.3556  0.0734
 5720TIP3    H238720   4.196   1.471   0.143  0.2978  0.3142  0.0856
 5721TIP3   OH238721   0.625   0.607   8.431 -0.3829 -0.7552  0.0058
 5721TIP3    H138722   0.530   0.595   8.432 -0.2030 -2.5536  1.1946
 5721TIP3    H238723   0.641   0.673   8.364 -2.5081 -0.0129  0.1679
 5722TIP3   OH238724   3.464   4.660   7.923 -0.3981  0.4270 -0.5561
 5722TIP3    H138725   3.401   4.647   7.994 -0.6807 -0.0290 -0.8832
 5722TIP3    H238726   3.549   4.664   7.967 -0.4609 -0.9075 -0.2658
 5723TIP3   OH238727   1.393   4.333   9.100  0.4036 -0.6995 -0.1002
 5723TIP3    H138728   1.475   4.291   9.072  0.6261  0.6399 -1.5981
 5723TIP3    H238729   1.371   4.391   9.028 -1.4332 -0.4028  0.6655
 5724TIP3   OH238730   0.963   5.169   2.305  0.1017  0.0354  0.1006
 5724TIP3    H138731   0.912   5.249   2.307  1.5282  0.9627  1.3693
 5724TIP3    H238732   0.960   5.141   2.213 -3.1031 -0.3057  0.2032
 5725TIP3   OH238733   5.149   1.934   1.704  0.0840 -0.4812  0.3294
 5725TIP3    H138734   5.125   1.843   1.685  3.6597 -1.6926  0.8518
 5725TIP3    H238735   5.133   1.944   1.798  0.8011 -1.0411  0.5283
 5726TIP3   OH238736   4.417   2.190   1.237 -0.1048  0.3155  0.7341
 5726TIP3    H138737   4.475   2.233   1.299  0.3275  1.7160 -0.5782
 5726TIP3    H238738   4.349   2.256   1.218 -0.5894 -0.3119  0.2262
 5727TIP3   OH238739   2.648   3.988   1.379 -0.3076 -0.1897 -0.2580
 5727TIP3    H138740   2.657   4.057   1.314  1.1228  0.9216  1.0417
 5727TIP3    H238741   2.555   3.966   1.378 -0.8537  1.8967 -0.5719
 5728TIP3   OH238742   5.171   1.876   8.226  0.5129 -0.4163  0.2008
 5728TIP3    H138743   5.221   1.829   8.293 -0.2248 -0.0728  1.0062
 5728TIP3    H238744   5.179   1.968   8.250  1.1482 -0.1841 -0.8261
 5729TIP3   OH238745   2.951   5.608   0.237  0.5386 -0.0298 -0.0977
 5729TIP3    H138746   2.859   5.628   0.254  0.6875  0.3098  0.3555
 5729TIP3    H238747   2.981   5.680   0.181  0.7270  0.3076  0.4200
 5730TIP3   OH238748   5.256   4.446   0.877  0.0741  0.0048  0.0269
 5730TIP3    H138749   5.269   4.422   0.785 -3.0490  0.5484 -0.6899
 5730TIP3    H238750   5.241   4.540   0.876  0.2268  0.0547  1.1287
 5731TIP3   OH238751   6.421   4.154   2.202  0.0742 -0.4624 -0.6911
 5731TIP3    H138752   6.505   4.133   2.162  1.6587  1.3797  1.4109
 5731TIP3    H238753   6.421   4.249   2.210 -1.2034 -0.5672  1.3512
 5732TIP3   OH238754   6.359   5.808   7.740 -0.3850  0.0138 -0.4668
 5732TIP3    H138755   6.312   5.734   7.703 -1.1741  1.6791 -3.0844
 5732TIP3    H238756   6.298   5.847   7.803 -0.5998 -0.5852 -0.3029
 5733TIP3   OH238757   4.560   3.308   8.744  0.4099  0.2162 -0.3049
 5733TIP3    H138758   4.654   3.315   8.732  0.6359 -0.5394  0.8283
 5733TIP3    H238759   4.536   3.225   8.703  0.0877  0.7953 -1.3168
 5734TIP3   OH238760   6.427   3.598   8.204  0.7177  0.2357 -0.3567
 5734TIP3    H138761   6.514   3.584   8.169  0.4667 -1.3373 -0.4259
 5734TIP3    H238762   6.436   3.582   8.298  0.7249  1.2568 -0.1666
 5735TIP3   OH238763   5.300   6.406   0.947  0.1887  0.1161  0.3469
 5735TIP3    H138764   5.287   6.499   0.967 -1.0796  0.2404 -0.9070
 5735TIP3    H238765   5.237   6.387   0.877  2.4853 -0.9443 -1.5853
 5736TIP3   OH238766   0.237   3.409   8.464  0.2123 -0.2883 -0.0880
 5736TIP3    H138767   0.326   3.434   8.490  1.0270 -2.3531 -0.6656
 5736TIP3    H238768   0.228   3.442   8.374  0.8510 -1.0511 -0.4453
 5737TIP3   OH238769   5.279   6.537   8.250  1.2118 -0.6842 -0.0184
 5737TIP3    H138770   5.244   6.525   8.338 -0.6257 -1.3820 -0.8012
 5737TIP3    H238771   5.331   6.617   8.256  2.9171 -1.8638  2.1881
 5738TIP3   OH238772   4.513   0.427   0.084  0.1314 -0.0176  0.2015
 5738TIP3    H138773   4.469   0.414   0.000  1.2789  2.6817 -0.9333
 5738TIP3    H238774   4.551   0.342   0.105 -1.3887 -1.1121 -1.2747
 5739TIP3   OH238775   0.402   3.593   1.172 -0.1850 -0.4560  0.3994
 5739TIP3    H138776   0.401   3.534   1.247 -1.4319  0.4912  1.1782
 5739TIP3    H238777   0.415   3.680   1.210  0.0648 -0.0584 -0.5683
 5740TIP3   OH238778   4.719   1.954   7.403  0.0425  0.1186  0.2884
 5740TIP3    H138779   4.803   1.909   7.400 -0.0883 -0.0838 -1.7741
 5740TIP3    H238780   4.741   2.046   7.419  0.6289  0.0162  0.0707
 5741TIP3   OH238781   4.346   1.302   2.701 -0.4946  0.1559  0.2053
 5741TIP3    H138782   4.415   1.324   2.763  0.2375 -1.0831 -0.1489
 5741TIP3    H238783   4.357   1.365   2.629 -0.0095  0.2274  0.3416
 5742TIP3   OH238784   6.474   4.253   1.444 -0.4601  0.0433 -0.2602
 5742TIP3    H138785   6.459   4.228   1.353 -0.3578 -1.1268  0.0240
 5742TIP3    H238786   6.462   4.172   1.493  1.6765  0.1442  0.5370
 5743TIP3   OH238787   6.341   1.844   7.145  0.0911 -0.1896 -0.3498
 5743TIP3    H138788   6.284   1.913   7.112  1.4548  1.5452  0.7126
 5743TIP3    H238789   6.287   1.765   7.144 -1.4932  0.8515 -1.7222
 5744TIP3   OH238790   3.851   0.525   8.064  0.0390 -0.0842  0.0179
 5744TIP3    H138791   3.833   0.431   8.052  0.5417 -0.3726  1.3514
 5744TIP3    H238792   3.836   0.563   7.978 -0.7421 -1.3013 -0.4172
 5745TIP3   OH238793   6.649   3.256   0.680  0.5719 -0.1824  0.0995
 5745TIP3    H138794   6.585   3.225   0.745  0.3422  1.5652  0.7451
 5745TIP3    H238795   6.733   3.222   0.711  0.2134 -0.9605  0.2449
 5746TIP3   OH238796   0.928   0.532   1.609 -0.6582  0.1191 -0.1966
 5746TIP3    H138797   0.895   0.560   1.694  0.4918 -1.8976  0.9816
 5746TIP3    H238798   1.022   0.546   1.613 -0.1754 -2.5168  0.0174
 5747TIP3   OH238799   4.370   0.861   1.036  0.1877  0.0519  0.0305
 5747TIP3    H138800   4.398   0.773   1.060  0.3903  0.6480  2.1938
 5747TIP3    H238801   4.324   0.850   0.953  0.3691 -2.0531  0.1653
 5748TIP3   OH238802   4.020   0.119   2.470 -0.9614  0.2369 -0.6102
 5748TIP3    H138803   4.105   0.156   2.445 -0.4618 -1.1316 -1.0661
 5748TIP3    H238804   4.041   0.055   2.538 -0.8766 -3.4159 -3.6970
 5749TIP3   OH238805   1.288   4.693   2.108 -0.6229 -0.0256  0.2548
 5749TIP3    H138806   1.280   4.598   2.117 -1.0624 -0.0263 -0.0858
 5749TIP3    H238807   1.351   4.719   2.175  1.5878 -0.8732 -1.3717
 5750TIP3   OH238808   4.009   6.631   0.719 -0.0590  0.1579 -0.0170
 5750TIP3    H138809   3.937   6.569   0.730  0.0533 -0.6284 -2.8543
 5750TIP3    H238810   3.967   6.715   0.704 -0.3117  0.1058  0.3944
 5751TIP3   OH238811   6.225   3.504   3.026  0.1618 -0.2207  0.0668
 5751TIP3    H138812   6.150   3.446   3.039  0.2573 -0.3629 -0.0240
 5751TIP3    H238813   6.301   3.450   3.044  0.2713 -0.2528 -0.4791
 5752TIP3   OH238814   3.238   0.904   2.567 -0.9414 -0.4075 -0.1759
 5752TIP3    H138815   3.263   0.838   2.632 -1.5547  1.2036  1.7897
 5752TIP3    H238816   3.144   0.915   2.578 -0.8946  0.5987 -0.6738
 5753TIP3   OH238817   5.444   3.169   8.573  0.2875  0.1208  0.2137
 5753TIP3    H138818   5.421   3.106   8.641 -0.1904  0.9870  0.8749
 5753TIP3    H238819   5.476   3.245   8.622 -0.1832  0.8016 -0.5231
 5754TIP3   OH238820   1.796   6.583   8.059  0.2489 -0.4517  1.0588
 5754TIP3    H138821   1.755   6.666   8.031  0.2114 -0.2210  1.7665
 5754TIP3    H238822   1.890   6.598   8.050  0.2095 -0.9226 -0.4075
 5755TIP3   OH238823   3.344   0.861   1.835 -0.5250 -0.3590 -0.8825
 5755TIP3    H138824   3.399   0.810   1.895  1.4997 -0.3748 -2.6507
 5755TIP3    H238825   3.382   0.948   1.837  0.3448 -0.6463 -2.9864
 5756TIP3   OH238826   0.566   2.372   2.097  0.0476  0.0660  0.5731
 5756TIP3    H138827   0.648   2.410   2.129 -0.4369  1.5197  0.1733
 5756TIP3    H238828   0.587   2.337   2.011  0.0593  1.2802  0.0629
 5757TIP3   OH238829   4.772   1.566   0.477  0.1102  0.0156  0.0538
 5757TIP3    H138830   4.679   1.569   0.452  0.1449 -0.2396 -0.1060
 5757TIP3    H238831   4.774   1.511   0.555  0.0866  0.2782  0.2390
 5758TIP3   OH238832   0.900   0.741   0.480  0.0004 -0.2430  0.0508
 5758TIP3    H138833   0.807   0.717   0.479 -0.1468  0.3376 -0.5020
 5758TIP3    H238834   0.902   0.830   0.513  0.3291 -0.1300 -0.2645
 5759TIP3   OH238835   5.967   0.060   8.162 -0.2308  0.1745 -0.4049
 5759TIP3    H138836   6.043   0.114   8.141 -1.9782  3.3787  0.7653
 5759TIP3    H238837   5.926   0.042   8.077  0.8020  0.0083 -0.8844
 5760TIP3   OH238838   2.932   4.987   1.816 -0.1170 -0.3454  0.0013
 5760TIP3    H138839   2.964   4.947   1.897 -0.5440 -0.4413  0.1242
 5760TIP3    H238840   2.885   4.916   1.771  1.1905 -0.6422 -0.9361
 5761TIP3   OH238841   6.077   4.196   1.852 -0.7265  0.2084 -0.6636
 5761TIP3    H138842   6.149   4.236   1.803  1.6192 -2.5103  0.3022
 5761TIP3    H238843   6.048   4.265   1.912  1.2275  1.3618 -0.9478
 5762TIP3   OH238844   5.038   6.002   6.991 -0.0704 -0.4301  0.3396
 5762TIP3    H138845   5.037   6.092   7.023 -0.5957 -0.6704  1.0121
 5762TIP3    H238846   5.094   6.005   6.913  1.2438  0.1697  1.2805
 5763TIP3   OH238847   5.743   2.091   1.091 -0.0560 -0.2839  0.2211
 5763TIP3    H138848   5.771   2.148   1.163  2.4241 -0.7204 -0.3167
 5763TIP3    H238849   5.740   2.148   1.015  0.4683 -0.4612  0.0657
 5764TIP3   OH238850   6.528   4.226   0.086  0.5230  0.4025  0.0911
 5764TIP3    H138851   6.515   4.143   0.039 -1.2816  0.5244  0.2971
 5764TIP3    H238852   6.503   4.206   0.177 -0.2340  1.2386  0.0774
 5765TIP3   OH238853   1.389   5.812   9.028  0.0276  0.3269 -0.5046
 5765TIP3    H138854   1.420   5.721   9.034  1.1652  0.7131 -0.3866
 5765TIP3    H238855   1.407   5.849   9.114  0.9875  1.0988 -1.0262
 5766TIP3   OH238856   6.352   2.932   8.945 -0.0898  0.0324  0.3330
 5766TIP3    H138857   6.436   2.892   8.926  1.2602  1.8616  2.0231
 5766TIP3    H238858   6.352   2.946   9.040 -1.2694  2.2018  0.0880
 5767TIP3   OH238859   5.077   0.095   1.713 -0.0287  0.3830  0.1639
 5767TIP3    H138860   5.055   0.173   1.662 -0.1241  0.0868 -0.2483
 5767TIP3    H238861   5.059   0.021   1.655 -0.8884  0.0028  0.8940
 5768TIP3   OH238862   1.102   5.260   1.594  0.2797  0.0414  0.6869
 5768TIP3    H138863   1.176   5.218   1.638 -0.6418 -1.7187  0.6365
 5768TIP3    H238864   1.025   5.221   1.634 -0.6204 -1.2160 -2.0468
 5769TIP3   OH238865   5.546   6.014   2.488 -0.1670 -0.9364 -0.2406
 5769TIP3    H138866   5.633   6.006   2.449  0.0919 -1.6755  0.4633
 5769TIP3    H238867   5.560   6.058   2.571 -0.5493 -0.5334 -0.3844
 5770TIP3   OH238868   1.098   1.539   0.761  0.4490  0.2830  0.0394
 5770TIP3    H138869   1.087   1.477   0.834  1.9585 -0.0936 -0.0342
 5770TIP3    H238870   1.100   1.625   0.803 -1.5959  0.3223  0.1475
 5771TIP3   OH238871   4.664   0.797   8.405 -0.3225  0.4627 -0.1303
 5771TIP3    H138872   4.648   0.746   8.326  1.2105  0.5243 -0.5262
 5771TIP3    H238873   4.755   0.825   8.396  0.0963 -0.0857  1.9759
 5772TIP3   OH238874   1.698   2.756   1.949 -0.1271  0.2803 -0.7137
 5772TIP3    H138875   1.766   2.806   1.904  0.6993 -1.5957 -1.6717
 5772TIP3    H238876   1.692   2.794   2.036  1.9634  0.6708 -0.7106
 5773TIP3   OH238877   3.277   3.690   6.857 -0.2670 -0.1776 -0.3280
 5773TIP3    H138878   3.303   3.752   6.925 -0.0166  0.0063 -0.5879
 5773TIP3    H238879   3.182   3.701   6.849  0.0137  1.6659 -1.8010
 5774TIP3   OH238880   2.221   5.396   0.363  0.7986  0.3974 -0.0733
 5774TIP3    H138881   2.291   5.332   0.374  1.7850  1.3461 -0.6081
 5774TIP3    H238882   2.149   5.346   0.323  1.5903 -0.3572 -0.6038
 5775TIP3   OH238883   0.393   1.268   2.187  0.2100  0.9914  0.6971
 5775TIP3    H138884   0.399   1.310   2.101  1.0309 -0.7001 -0.1214
 5775TIP3    H238885   0.457   1.315   2.240  2.0581  0.0077 -0.5656
 5776TIP3   OH238886   1.240   0.301   1.562 -0.4187  0.1735 -0.3296
 5776TIP3    H138887   1.213   0.299   1.470  1.1287  0.8125 -0.8307
 5776TIP3    H238888   1.315   0.242   1.566 -0.2319  0.4614  0.4436
 5777TIP3   OH238889   2.935   1.507   2.195  0.1931  0.4226 -0.1474
 5777TIP3    H138890   3.011   1.448   2.186  0.9897  1.2553  0.8748
 5777TIP3    H238891   2.941   1.565   2.119 -0.8789 -1.0839 -1.4334
 5778TIP3   OH238892   1.554   4.796   2.087  0.3902  0.1905  0.6042
 5778TIP3    H138893   1.560   4.718   2.031  0.1093 -0.0833  0.9535
 5778TIP3    H238894   1.575   4.765   2.175 -0.2248  0.3989  0.8324
 5779TIP3   OH238895   3.174   2.373   0.571  0.0710  0.4029 -0.1687
 5779TIP3    H138896   3.219   2.431   0.510 -1.9925  0.5087 -1.6901
 5779TIP3    H238897   3.226   2.378   0.652  2.5049  0.7968 -1.6571
 5780TIP3   OH238898   0.229   0.841   1.704 -0.4218  0.8107  0.5992
 5780TIP3    H138899   0.186   0.808   1.783 -1.2124  1.1345  0.3128
 5780TIP3    H238900   0.179   0.802   1.632  1.2022 -0.7007  0.2209
 5781TIP3   OH238901   5.896   3.896   8.356 -0.0625 -0.1022 -0.3966
 5781TIP3    H138902   5.863   3.948   8.283  2.4898  1.6503 -0.4242
 5781TIP3    H238903   5.947   3.826   8.314  0.4343  0.2106 -0.3191
 5782TIP3   OH238904   0.972   1.242   0.798 -0.3174 -0.5624  0.4494
 5782TIP3    H138905   0.952   1.294   0.720 -0.2208 -1.3903 -0.1485
 5782TIP3    H238906   1.064   1.259   0.815 -0.7941  1.0837  1.5280
 5783TIP3   OH238907   4.546   4.647   2.085 -0.2786  0.0444 -0.0346
 5783TIP3    H138908   4.514   4.616   2.170 -0.5224 -0.5037 -0.3284
 5783TIP3    H238909   4.639   4.624   2.085 -0.5324 -1.0088 -0.3955
 5784TIP3   OH238910   1.992   0.900   3.651 -0.6821  0.0642  0.1231
 5784TIP3    H138911   1.996   0.814   3.608  4.6905  0.9725 -1.9193
 5784TIP3    H238912   2.017   0.883   3.741  1.9520 -0.5326 -0.6289
 5785TIP3   OH238913   0.853   3.192   0.787  0.6216 -0.9137  0.1328
 5785TIP3    H138914   0.795   3.268   0.778  1.1507 -0.4911  0.2026
 5785TIP3    H238915   0.936   3.221   0.749  0.5893 -1.7517 -0.6002
 5786TIP3   OH238916   3.441   5.473   1.259 -0.8697  1.0231 -0.2022
 5786TIP3    H138917   3.370   5.469   1.195 -0.6949 -0.6891 -0.3338
 5786TIP3    H238918   3.427   5.555   1.305 -0.7587  2.5747 -2.7161
 5787TIP3   OH238919   0.782   5.912   0.663  0.0861  0.8342 -0.2492
 5787TIP3    H138920   0.776   5.987   0.722  2.7318  1.3285 -0.4659
 5787TIP3    H238921   0.796   5.837   0.720 -3.1093  0.2815  0.0075
 5788TIP3   OH238922   6.116   6.622   1.267  0.3107 -0.0536  0.3580
 5788TIP3    H138923   6.055   6.577   1.325  1.1422  1.2333  2.3250
 5788TIP3    H238924   6.168   6.552   1.227 -2.4209 -1.2140 -1.5088
 5789TIP3   OH238925   5.563   2.227   2.241  0.2332  0.7838  0.4857
 5789TIP3    H138926   5.515   2.284   2.302  1.9816  1.1986  1.5444
 5789TIP3    H238927   5.570   2.144   2.288  1.8889  1.2087  1.0625
 5790TIP3   OH238928   0.008   1.727   8.830  0.1178 -0.3250  0.7373
 5790TIP3    H138929  -0.066   1.685   8.786  1.7045  0.6847 -3.4071
 5790TIP3    H238930  -0.032   1.789   8.890 -2.5198  0.3411 -1.4593
 5791TIP3   OH238931   5.503   4.975   3.151  0.2822 -0.3970  0.6724
 5791TIP3    H138932   5.444   4.943   3.220  1.7645 -1.3519  1.5397
 5791TIP3    H238933   5.562   5.035   3.196  0.6024 -0.1992 -0.0009
 5792TIP3   OH238934   2.412   6.234   0.260 -0.4182 -0.0806 -0.2670
 5792TIP3    H138935   2.441   6.260   0.173  0.5354 -0.7808 -0.1729
 5792TIP3    H238936   2.393   6.317   0.305  0.6231  0.3681 -0.6261
 5793TIP3   OH238937   6.540   1.922   0.803 -0.1768 -0.1545  0.5966
 5793TIP3    H138938   6.603   1.851   0.820  0.3941  0.2399  0.1417
 5793TIP3    H238939   6.510   1.906   0.714  0.0418  0.2361  0.4492
 5794TIP3   OH238940   2.134   2.088   7.853  0.7191 -0.3115 -0.3475
 5794TIP3    H138941   2.094   2.061   7.771 -0.2698  2.4772 -0.8819
 5794TIP3    H238942   2.212   2.136   7.827  1.2838 -0.7807  0.4418
 5795TIP3   OH238943   3.257   4.030   1.553  0.6707  0.1556 -0.0160
 5795TIP3    H138944   3.224   3.950   1.595 -0.6198  1.3163  1.3100
 5795TIP3    H238945   3.186   4.058   1.495  1.2039  0.2384 -0.6448
 5796TIP3   OH238946   4.841   5.814   2.471 -0.3572 -0.4318 -0.7847
 5796TIP3    H138947   4.893   5.738   2.445  0.5729  0.3853 -1.4049
 5796TIP3    H238948   4.901   5.867   2.523 -0.5504  0.5356 -1.5196
 5797TIP3   OH238949   0.470   1.510   7.522  0.4864  0.2703 -0.0859
 5797TIP3    H138950   0.416   1.518   7.600  0.9039  2.5976  0.0146
 5797TIP3    H238951   0.415   1.542   7.450  1.0872  0.9387 -0.2632
 5798TIP3   OH238952   3.815   6.443   1.409  0.7339 -0.2266 -0.0644
 5798TIP3    H138953   3.865   6.477   1.334  1.3076 -1.2688 -0.1742
 5798TIP3    H238954   3.857   6.360   1.430  0.9600  0.3359  1.8294
 5799TIP3   OH238955   1.469   2.691   7.098  0.0626  0.5482  0.2037
 5799TIP3    H138956   1.430   2.776   7.116 -0.6132  0.0603  1.1801
 5799TIP3    H238957   1.527   2.705   7.023 -1.6671  1.4114 -1.0446
 5800TIP3   OH238958   4.380   1.752   0.594  0.0321 -0.2796  0.1664
 5800TIP3    H138959   4.332   1.834   0.609  0.0310  0.0225 -1.3165
 5800TIP3    H238960   4.452   1.755   0.656 -0.2030  0.6638  0.4116
 5801TIP3   OH238961   5.802   1.256   0.639  0.6451 -0.2566 -0.2464
 5801TIP3    H138962   5.830   1.173   0.600  1.6898 -0.8772  1.6602
 5801TIP3    H238963   5.843   1.324   0.585 -1.4717 -0.8576 -2.7656
 5802TIP3   OH238964   0.140   5.537   7.644  0.0671  0.0928  0.0812
 5802TIP3    H138965   0.045   5.537   7.642  0.0698  0.0656 -0.9588
 5802TIP3    H238966   0.165   5.474   7.576  0.8265 -0.9541  1.2878
 5803TIP3   OH238967   4.500   4.220   1.236  0.8253  0.1129  0.4732
 5803TIP3    H138968   4.415   4.216   1.193  0.6403 -0.1717  0.8590
 5803TIP3    H238969   4.540   4.300   1.201 -0.1479  0.9906  1.2807
 5804TIP3   OH238970   0.373   4.469   2.603 -0.3821 -0.3409  0.0108
 5804TIP3    H138971   0.457   4.474   2.649  0.3697 -1.4614 -1.1521
 5804TIP3    H238972   0.386   4.400   2.538 -0.7259  2.3639 -3.1955
 5805TIP3   OH238973   4.240   4.417   0.543 -0.0394  0.7107 -0.2889
 5805TIP3    H138974   4.207   4.396   0.630  0.7079  1.0899  0.0894
 5805TIP3    H238975   4.171   4.386   0.483 -0.0211 -0.6303  0.3592
 5806TIP3   OH238976   1.052   6.648   8.874  0.3429  0.9080 -0.2686
 5806TIP3    H138977   0.961   6.675   8.862  0.1639  0.8143  0.7365
 5806TIP3    H238978   1.052   6.554   8.861  0.5218  1.0578 -1.4209
 5807TIP3   OH238979   6.565   2.166   8.482 -0.2700  0.3890  0.4042
 5807TIP3    H138980   6.496   2.195   8.540 -0.6432 -2.8491  1.8106
 5807TIP3    H238981   6.642   2.158   8.538  0.1519 -0.0053 -0.2144
 5808TIP3   OH238982   4.257   3.450   0.938  0.2948 -0.4184 -0.0635
 5808TIP3    H138983   4.318   3.395   0.888 -0.5420  0.1035 -1.7394
 5808TIP3    H238984   4.276   3.539   0.909 -2.0551 -0.3332 -1.6301
 5809TIP3   OH238985   4.820   4.750   1.120 -0.0253  0.1247 -0.0817
 5809TIP3    H138986   4.734   4.730   1.158  0.8287  0.0563  1.9458
 5809TIP3    H238987   4.863   4.665   1.115  0.7285  0.4149  1.0778
 5810TIP3   OH238988   5.542   5.051   1.654  0.2648  0.2295  0.4797
 5810TIP3    H138989   5.636   5.067   1.668  0.5468 -1.5652  0.9932
 5810TIP3    H238990   5.514   5.008   1.735 -0.8509  0.1689  0.0697
 5811TIP3   OH238991   5.551   4.889   1.879  0.4462  0.0225  0.0325
 5811TIP3    H138992   5.636   4.845   1.874  0.7883  0.6095  0.4707
 5811TIP3    H238993   5.509   4.852   1.956  0.2465 -0.3553 -0.2527
 5812TIP3   OH238994   3.859   3.002   1.376  0.1397 -0.2390 -0.1583
 5812TIP3    H138995   3.850   3.022   1.469 -2.5187 -0.6861 -0.2441
 5812TIP3    H238996   3.833   3.083   1.332 -0.7172 -0.6809 -0.4901
 5813TIP3   OH238997   5.698   1.114   0.275  0.1538  0.2868 -0.3578
 5813TIP3    H138998   5.755   1.096   0.201 -3.0524 -2.1680 -2.5184
 5813TIP3    H238999   5.733   1.060   0.346  0.2736 -1.6313 -1.7982
 5814TIP3   OH239000   3.381   2.561   8.914 -0.5257 -0.3332  0.0990
 5814TIP3    H139001   3.349   2.470   8.917 -0.4608 -0.3292  1.1453
 5814TIP3    H239002   3.340   2.604   8.988  1.3168 -0.1446  1.0831
 5815TIP3   OH239003   3.354   5.652   0.086  0.4254 -0.3482 -0.3870
 5815TIP3    H139004   3.367   5.737   0.044 -0.0390  1.4708  2.8577
 5815TIP3    H239005   3.438   5.632   0.126  0.1136 -0.7202  0.0883
 5816TIP3   OH239006   0.008   5.364   0.033 -0.8323 -0.2260  0.2786
 5816TIP3    H139007  -0.012   5.316  -0.048 -0.6938 -0.8084  0.5872
 5816TIP3    H239008   0.086   5.415   0.011 -2.2721  1.6509 -0.7679
 5817TIP3   OH239009   4.642   2.269   1.464 -0.2131  0.4821  0.3953
 5817TIP3    H139010   4.721   2.214   1.473 -0.5563 -0.0706  0.0999
 5817TIP3    H239011   4.668   2.339   1.405 -0.2558 -0.3394 -0.6390
 5818TIP3   OH239012   4.304   4.903   2.221  0.0580 -0.7407 -0.5141
 5818TIP3    H139013   4.261   4.833   2.270 -0.9186 -0.1731 -0.5347
 5818TIP3    H239014   4.290   4.981   2.274  1.2908 -0.5757 -0.4032
 5819TIP3   OH239015   1.482   3.576   8.263  0.4111  0.2924 -0.0836
 5819TIP3    H139016   1.390   3.559   8.282  0.1485 -0.4194 -1.7769
 5819TIP3    H239017   1.514   3.496   8.222  1.4186  0.9988 -0.7603
 5820TIP3   OH239018   1.849   2.957   0.831 -0.2128 -0.0893 -0.0637
 5820TIP3    H139019   1.775   2.919   0.878  0.0316  0.0097  0.4114
 5820TIP3    H239020   1.811   3.026   0.777 -0.2601  1.2329  1.5668
 5821TIP3   OH239021   1.831   4.330   8.689 -0.8481  0.3499  0.0311
 5821TIP3    H139022   1.866   4.268   8.625 -0.7994  1.0359 -0.6261
 5821TIP3    H239023   1.746   4.293   8.714  0.3648 -1.4344  1.7906
 5822TIP3   OH239024   2.379   0.965   0.583 -0.4979  0.2406 -0.4823
 5822TIP3    H139025   2.332   1.048   0.585  0.3999  0.7499  1.1231
 5822TIP3    H239026   2.471   0.990   0.582 -0.2008 -0.7238  0.7337
 5823TIP3   OH239027   6.348   6.109   7.138 -0.2862 -0.6558  0.4841
 5823TIP3    H139028   6.329   6.015   7.140 -1.2623 -0.7118 -3.3697
 5823TIP3    H239029   6.264   6.152   7.149  0.1511 -0.1674  2.1907
 5824TIP3   OH239030   6.643   0.436   1.231 -0.1381 -0.1014 -0.2147
 5824TIP3    H139031   6.737   0.434   1.216 -0.3867 -0.0081 -2.0051
 5824TIP3    H239032   6.610   0.357   1.187 -0.9368  0.0719  0.0515
 5825TIP3   OH239033   1.966   2.273   0.148 -0.3913 -0.0583 -0.7269
 5825TIP3    H139034   1.934   2.301   0.062  0.4420  0.1323 -0.9814
 5825TIP3    H239035   1.978   2.354   0.197 -1.5978 -0.2055 -0.1488
 5826TIP3   OH239036   2.252   4.167   0.598 -0.0708  0.1388  0.3995
 5826TIP3    H139037   2.158   4.148   0.591  0.1412 -0.7247 -0.3446
 5826TIP3    H239038   2.256   4.256   0.632 -1.1458 -0.3652  1.9780
 5827TIP3   OH239039   5.322   1.110   1.705  0.2596  0.4019  0.1735
 5827TIP3    H139040   5.233   1.122   1.670  0.6506  0.1921 -0.9565
 5827TIP3    H239041   5.359   1.198   1.705  0.4716  0.3262 -0.5994
 5828TIP3   OH239042   3.798   5.072   0.033 -0.0018 -0.0844 -0.2682
 5828TIP3    H139043   3.763   5.034  -0.048 -1.3847  0.7880 -0.1192
 5828TIP3    H239044   3.858   5.006   0.067 -0.2055 -0.9135 -1.4614
 5829TIP3   OH239045   0.878   3.710   1.858 -0.1576 -0.1188  1.2731
 5829TIP3    H139046   0.783   3.716   1.856 -0.4191 -3.0109 -1.4472
 5829TIP3    H239047   0.907   3.761   1.782  0.1778 -1.7527  0.2691
 5830TIP3   OH239048   2.095   2.484   1.137 -0.2666  0.7382 -0.2451
 5830TIP3    H139049   2.024   2.420   1.149  1.0239 -0.4150  1.6874
 5830TIP3    H239050   2.133   2.495   1.224  3.8828 -1.0090 -1.5960
 5831TIP3   OH239051   4.671   4.255   7.860 -0.1944 -0.4572  0.1347
 5831TIP3    H139052   4.660   4.175   7.810 -0.2359 -1.1673  1.2574
 5831TIP3    H239053   4.613   4.318   7.818  0.1587 -0.8800 -1.0151
 5832TIP3   OH239054   5.544   1.293   2.530  0.4108  0.2083 -0.0135
 5832TIP3    H139055   5.486   1.319   2.602  0.3465 -1.3828  0.5541
 5832TIP3    H239056   5.487   1.293   2.453  0.1463  0.6062  0.1756
 5833TIP3   OH239057   0.681   2.762   1.934  0.4733 -0.3525 -0.1057
 5833TIP3    H139058   0.732   2.841   1.951  0.3419  0.2578 -2.2797
 5833TIP3    H239059   0.614   2.790   1.871  0.8543 -2.3218 -1.4675
 5834TIP3   OH239060   5.902   1.207   1.381  0.2693 -0.1931 -0.1088
 5834TIP3    H139061   5.944   1.202   1.295  0.0387  0.9672 -0.3043
 5834TIP3    H239062   5.837   1.275   1.372 -0.3214 -0.6269  0.7697
 5835TIP3   OH239063   2.409   5.958   1.281 -0.4375 -0.0578 -0.4597
 5835TIP3    H139064   2.335   6.015   1.260 -0.5007  0.5129  1.1662
 5835TIP3    H239065   2.369   5.878   1.316 -0.2957  0.0591 -0.0271
 5836TIP3   OH239066   2.547   2.656   7.699  0.0230 -0.3783  0.2229
 5836TIP3    H139067   2.561   2.750   7.706 -1.8491 -0.1041  1.0135
 5836TIP3    H239068   2.610   2.627   7.633  0.6184  1.4209 -0.0533
 5837TIP3   OH239069   0.966   2.179   7.553 -0.3721 -0.0194 -0.0187
 5837TIP3    H139070   0.887   2.209   7.597 -0.7733  1.6860 -1.7710
 5837TIP3    H239071   0.944   2.182   7.460  1.2304 -1.1295 -0.4844
 5838TIP3   OH239072   5.718   4.085   2.435 -0.5383 -0.1749  0.3930
 5838TIP3    H139073   5.669   4.095   2.517 -0.3409  0.5861  0.4250
 5838TIP3    H239074   5.755   3.997   2.440  0.1586  0.1600  1.5032
 5839TIP3   OH239075   1.415   3.082   8.087  0.2105  0.2499  0.1232
 5839TIP3    H139076   1.374   3.168   8.092 -2.7750 -0.8777 -2.2124
 5839TIP3    H239077   1.420   3.063   7.993  1.4052 -1.8770  0.5456
 5840TIP3   OH239078   0.456   2.889   1.824  0.5232  0.0754  0.0090
 5840TIP3    H139079   0.454   2.915   1.916 -1.0627 -1.4727  0.4587
 5840TIP3    H239080   0.430   2.797   1.824 -0.1600  0.2169 -2.0444
 5841TIP3   OH239081   2.799   0.449   8.883 -0.3328 -0.3934 -0.0405
 5841TIP3    H139082   2.725   0.463   8.825 -0.5132 -0.9852  0.0339
 5841TIP3    H239083   2.770   0.379   8.943 -0.0778  0.0585  0.6252
 5842TIP3   OH239084   3.377   3.193   8.083 -0.1560  0.0133 -0.0141
 5842TIP3    H139085   3.392   3.288   8.084 -1.0300  0.1523  0.2091
 5842TIP3    H239086   3.306   3.179   8.145  0.0113 -0.8021  0.0055
 5843TIP3   OH239087   5.573   2.588   8.447  0.1943  0.4605  0.1543
 5843TIP3    H139088   5.548   2.578   8.539  0.0893  1.0311  0.1951
 5843TIP3    H239089   5.583   2.499   8.414 -0.5050  0.2411  0.5212
 5844TIP3   OH239090   0.373   3.019   8.477  0.3207 -0.0218  0.3155
 5844TIP3    H139091   0.434   2.979   8.539  0.1864  0.5425  0.8271
 5844TIP3    H239092   0.428   3.066   8.415  0.4790 -0.9625 -0.2791
 5845TIP3   OH239093   4.436   6.530   8.475 -0.9083  0.0747 -0.0648
 5845TIP3    H139094   4.442   6.449   8.423 -0.3548  0.1903 -0.1885
 5845TIP3    H239095   4.362   6.577   8.437  0.1636  0.6840 -1.5326
 5846TIP3   OH239096   6.476   3.704   1.974 -0.0614  0.2292 -0.1709
 5846TIP3    H139097   6.537   3.646   2.020 -0.0546  0.3680 -0.0080
 5846TIP3    H239098   6.389   3.676   2.004 -0.2984 -1.8248 -2.4273
 5847TIP3   OH239099   3.510   3.183   1.737  0.0229  0.1271 -0.3069
 5847TIP3    H139100   3.561   3.252   1.780 -0.0016 -0.8663  1.4215
 5847TIP3    H239101   3.512   3.110   1.799 -0.6965 -1.1158 -1.6966
 5848TIP3   OH239102   6.413   5.892   2.250  0.1409  0.0716  0.6705
 5848TIP3    H139103   6.428   5.905   2.344 -1.1508 -1.5755  1.1585
 5848TIP3    H239104   6.401   5.980   2.215 -1.2657  0.6298  2.4321
 5849TIP3   OH239105   5.430   1.130   8.900 -0.1033  0.1931  0.0901
 5849TIP3    H139106   5.443   1.225   8.900 -1.3176  0.3964 -1.3473
 5849TIP3    H239107   5.449   1.103   8.990 -2.1785  2.1705  1.2048
 5850TIP3   OH239108   1.166   0.591   8.133 -0.0801  0.1294  0.0817
 5850TIP3    H139109   1.109   0.642   8.190 -1.0189  0.0019 -0.7077
 5850TIP3    H239110   1.239   0.565   8.189  0.5923  2.5504  0.4488
 5851TIP3   OH239111   3.646   5.913   8.043  0.0620  0.0653  0.1374
 5851TIP3    H139112   3.628   5.934   7.952 -0.6501 -1.1812 -0.0409
 5851TIP3    H239113   3.560   5.898   8.082  0.3559  0.5758  1.0181
 5852TIP3   OH239114   5.102   6.614   1.504  0.2217 -0.1983  0.5296
 5852TIP3    H139115   5.120   6.707   1.491  0.1515  0.0406  1.9780
 5852TIP3    H239116   5.139   6.572   1.427 -0.5856  1.1081 -0.6401
 5853TIP3   OH239117   5.090   3.810   7.891 -0.1090  0.1957  0.4658
 5853TIP3    H139118   5.059   3.797   7.801  0.5009  0.6891  0.1835
 5853TIP3    H239119   5.156   3.742   7.903 -1.3441 -0.9341  1.1089
 5854TIP3   OH239120   4.685   0.050   0.364 -0.5374  0.2953  0.2967
 5854TIP3    H139121   4.708   0.134   0.404 -0.7051 -0.0350  1.1176
 5854TIP3    H239122   4.769   0.014   0.334 -0.0447 -0.4597  2.3965
 5855TIP3   OH239123   3.373   1.471   0.708  0.0498  0.0642  0.4853
 5855TIP3    H139124   3.390   1.486   0.801  3.0655 -1.9613  0.3670
 5855TIP3    H239125   3.339   1.382   0.703 -0.3873  0.2636 -0.3546
 5856TIP3   OH239126   2.695   0.592   2.577  0.6126  0.4790 -0.0680
 5856TIP3    H139127   2.615   0.555   2.614 -0.1166  2.0968  0.0907
 5856TIP3    H239128   2.754   0.601   2.652  1.2427 -1.3499 -0.3003
 5857TIP3   OH239129   3.489   1.518   2.160  0.4451  0.8085  0.0456
 5857TIP3    H139130   3.443   1.580   2.216  0.0299  1.0068 -0.5076
 5857TIP3    H239131   3.490   1.437   2.211 -2.1752  0.2495 -0.6592
 5858TIP3   OH239132   5.911   2.996   0.139  0.1073 -0.3311  0.2496
 5858TIP3    H139133   5.954   2.910   0.141  0.6063 -0.1367 -1.0103
 5858TIP3    H239134   5.819   2.977   0.120  0.3385 -0.5798 -0.7126
 5859TIP3   OH239135   3.631   5.356   1.827  0.4077  0.1612 -0.2346
 5859TIP3    H139136   3.557   5.296   1.831  0.1313  0.4772 -0.5355
 5859TIP3    H239137   3.708   5.299   1.821  0.0803 -0.1703 -1.7181
 5860TIP3   OH239138   3.030   5.638   1.953 -0.2174 -0.5132 -0.3811
 5860TIP3    H139139   2.997   5.597   1.873  1.6612 -1.1254 -0.8950
 5860TIP3    H239140   2.965   5.617   2.020 -0.2310 -2.7881 -1.0342
 5861TIP3   OH239141   4.942   2.898   2.159  0.0147  0.2560  0.5557
 5861TIP3    H139142   4.920   2.972   2.216 -1.5631  0.0947  0.1999
 5861TIP3    H239143   4.934   2.821   2.216  2.1491  0.3528  1.0577
 5862TIP3   OH239144   1.622   3.198   1.614 -0.3291  0.2643 -0.0587
 5862TIP3    H139145   1.669   3.281   1.600  0.6469 -0.3020 -0.1736
 5862TIP3    H239146   1.616   3.191   1.709 -0.3399  0.4200 -0.0461
 5863TIP3   OH239147   1.029   3.982   7.519  0.3353  1.0255 -0.4705
 5863TIP3    H139148   1.018   3.889   7.499  1.5230  1.0166 -1.1683
 5863TIP3    H239149   0.983   4.028   7.448 -2.1044  1.0219  0.9913
 5864TIP3   OH239150   4.227   4.447   7.246  0.0278 -0.6272 -0.5946
 5864TIP3    H139151   4.293   4.515   7.234  0.2533 -0.4757  1.2390
 5864TIP3    H239152   4.265   4.369   7.205 -0.0351  0.1875 -2.3006
 5865TIP3   OH239153   0.618   6.644   0.981 -0.0252  0.2275  0.0907
 5865TIP3    H139154   0.649   6.719   1.031  1.0257  0.7125 -1.2656
 5865TIP3    H239155   0.692   6.583   0.980 -0.0657  0.1816 -0.7868
 5866TIP3   OH239156   5.334   0.165   1.706 -0.3799 -0.3156  0.2522
 5866TIP3    H139157   5.244   0.136   1.692 -0.9137  1.3418 -0.0617
 5866TIP3    H239158   5.379   0.146   1.623 -1.4222  2.0812 -0.9694
 5867TIP3   OH239159   0.114   4.780   1.265  0.4966 -0.1195 -0.1328
 5867TIP3    H139160   0.047   4.847   1.274 -0.4633 -0.9086 -1.0727
 5867TIP3    H239161   0.065   4.698   1.257  1.3646 -0.4470 -3.7864
 5868TIP3   OH239162   2.650   6.719   0.426  0.3841 -0.2969  0.1949
 5868TIP3    H139163   2.593   6.672   0.488 -1.3494  0.7402 -0.5399
 5868TIP3    H239164   2.590   6.751   0.358  1.3823  3.0015  0.6661
 5869TIP3   OH239165   5.272   4.941   3.298 -0.1160  0.2660  0.3233
 5869TIP3    H139166   5.218   5.009   3.338  0.2610  0.3382  0.7217
 5869TIP3    H239167   5.215   4.864   3.295 -1.0938  1.0117 -1.6336
 5870TIP3   OH239168   6.425   3.310   2.445  0.5110  0.6195 -0.1798
 5870TIP3    H139169   6.474   3.392   2.446  1.9826 -0.1582 -2.3909
 5870TIP3    H239170   6.348   3.329   2.391  0.8487  0.5503 -0.6874
 5871TIP3   OH239171   5.957   0.144   1.213 -0.4024 -0.0942  0.6705
 5871TIP3    H139172   6.025   0.097   1.262  1.4838  0.0990 -1.5524
 5871TIP3    H239173   5.940   0.223   1.264  0.3357 -0.6345  1.7864
 5872TIP3   OH239174   1.476   3.219   8.519  0.0727 -0.0466  0.6216
 5872TIP3    H139175   1.432   3.148   8.565 -0.4129 -0.6438 -0.7051
 5872TIP3    H239176   1.416   3.242   8.447  1.0607  0.4385 -0.0695
 5873TIP3   OH239177   5.723   0.089   7.443  0.0696 -0.3279 -0.0040
 5873TIP3    H139178   5.803   0.048   7.409  0.4545 -1.0610  1.6361
 5873TIP3    H239179   5.656   0.070   7.378  0.6798 -1.9200 -0.2077
 5874TIP3   OH239180   2.493   4.949   8.214 -0.3188 -0.5911 -0.1093
 5874TIP3    H139181   2.557   5.021   8.215 -0.4180 -0.4454  2.4772
 5874TIP3    H239182   2.410   4.990   8.192  0.2075 -0.5881 -2.3179
 5875TIP3   OH239183   1.481   4.392   7.877 -0.4009 -0.1169  0.0401
 5875TIP3    H139184   1.396   4.407   7.836 -0.1312  1.2627 -0.0372
 5875TIP3    H239185   1.505   4.476   7.915 -0.2794 -1.1330  2.4057
 5876TIP3   OH239186   0.008   3.095   7.446 -0.0917 -0.0290  0.4130
 5876TIP3    H139187   0.058   3.176   7.429 -0.7175  0.5406  1.2208
 5876TIP3    H239188   0.075   3.031   7.470  0.4494  0.1434 -0.5806
 5877TIP3   OH239189   1.618   1.323   8.311 -0.6526 -0.0091 -0.2353
 5877TIP3    H139190   1.534   1.364   8.332 -0.4142 -0.2465  1.3121
 5877TIP3    H239191   1.622   1.246   8.368  1.4319  1.0776  1.2219
 5878TIP3   OH239192   3.195   3.355   8.635  0.0344 -0.0224  0.3808
 5878TIP3    H139193   3.265   3.339   8.572 -1.0738  0.9898 -1.1641
 5878TIP3    H239194   3.126   3.294   8.611 -1.0880  1.5548 -0.5575
 5879TIP3   OH239195   4.407   3.105   1.811  0.6130 -0.4012 -0.7478
 5879TIP3    H139196   4.344   3.066   1.872  1.5644  1.1097  1.3285
 5879TIP3    H239197   4.371   3.086   1.724 -0.0134 -3.9926  0.1451
 5880TIP3   OH239198   2.582   2.537   8.170 -0.2081  0.2904  0.4549
 5880TIP3    H139199   2.658   2.502   8.124  1.3376  0.3786  2.7577
 5880TIP3    H239200   2.563   2.620   8.126 -0.1768 -0.5955 -1.3068
 5881TIP3   OH239201   0.711   1.172   1.005  0.1829  0.3189  0.5565
 5881TIP3    H139202   0.713   1.077   1.011 -1.0500  0.2357 -0.0073
 5881TIP3    H239203   0.760   1.193   0.926 -2.5100 -0.1426 -1.3775
 5882TIP3   OH239204   2.753   4.575   8.071  0.6560  0.1968  0.2247
 5882TIP3    H139205   2.838   4.562   8.030  0.1534  0.4202 -0.9306
 5882TIP3    H239206   2.736   4.669   8.064 -1.0165 -0.1969 -2.4083
 5883TIP3   OH239207   2.539   0.138   1.509 -0.0010  0.3704 -0.0678
 5883TIP3    H139208   2.585   0.072   1.562  2.2846  0.7276 -1.4995
 5883TIP3    H239209   2.454   0.098   1.491 -0.1883 -0.5161  2.3062
 5884TIP3   OH239210   1.850   1.200   1.859  0.1401 -0.6372  0.4142
 5884TIP3    H139211   1.785   1.259   1.896  1.1574  1.5895 -1.1463
 5884TIP3    H239212   1.874   1.142   1.932 -0.3788  1.3279  2.2452
 5885TIP3   OH239213   2.489   0.707   8.133 -0.0789  0.0410 -0.2975
 5885TIP3    H139214   2.395   0.720   8.146 -0.1648  2.0257 -2.3284
 5885TIP3    H239215   2.523   0.794   8.112  1.8614 -0.9652 -1.6328
 5886TIP3   OH239216   2.366   5.318   8.345 -0.0939 -0.0591 -0.5862
 5886TIP3    H139217   2.322   5.394   8.383  0.0698 -0.5332  0.6103
 5886TIP3    H239218   2.405   5.273   8.420 -0.0040 -1.2142 -1.2979
 5887TIP3   OH239219   4.083   5.473   1.215 -0.2020  0.0032  0.1624
 5887TIP3    H139220   4.084   5.407   1.145  0.3674  0.2780 -0.0939
 5887TIP3    H239221   4.008   5.449   1.269 -0.4032 -0.4587 -0.3102
 5888TIP3   OH239222   0.945   6.118   7.895 -0.1856 -0.7691 -0.2033
 5888TIP3    H139223   0.973   6.050   7.833 -2.3005 -1.9411  0.0563
 5888TIP3    H239224   0.857   6.092   7.921  1.0632 -1.1629  4.4534
 5889TIP3   OH239225   2.213   1.776   8.863 -1.0108  0.0753 -0.5840
 5889TIP3    H139226   2.147   1.786   8.931  0.0076  0.3190  0.4062
 5889TIP3    H239227   2.218   1.682   8.849  0.6891 -0.2780  1.7249
 5890TIP3   OH239228   5.240   3.671   1.780  0.5638  0.0665 -0.1647
 5890TIP3    H139229   5.221   3.714   1.863  0.8901  1.1727 -0.6450
 5890TIP3    H239230   5.303   3.602   1.802 -1.3391 -1.4507  0.9078
 5891TIP3   OH239231   3.545   3.578   1.613  0.1271  0.0879  0.0257
 5891TIP3    H139232   3.468   3.611   1.566 -0.7938 -2.3227 -0.3447
 5891TIP3    H239233   3.531   3.606   1.704 -0.7158  0.4910 -0.2153
 5892TIP3   OH239234   5.562   6.040   1.549  0.1348  0.2042 -0.1447
 5892TIP3    H139235   5.616   6.004   1.478 -0.1381 -1.2103  0.3368
 5892TIP3    H239236   5.473   6.036   1.514 -0.0157 -0.6307  0.3213
 5893TIP3   OH239237   1.889   5.804   0.227  0.3309  0.0806 -0.1246
 5893TIP3    H139238   1.958   5.742   0.205 -0.4614 -0.0441 -2.5179
 5893TIP3    H239239   1.922   5.889   0.198 -0.2470  0.1045 -0.7504
 5894TIP3   OH239240   0.353   1.360   1.921 -0.2893  0.0244  0.4427
 5894TIP3    H139241   0.432   1.411   1.903 -0.4406  1.0082  2.2757
 5894TIP3    H239242   0.282   1.412   1.882 -0.2457  0.2552  0.6667
 5895TIP3   OH239243   5.654   1.030   6.954  0.3930 -0.4656 -0.0042
 5895TIP3    H139244   5.592   0.991   7.017  0.1490 -0.3495 -0.1693
 5895TIP3    H239245   5.693   0.954   6.909  1.3801 -0.5994  1.0347
 5896TIP3   OH239246   5.357   2.496   7.319 -0.8988 -0.2424  0.3923
 5896TIP3    H139247   5.315   2.543   7.391 -1.2478 -1.5962  1.0992
 5896TIP3    H239248   5.319   2.409   7.322  0.5780 -0.9388 -0.1479
 5897TIP3   OH239249   6.035   5.545   1.878 -0.0655 -0.2971 -0.0432
 5897TIP3    H139250   6.025   5.453   1.903 -1.1157  0.0275  0.8092
 5897TIP3    H239251   5.976   5.592   1.937  0.6273  0.9516 -0.3155
 5898TIP3   OH239252   2.375   1.082   8.085 -0.4935 -0.0490  0.1384
 5898TIP3    H139253   2.393   1.170   8.051 -1.0604 -0.4756 -1.3486
 5898TIP3    H239254   2.459   1.052   8.119 -0.0106  0.5959 -0.4585
 5899TIP3   OH239255   4.155   1.612   8.929 -0.2886 -0.2582 -0.5094
 5899TIP3    H139256   4.203   1.643   9.006  0.8518 -0.0834 -1.2602
 5899TIP3    H239257   4.220   1.614   8.859 -1.2988 -0.4381 -1.4712
 5900TIP3   OH239258   5.658   2.415   0.271 -0.1502  0.3509 -0.1564
 5900TIP3    H139259   5.752   2.428   0.261 -0.2367 -0.0863 -1.8742
 5900TIP3    H239260   5.648   2.377   0.358  1.1384  1.3955  0.4866
 5901TIP3   OH239261   3.774   5.090   0.720 -0.5541 -0.1858  0.5593
 5901TIP3    H139262   3.693   5.070   0.767 -1.9982  1.1640 -1.2156
 5901TIP3    H239263   3.775   5.186   0.714 -0.1642 -0.2738 -1.6344
 5902TIP3   OH239264   4.134   4.878   2.776  0.3617 -0.0778  0.5129
 5902TIP3    H139265   4.083   4.801   2.801 -0.6947  0.5440  0.3419
 5902TIP3    H239266   4.193   4.846   2.707  1.4625 -1.1977  1.9084
 5903TIP3   OH239267   1.175   2.370   0.663 -0.4570 -0.1561  0.5495
 5903TIP3    H139268   1.115   2.444   0.674  0.7321  0.9635 -0.2961
 5903TIP3    H239269   1.250   2.392   0.718 -0.5249 -1.2524  1.1081
 5904TIP3   OH239270   5.693   3.987   8.743  0.2392  0.1865 -0.1645
 5904TIP3    H139271   5.710   4.078   8.769 -0.1595  0.9279 -2.3757
 5904TIP3    H239272   5.606   3.968   8.778  1.5056 -0.4609  2.9913
 5905TIP3   OH239273   2.411   3.973   2.919  0.4470 -0.1594  0.3887
 5905TIP3    H139274   2.358   3.951   2.842 -2.5195  1.2007  1.8690
 5905TIP3    H239275   2.425   4.067   2.912  0.6985 -0.1330  1.1824
 5906TIP3   OH239276   4.191   4.092   1.057  0.9542 -0.2135  0.0652
 5906TIP3    H139277   4.184   4.175   1.104 -2.7581  1.1931 -2.4669
 5906TIP3    H239278   4.171   4.026   1.123 -0.8095  1.3718  1.2477
 5907TIP3   OH239279   6.133   6.499   1.914  0.0232 -0.7965  0.4348
 5907TIP3    H139280   6.156   6.422   1.967 -4.3069 -2.1076  0.8190
 5907TIP3    H239281   6.093   6.560   1.977 -0.4122 -0.0743 -0.5192
 5908TIP3   OH239282   3.244   5.893   2.564 -0.2068  0.6783 -0.8251
 5908TIP3    H139283   3.186   5.859   2.631 -1.4365  0.0688 -2.1423
 5908TIP3    H239284   3.257   5.985   2.586 -0.6912  0.5195  0.1499
 5909TIP3   OH239285   4.306   1.144   7.650  0.2137  0.2657 -0.2956
 5909TIP3    H139286   4.394   1.112   7.669 -0.3419 -0.8222  0.5406
 5909TIP3    H239287   4.247   1.075   7.683 -0.9258  0.3694 -1.9841
 5910TIP3   OH239288   4.867   1.934   1.462  0.2784  0.3683  0.3661
 5910TIP3    H139289   4.832   1.963   1.546 -0.6671  1.9200 -0.5105
 5910TIP3    H239290   4.899   1.846   1.479  1.0413  0.9928  2.5982
 5911TIP3   OH239291   5.229   6.608   2.347 -0.4053 -0.8138 -0.0562
 5911TIP3    H139292   5.172   6.635   2.275  0.9428  1.1504 -0.4814
 5911TIP3    H239293   5.315   6.646   2.324  0.2977 -0.9859  2.0911
 5912TIP3   OH239294   4.754   3.933   0.953  0.3730  0.2679 -0.4083
 5912TIP3    H139295   4.716   4.015   0.986 -0.5946 -0.5099  0.4516
 5912TIP3    H239296   4.680   3.875   0.938  1.0477 -0.4685 -1.0185
 5913TIP3   OH239297   5.757   2.665   7.093  0.2572  0.4898 -0.1647
 5913TIP3    H139298   5.813   2.592   7.067  2.1097  0.3806  3.3749
 5913TIP3    H239299   5.668   2.632   7.086  1.0220 -2.0293  0.8885
 5914TIP3   OH239300   5.705   6.314   0.842  0.0262 -0.0790 -0.4359
 5914TIP3    H139301   5.780   6.256   0.846 -1.0349 -1.5828 -1.2464
 5914TIP3    H239302   5.683   6.332   0.934 -0.4223 -2.0907 -0.1005
 5915TIP3   OH239303   3.867   5.948   0.676  0.0958 -0.1062 -0.3702
 5915TIP3    H139304   3.872   5.859   0.641 -0.3710 -0.2444 -0.1051
 5915TIP3    H239305   3.862   5.936   0.771 -1.5189  0.1063 -0.3842
 5916TIP3   OH239306   4.698   6.586   8.564 -0.1954 -0.2961 -0.0033
 5916TIP3    H139307   4.669   6.677   8.571  0.3496 -0.1834  1.0392
 5916TIP3    H239308   4.624   6.540   8.526  0.1514  0.8914 -2.2937
 5917TIP3   OH239309   1.682   5.709   8.903 -0.3062 -0.3098  0.6528
 5917TIP3    H139310   1.649   5.625   8.873 -1.3456  0.2646  0.1057
 5917TIP3    H239311   1.643   5.722   8.989  0.0169 -0.4814  0.8246
 5918TIP3   OH239312   6.243   5.746   1.092 -0.0605  0.2767 -0.3132
 5918TIP3    H139313   6.209   5.678   1.149 -0.0594  2.4893  2.5316
 5918TIP3    H239314   6.338   5.733   1.094  0.1600  1.7225  2.2588
 5919TIP3   OH239315   5.029   4.196   2.638  0.0891  0.0881 -0.6698
 5919TIP3    H139316   5.052   4.248   2.714 -1.3304  0.1425 -0.2493
 5919TIP3    H239317   4.934   4.187   2.642  0.2416 -2.5786 -0.6805
 5920TIP3   OH239318   1.575   1.969   2.009  0.5766 -0.2569 -0.0110
 5920TIP3    H139319   1.503   1.919   1.971  1.5883 -2.7547  1.1027
 5920TIP3    H239320   1.541   1.999   2.094  0.9865 -2.0109  0.8181
 5921TIP3   OH239321   6.166   1.638   1.666  0.0139 -0.3596  0.9387
 5921TIP3    H139322   6.100   1.619   1.600  0.8854 -1.7445  0.4284
 5921TIP3    H239323   6.203   1.553   1.688  2.4477  0.4898  0.3576
 5922TIP3   OH239324   0.275   4.570   1.350  0.0045  0.1778 -0.4400
 5922TIP3    H139325   0.308   4.559   1.439  1.3175 -0.5060 -0.9814
 5922TIP3    H239326   0.239   4.659   1.349 -0.4136  0.0541  0.8724
 5923TIP3   OH239327   1.261   2.993   0.278 -0.0722 -0.4399 -0.4097
 5923TIP3    H139328   1.293   2.909   0.245 -0.0875 -1.3981  1.8433
 5923TIP3    H239329   1.169   2.996   0.252 -0.3794 -1.6877  0.4592
 5924TIP3   OH239330   2.526   3.988   1.779  0.7990  0.6368  0.6571
 5924TIP3    H139331   2.515   4.076   1.814 -0.8482  0.8963 -0.3575
 5924TIP3    H239332   2.440   3.946   1.791 -0.4307  1.2041 -3.9923
 5925TIP3   OH239333   0.990   4.267   2.825 -0.9191 -0.3346  0.4112
 5925TIP3    H139334   0.911   4.215   2.814  0.0940 -1.3936 -3.6878
 5925TIP3    H239335   0.985   4.334   2.757  2.2783 -1.4284 -1.1326
 5926TIP3   OH239336   2.530   3.567   8.666  0.3674  0.1139  0.0623
 5926TIP3    H139337   2.579   3.648   8.677  1.6139 -0.5333 -0.5075
 5926TIP3    H239338   2.474   3.561   8.743  0.4273  1.3917  0.2159
 5927TIP3   OH239339   1.297   3.131   2.377  0.0756  0.0711  0.0022
 5927TIP3    H139340   1.226   3.067   2.376 -1.4495  1.7073  0.0702
 5927TIP3    H239341   1.309   3.152   2.469  1.0223 -0.5437  0.0388
 5928TIP3   OH239342   0.944   5.352   8.050 -0.6937 -0.3144  0.1242
 5928TIP3    H139343   0.869   5.410   8.059 -1.5195 -1.5224  1.3858
 5928TIP3    H239344   0.955   5.342   7.955 -1.1070  1.1254 -0.1025
 5929TIP3   OH239345   1.351   4.161   8.213 -0.0766 -0.2284 -0.0079
 5929TIP3    H139346   1.442   4.145   8.191 -1.0044 -1.8317 -3.3490
 5929TIP3    H239347   1.312   4.074   8.219 -1.4701  0.4259  1.0059
 5930TIP3   OH239348   4.603   6.299   0.612 -0.0296 -0.3059  0.4902
 5930TIP3    H139349   4.692   6.334   0.617 -0.3985  0.7700 -0.0995
 5930TIP3    H239350   4.551   6.361   0.664 -0.5820 -0.3790  0.0357
 5931TIP3   OH239351   5.019   6.653   8.842  0.7404  0.7405  0.1013
 5931TIP3    H139352   4.947   6.713   8.862 -0.7598 -0.6187 -0.9097
 5931TIP3    H239353   5.023   6.651   8.746  1.4809  0.0578  0.1330
 5932TIP3   OH239354   3.957   4.694   2.903 -0.4759  0.5901  0.1043
 5932TIP3    H139355   3.877   4.746   2.907  0.8145  2.5773  2.5194
 5932TIP3    H239356   3.993   4.697   2.992  2.1883 -0.3957 -0.8239
 5933TIP3   OH239357   3.521   5.943   2.484  0.1058 -0.4417 -0.0706
 5933TIP3    H139358   3.459   5.987   2.426  0.1493 -2.0662 -1.4129
 5933TIP3    H239359   3.469   5.920   2.561 -0.1051  1.1738  0.3102
 5934TIP3   OH239360   4.899   5.397   8.538  0.2927 -0.3746  0.3314
 5934TIP3    H139361   4.947   5.317   8.558  0.0712 -0.5608  0.1257
 5934TIP3    H239362   4.843   5.411   8.615 -0.9182 -1.3588 -0.3360
 5935TIP3   OH239363   2.676   1.306   8.023  0.2617 -0.7766 -0.4898
 5935TIP3    H139364   2.655   1.399   8.025  0.9654 -0.6301  0.1967
 5935TIP3    H239365   2.611   1.269   7.962 -0.7255 -0.0231  0.0694
 5936TIP3   OH239366   1.315   3.646   0.173  0.3337  0.0965 -0.3931
 5936TIP3    H139367   1.390   3.605   0.217  0.4712 -0.0365 -0.7516
 5936TIP3    H239368   1.238   3.602   0.210  0.5127 -1.4105 -1.6811
 5937TIP3   OH239369   5.597   4.821   1.480  0.0930 -0.2000 -0.8427
 5937TIP3    H139370   5.688   4.841   1.458  0.4688 -1.8653 -0.9546
 5937TIP3    H239371   5.567   4.898   1.529  0.6749  1.5633 -3.1040
 5938TIP3   OH239372   1.630   1.718   1.714 -0.1053 -0.0014 -0.5387
 5938TIP3    H139373   1.550   1.770   1.712 -0.0351  0.1728  0.5258
 5938TIP3    H239374   1.701   1.783   1.708 -0.0062  0.1116  1.3020
 5939TIP3   OH239375   1.205   0.475   2.750 -0.1285  0.4741 -0.0600
 5939TIP3    H139376   1.140   0.427   2.801 -0.4439  0.8966 -0.0517
 5939TIP3    H239377   1.279   0.487   2.809  0.6401 -1.4229 -0.5764
 5940TIP3   OH239378   4.629   3.182   0.439  0.2200  0.1834 -0.4316
 5940TIP3    H139379   4.634   3.274   0.415  0.9565  0.0964 -0.6199
 5940TIP3    H239380   4.535   3.164   0.444 -0.0976 -0.0388 -4.2555
 5941TIP3   OH239381   6.571   5.149   8.106 -0.3887 -0.1945 -0.4418
 5941TIP3    H139382   6.506   5.208   8.145 -0.2429 -0.0287 -0.4448
 5941TIP3    H239383   6.560   5.066   8.153 -0.0888  0.0558  0.0911
 5942TIP3   OH239384   4.022   3.622   8.089 -0.1053  0.5311 -0.5367
 5942TIP3    H139385   4.116   3.631   8.075  0.2276 -2.2871 -0.8784
 5942TIP3    H239386   4.007   3.657   8.176  1.5693 -0.2920  0.1295
 5943TIP3   OH239387   5.289   4.107   2.194  0.1081 -0.2838  0.5913
 5943TIP3    H139388   5.254   4.028   2.154 -0.1627 -0.1920  0.6450
 5943TIP3    H239389   5.290   4.172   2.123 -2.7669  0.6488  1.2692
 5944TIP3   OH239390   6.266   1.141   7.828 -0.9233 -0.6714  0.8105
 5944TIP3    H139391   6.340   1.173   7.777 -1.5512 -0.5101 -0.0296
 5944TIP3    H239392   6.291   1.157   7.919 -0.5482  0.7743  0.4822
 5945TIP3   OH239393   0.086   6.537   2.995 -0.4077  0.2030 -0.6771
 5945TIP3    H139394   0.023   6.609   2.990 -0.9210 -0.3344 -2.7614
 5945TIP3    H239395   0.170   6.576   2.970 -0.5087  0.2689 -0.9101
 5946TIP3   OH239396   6.712   6.029   8.127 -0.0504  0.1895  0.3860
 5946TIP3    H139397   6.804   6.010   8.106 -0.3060  0.0462 -0.6614
 5946TIP3    H239398   6.716   6.087   8.202  0.8955 -0.0789  0.5564
 5947TIP3   OH239399   2.487   3.711   7.060  0.3969 -0.7509 -0.0535
 5947TIP3    H139400   2.555   3.690   7.124  0.4807  0.7693  0.4146
 5947TIP3    H239401   2.520   3.788   7.015 -2.3014  2.1986  2.4673
 5948TIP3   OH239402   2.581   4.545   1.802  0.6805  0.5507  0.0658
 5948TIP3    H139403   2.513   4.494   1.760 -0.0055  0.7260  0.9382
 5948TIP3    H239404   2.625   4.484   1.861  1.2441  0.4548 -0.4437
 5949TIP3   OH239405   2.078   0.550   1.738 -0.2022 -0.5588 -0.3056
 5949TIP3    H139406   2.136   0.625   1.750 -0.9779 -0.1998  1.5905
 5949TIP3    H239407   2.005   0.567   1.798 -1.7958 -1.4638 -1.9102
 5950TIP3   OH239408   3.923   6.206   7.162 -0.0618  0.4931  0.2814
 5950TIP3    H139409   3.921   6.112   7.182  0.8122 -0.4482 -3.3265
 5950TIP3    H239410   3.830   6.229   7.149 -0.1875 -1.1989 -3.2727
 5951TIP3   OH239411   6.493   0.618   0.452  0.0089  0.4244 -0.6666
 5951TIP3    H139412   6.404   0.611   0.488  0.2323 -0.8535 -0.3387
 5951TIP3    H239413   6.539   0.674   0.513 -0.5369  1.0301 -0.7917
 5952TIP3   OH239414   5.117   2.161   1.310  0.4562 -0.4434 -0.7694
 5952TIP3    H139415   5.142   2.176   1.401  1.4964  0.1302 -1.1316
 5952TIP3    H239416   5.168   2.224   1.260  1.0585 -1.7510 -1.8904
 5953TIP3   OH239417   2.325   0.145   8.791  0.2567 -0.5559  0.0015
 5953TIP3    H139418   2.236   0.179   8.791 -0.7225 -2.9091 -0.8051
 5953TIP3    H239419   2.358   0.162   8.703  1.3986  2.0325  0.8409
 5954TIP3   OH239420   2.439   1.188   7.036 -0.7319 -0.2540 -0.1648
 5954TIP3    H139421   2.467   1.279   7.036  0.0690 -0.3463 -3.3867
 5954TIP3    H239422   2.344   1.192   7.034 -0.7040  0.5275 -0.1315
 5955TIP3   OH239423   0.060   4.376   0.367  0.0999  0.5743 -0.2732
 5955TIP3    H139424   0.010   4.302   0.402  1.6794 -1.0417 -1.2613
 5955TIP3    H239425   0.143   4.373   0.414  0.3985  1.3734 -0.7343
 5956TIP3   OH239426   1.569   2.200   8.782  0.6644 -0.0883  0.2625
 5956TIP3    H139427   1.611   2.124   8.823  0.5078  0.0301  0.6454
 5956TIP3    H239428   1.636   2.236   8.723  0.0642 -1.7422 -1.5363
 5957TIP3   OH239429   2.903   1.298   9.021 -0.6616 -0.8500  0.1529
 5957TIP3    H139430   2.821   1.297   9.070 -1.4237 -0.4814 -1.0672
 5957TIP3    H239431   2.905   1.215   8.974 -0.5260 -0.7017 -0.1098
 5958TIP3   OH239432   4.119   6.291   8.617  0.2983  0.4848  0.5479
 5958TIP3    H139433   4.202   6.276   8.664 -0.4541  0.4018  1.9068
 5958TIP3    H239434   4.057   6.315   8.686 -0.9736 -0.0755 -0.3746
 5959TIP3   OH239435   0.141   5.812   8.395 -0.3765  0.2936 -0.6162
 5959TIP3    H139436   0.187   5.766   8.465  0.2422  2.4297  0.4779
 5959TIP3    H239437   0.165   5.764   8.315  0.1889 -1.2476  0.4307
 5960TIP3   OH239438   0.646   2.328   0.001 -0.2984 -0.2999 -0.6425
 5960TIP3    H139439   0.663   2.395  -0.066  0.2787  0.3187  0.1008
 5960TIP3    H239440   0.581   2.369   0.059  1.9691  0.7475  1.3380
 5961TIP3   OH239441   2.565   3.137   1.353  0.3390 -0.3510  0.3599
 5961TIP3    H139442   2.624   3.063   1.373  0.1665 -0.2983  1.1163
 5961TIP3    H239443   2.491   3.096   1.309  0.4226 -0.5795  0.4248
 5962TIP3   OH239444   0.649   2.006   0.614  0.0861 -0.0023  0.6126
 5962TIP3    H139445   0.660   1.913   0.635  1.8628  0.1079  0.3127
 5962TIP3    H239446   0.592   2.040   0.683  1.5849 -0.7456  2.2975
 5963TIP3   OH239447   3.435   3.530   8.379  0.5377 -0.6731 -0.3632
 5963TIP3    H139448   3.519   3.565   8.409  0.2766 -0.3422  0.0007
 5963TIP3    H239449   3.369   3.586   8.421  0.1340 -0.9413 -0.6250
 5964TIP3   OH239450   2.861   1.054   8.867 -0.3942 -0.0019  0.1284
 5964TIP3    H139451   2.851   0.961   8.884  0.0509 -0.0834 -0.0373
 5964TIP3    H239452   2.925   1.059   8.796  1.9270  0.5041  2.1025
 5965TIP3   OH239453   2.419   4.813   7.106  0.1460 -0.0450  0.2364
 5965TIP3    H139454   2.466   4.859   7.036  0.0003  0.5511  0.5165
 5965TIP3    H239455   2.408   4.880   7.174  0.3340 -0.6341  0.8494
 5966TIP3   OH239456   5.821   6.050   8.450 -0.4278 -0.5078  1.2421
 5966TIP3    H139457   5.758   6.097   8.395  1.3495  1.2933  0.6531
 5966TIP3    H239458   5.768   5.983   8.494 -2.2475 -0.8418 -1.2370
 5967TIP3   OH239459   6.188   1.364   1.092 -0.5334 -0.6249 -0.0693
 5967TIP3    H139460   6.184   1.426   1.165 -3.3109  1.1045 -1.5250
 5967TIP3    H239461   6.236   1.410   1.023 -0.3664 -1.1129 -0.2844
 5968TIP3   OH239462   3.532   5.834   1.079 -0.4182  0.0011 -0.3810
 5968TIP3    H139463   3.495   5.778   1.011  0.4786  0.2234 -1.0765
 5968TIP3    H239464   3.589   5.776   1.129 -1.3061 -0.2299  0.3810
 5969TIP3   OH239465   5.561   5.696   1.144  0.3397 -0.1348 -0.2702
 5969TIP3    H139466   5.572   5.610   1.184  0.5920  0.5171  1.1269
 5969TIP3    H239467   5.505   5.680   1.068 -2.3150 -1.1430  1.7116
 5970TIP3   OH239468   0.384   1.433   2.900  0.2947  0.4178 -0.3125
 5970TIP3    H139469   0.348   1.519   2.881  1.1101  0.8240 -0.0498
 5970TIP3    H239470   0.310   1.383   2.934  0.0255  1.3098  0.4449
 5971TIP3   OH239471   2.635   5.099   0.401 -0.4872 -0.0475  0.5915
 5971TIP3    H139472   2.697   5.121   0.471 -0.6246  0.8346  0.4431
 5971TIP3    H239473   2.688   5.050   0.338 -0.4525 -1.2039  1.4866
 5972TIP3   OH239474   4.273   1.050   1.546 -0.1601 -0.5740 -0.5105
 5972TIP3    H139475   4.366   1.034   1.531  0.2914  0.3345  1.0998
 5972TIP3    H239476   4.248   0.985   1.613 -0.8137 -1.1072 -1.2515
 5973TIP3   OH239477   6.409   1.423   0.369 -0.2756 -0.0833 -0.2080
 5973TIP3    H139478   6.471   1.488   0.338  0.4212 -1.1125 -1.0243
 5973TIP3    H239479   6.323   1.462   0.351  0.0472  1.7855  1.8423
 5974TIP3   OH239480   3.156   1.898   8.590  0.6207 -0.0705 -0.0707
 5974TIP3    H139481   3.153   1.977   8.644  3.0849  1.6346 -2.1905
 5974TIP3    H239482   3.245   1.895   8.556 -0.5203 -1.3626 -3.4278
 5975TIP3   OH239483   1.279   0.833   2.356 -0.2900  0.1849  0.4810
 5975TIP3    H139484   1.201   0.864   2.311 -0.5940  0.4773  1.2011
 5975TIP3    H239485   1.286   0.741   2.330 -0.3902  0.3818 -0.2536
 5976TIP3   OH239486   1.427   1.039   7.276  0.5552  0.5889 -0.4564
 5976TIP3    H139487   1.424   0.979   7.202  0.6091 -0.7854  0.6244
 5976TIP3    H239488   1.345   1.088   7.272 -0.2168 -0.6861 -0.4362
 5977TIP3   OH239489   1.729   3.364   2.620 -0.1140 -0.2951 -0.5477
 5977TIP3    H139490   1.634   3.360   2.618 -0.2404  1.4168 -0.0131
 5977TIP3    H239491   1.751   3.367   2.713  0.3581  0.6628 -0.6728
 5978TIP3   OH239492   4.842   4.063   0.573  0.6288 -0.5350 -0.0233
 5978TIP3    H139493   4.803   4.139   0.529  1.0155 -0.4015 -0.1450
 5978TIP3    H239494   4.773   3.997   0.574  0.4341 -0.3365 -0.3244
 5979TIP3   OH239495   1.621   1.276   8.781 -0.2738 -0.8438 -0.8811
 5979TIP3    H139496   1.589   1.204   8.727 -0.2476 -0.0216 -2.0287
 5979TIP3    H239497   1.552   1.342   8.776  0.9832  0.4538 -2.3981
 5980TIP3   OH239498   2.792   5.732   1.247  0.0003  0.2549  0.0593
 5980TIP3    H139499   2.746   5.812   1.222  1.2961  1.2582  0.7765
 5980TIP3    H239500   2.864   5.761   1.303  0.3312 -1.4415  0.5971
 5981TIP3   OH239501   1.393   3.392   0.978  0.1868 -0.0123 -0.4130
 5981TIP3    H139502   1.424   3.363   0.893  1.1096  0.5848 -0.2995
 5981TIP3    H239503   1.299   3.374   0.978  0.0891  0.4387 -1.7406
 5982TIP3   OH239504   1.640   2.092   1.718  0.6688 -0.4541 -0.1494
 5982TIP3    H139505   1.554   2.113   1.683  0.8204  2.2973  0.8537
 5982TIP3    H239506   1.623   2.036   1.793 -0.1297 -1.0146 -0.7329
 5983TIP3   OH239507   3.544   4.531   9.049 -0.2189  0.0462  0.0132
 5983TIP3    H139508   3.486   4.605   9.067 -0.4798 -0.5629  2.0214
 5983TIP3    H239509   3.629   4.558   9.084  0.7786  0.9012 -2.8384
 5984TIP3   OH239510   3.588   0.978   1.070  0.4654 -0.2792 -0.2986
 5984TIP3    H139511   3.551   0.907   1.017 -1.2640 -0.1011  0.5952
 5984TIP3    H239512   3.585   0.944   1.160  2.4619 -0.2128 -0.1754
 5985TIP3   OH239513   1.772   2.304   1.608  0.2225  0.4068  0.0545
 5985TIP3    H139514   1.768   2.378   1.668 -1.7409  0.2058  0.2363
 5985TIP3    H239515   1.734   2.231   1.657 -1.3600  0.2137 -1.3621
 5986TIP3   OH239516   5.129   1.207   0.170  0.1422 -0.1092  0.4235
 5986TIP3    H139517   5.159   1.269   0.103 -0.5681  0.9071  1.0187
 5986TIP3    H239518   5.172   1.236   0.250  0.4096 -0.8707  0.5551
 5987TIP3   OH239519   0.335   4.616   0.225  0.0980  0.1470  0.1409
 5987TIP3    H139520   0.293   4.544   0.178 -0.2655 -0.3362  1.1841
 5987TIP3    H239521   0.428   4.597   0.220 -0.0334 -0.7445  0.9566
 5988TIP3   OH239522   4.065   6.218   0.475 -0.3449  0.0980 -0.4872
 5988TIP3    H139523   4.118   6.143   0.501 -0.5988  0.3746  0.9140
 5988TIP3    H239524   4.128   6.288   0.458 -0.2192  0.9440  2.8327
 5989TIP3   OH239525   1.391   2.320   0.487  0.2709  0.2346 -0.2916
 5989TIP3    H139526   1.306   2.316   0.529  0.6167 -0.7234  0.3546
 5989TIP3    H239527   1.395   2.241   0.432  1.2077 -0.3971  0.6435
 5990TIP3   OH239528   0.190   5.931   3.186 -0.3577 -0.2720  0.0767
 5990TIP3    H139529   0.141   5.950   3.106  0.7168 -0.5122 -0.6604
 5990TIP3    H239530   0.150   5.852   3.221 -1.1657  0.1215  0.0564
 5991TIP3   OH239531   5.989   3.762   1.603  0.4380  0.2699 -0.5590
 5991TIP3    H139532   5.912   3.729   1.557  0.7418  0.2037 -1.0299
 5991TIP3    H239533   5.979   3.857   1.599  0.9094  0.2917 -1.5607
 5992TIP3   OH239534   1.550   3.048   2.316  0.4546  0.0941  0.0601
 5992TIP3    H139535   1.464   3.062   2.356  0.3474 -2.8169  1.0145
 5992TIP3    H239536   1.537   3.073   2.224 -1.1923  0.3777  0.3346
 5993TIP3   OH239537   4.806   0.337   8.965 -0.7936  0.4543  0.7434
 5993TIP3    H139538   4.729   0.388   8.941 -1.3132  0.7467  2.8293
 5993TIP3    H239539   4.879   0.382   8.921 -1.7017  0.4895 -0.8190
 5994TIP3   OH239540   3.847   5.839   0.929  0.2180 -0.0754  0.1157
 5994TIP3    H139541   3.796   5.828   1.009 -0.0503  1.2614  0.1501
 5994TIP3    H239542   3.938   5.835   0.957  0.2843 -3.7286 -0.1023
 5995TIP3   OH239543   4.143   4.347   0.801 -0.3252  0.2323 -0.1965
 5995TIP3    H139544   4.061   4.341   0.850 -0.3411  1.3516 -0.0514
 5995TIP3    H239545   4.211   4.349   0.868 -0.1490 -0.9787 -0.3263
 5996TIP3   OH239546   4.591   1.202   8.763  0.0903  0.2100 -0.1658
 5996TIP3    H139547   4.520   1.142   8.739  0.4498 -0.0219 -0.6564
 5996TIP3    H239548   4.640   1.155   8.831 -0.0226  0.2319 -0.0676
 5997TIP3   OH239549   0.864   1.142   8.666  0.7783  0.2150 -0.6572
 5997TIP3    H139550   0.926   1.130   8.594 -0.3402 -2.4572 -1.3164
 5997TIP3    H239551   0.788   1.184   8.625  0.5736 -0.3004 -0.8194
 5998TIP3   OH239552   5.625   1.888   0.045 -0.2104 -0.1291  0.4044
 5998TIP3    H139553   5.619   1.981   0.021  0.3045 -0.5787 -1.6534
 5998TIP3    H239554   5.573   1.881   0.125 -2.1765  1.5168 -0.6242
 5999TIP3   OH239555   0.498   0.349   0.566 -0.0787  0.1322 -0.0564
 5999TIP3    H139556   0.575   0.368   0.620 -0.3458 -1.1082  0.8069
 5999TIP3    H239557   0.481   0.256   0.581 -2.7936  0.7319  1.2428
 6000TIP3   OH239558   2.332   6.273   2.694  0.8588 -0.3089  0.0994
 6000TIP3    H139559   2.256   6.223   2.725  0.3869  2.6066  4.3688
 6000TIP3    H239560   2.408   6.222   2.722  0.4662 -0.9553  0.0050
 6001TIP3   OH239561   2.135   0.271   3.094 -0.4301 -0.1099 -0.1385
 6001TIP3    H139562   2.068   0.324   3.137  0.8983 -0.1156  2.0536
 6001TIP3    H239563   2.131   0.186   3.139  0.5657 -0.3403 -0.4576
 6002TIP3   OH239564   1.621   3.191   1.884  0.3299  0.3545 -0.2759
 6002TIP3    H139565   1.547   3.197   1.944  0.3144  1.8458 -0.4135
 6002TIP3    H239566   1.673   3.118   1.918 -0.7865 -0.2171  0.2698
 6003TIP3   OH239567   4.758   4.756   0.524 -0.1592 -0.3962  0.2343
 6003TIP3    H139568   4.682   4.802   0.489  0.4930  0.1737 -0.4420
 6003TIP3    H239569   4.796   4.817   0.587 -0.3004 -0.7207  0.6463
 6004TIP3   OH239570   1.342   5.338   8.926  0.3324 -0.0260  0.2134
 6004TIP3    H139571   1.322   5.262   8.871  0.2659 -0.6914  1.1271
 6004TIP3    H239572   1.268   5.397   8.912  0.6096  0.0743 -0.8558
 6005TIP3   OH239573   0.110   2.276   8.622  0.0668 -0.6632 -0.6848
 6005TIP3    H139574   0.099   2.181   8.629  1.4463 -0.7761  0.3437
 6005TIP3    H239575   0.192   2.294   8.668 -1.0556  1.2570  0.6948
 6006TIP3   OH239576   0.398   6.350   2.773  0.2036 -0.1114 -0.3176
 6006TIP3    H139577   0.482   6.305   2.767  0.2697 -0.2575  1.3015
 6006TIP3    H239578   0.346   6.295   2.832 -0.1371  1.2818  0.7305
 6007TIP3   OH239579   2.643   3.802   0.451 -0.0603  0.4622  0.1067
 6007TIP3    H139580   2.553   3.814   0.420 -0.0574  0.7048  0.1931
 6007TIP3    H239581   2.688   3.757   0.379 -0.6113 -0.9519  0.6030
 6008TIP3   OH239582   4.640   0.648   0.852 -0.1877 -0.7666 -0.0927
 6008TIP3    H139583   4.553   0.675   0.884 -0.0782 -0.5447  0.0207
 6008TIP3    H239584   4.681   0.607   0.927  0.5040  0.7675  0.4087
 6009TIP3   OH239585   3.252   6.394   8.270 -0.3352 -0.2134  0.8995
 6009TIP3    H139586   3.285   6.483   8.272  2.4073 -1.0840 -0.2757
 6009TIP3    H239587   3.162   6.400   8.302  0.0932  2.7864  1.8001
 6010TIP3   OH239588   4.961   6.556   8.336  0.0783  0.0890  0.5280
 6010TIP3    H139589   4.958   6.460   8.328  1.3695  0.1842 -2.0381
 6010TIP3    H239590   4.869   6.582   8.338 -0.2987 -1.1744  0.9368
 6011TIP3   OH239591   4.371   2.446   8.568 -0.3362 -0.2014 -0.0311
 6011TIP3    H139592   4.358   2.363   8.521  0.6496  0.6650 -1.9700
 6011TIP3    H239593   4.283   2.483   8.576 -0.7338 -1.1974  0.4645
 6012TIP3   OH239594   3.152   3.915   7.362 -0.3636  0.5530  0.6896
 6012TIP3    H139595   3.232   3.964   7.382  2.8998 -3.5767 -0.8244
 6012TIP3    H239596   3.137   3.931   7.269  0.1670 -0.4292  0.4151
 6013TIP3   OH239597   0.240   6.054   0.885  0.3053 -0.6657 -0.5015
 6013TIP3    H139598   0.220   5.999   0.809  1.5621 -2.5250  0.4375
 6013TIP3    H239599   0.251   6.142   0.849  0.0743 -1.3537 -2.3478
 6014TIP3   OH239600   5.923   2.948   1.696  0.1311 -0.6925  0.1572
 6014TIP3    H139601   5.880   2.975   1.776  1.6713  0.2617  0.7158
 6014TIP3    H239602   5.928   3.027   1.643  0.2229 -1.0277 -0.3420
 6015TIP3   OH239603   5.606   6.131   2.723 -0.0704  0.4423 -0.3915
 6015TIP3    H139604   5.583   6.069   2.792 -0.0245  0.9289  0.0718
 6015TIP3    H239605   5.639   6.207   2.770 -0.0638  0.7921 -0.9546
 6016TIP3   OH239606   1.919   2.871   1.724  0.2702 -0.5994  0.7276
 6016TIP3    H139607   1.828   2.871   1.695  0.5455 -1.1879 -0.1830
 6016TIP3    H239608   1.938   2.962   1.746  0.3187  0.0811 -1.8735
 6017TIP3   OH239609   3.891   2.741   8.832  0.3306 -0.4601 -0.6091
 6017TIP3    H139610   3.928   2.821   8.869  2.1114 -0.6875 -1.7676
 6017TIP3    H239611   3.858   2.692   8.907 -1.2009  1.5239  0.0748
 6018TIP3   OH239612   3.801   2.492   7.914  0.4562 -0.0237  0.8161
 6018TIP3    H139613   3.748   2.427   7.867 -0.4145 -0.4079  2.2630
 6018TIP3    H239614   3.819   2.559   7.849 -1.7010  0.0426  0.1889
 6019TIP3   OH239615   0.686   4.967   2.348 -0.0115 -0.2924 -0.3871
 6019TIP3    H139616   0.677   4.873   2.360 -3.4108 -0.2141 -1.4364
 6019TIP3    H239617   0.736   4.976   2.267  1.8134 -1.0556  0.5666
 6020TIP3   OH239618   1.625   0.698   0.745  0.0668  0.6730  0.0118
 6020TIP3    H139619   1.710   0.716   0.784  0.0899 -1.2083  0.9502
 6020TIP3    H239620   1.566   0.760   0.786  0.6854  0.8438  0.6661
 6021TIP3   OH239621   0.659   2.198   1.887 -0.4244 -0.0317 -0.7337
 6021TIP3    H139622   0.718   2.189   1.812 -0.7974  3.1673 -1.5769
 6021TIP3    H239623   0.576   2.160   1.857  0.2111 -1.4143 -0.8112
 6022TIP3   OH239624   3.982   1.758   1.787  0.4404 -0.7168 -0.2430
 6022TIP3    H139625   3.999   1.846   1.754 -0.8135 -0.7500 -0.9975
 6022TIP3    H239626   3.944   1.772   1.874  0.9420 -0.5551 -0.0413
 6023TIP3   OH239627   5.288   2.371   8.484  0.2271  0.7918  0.5218
 6023TIP3    H139628   5.290   2.464   8.506  0.2541  0.8258  0.3804
 6023TIP3    H239629   5.270   2.326   8.566  1.1803  0.8586  0.7803
 6024TIP3   OH239630   2.535   2.050   7.359  0.0484  0.2524 -0.0603
 6024TIP3    H139631   2.554   2.029   7.450 -0.1870 -0.0850 -0.0856
 6024TIP3    H239632   2.448   2.091   7.361  0.0273  0.2110 -0.1371
 6025TIP3   OH239633   3.498   0.336   1.555 -0.2320 -0.1929  0.4637
 6025TIP3    H139634   3.476   0.427   1.578  1.2330  0.0933  0.8459
 6025TIP3    H239635   3.432   0.284   1.600 -2.0527  0.7187 -1.0054
 6026TIP3   OH239636   0.519   4.617   2.267  0.4466 -0.0289  0.2559
 6026TIP3    H139637   0.577   4.566   2.323  0.7065  1.5999  1.5444
 6026TIP3    H239638   0.573   4.638   2.190  1.0674  0.2013  0.7521
 6027TIP3   OH239639   3.820   5.839   0.015 -0.3499 -0.5500 -0.0338
 6027TIP3    H139640   3.775   5.832  -0.069  1.8578  0.8507 -1.4510
 6027TIP3    H239641   3.796   5.926   0.048  0.5906 -0.1290 -0.4078
 6028TIP3   OH239642   4.649   1.766   7.648 -0.0408 -0.1025 -0.0649
 6028TIP3    H139643   4.688   1.682   7.669 -0.1614 -0.0776  0.2687
 6028TIP3    H239644   4.640   1.766   7.552 -1.2669 -1.0222  0.0294
 6029TIP3   OH239645   1.990   5.303   2.634  0.7235  0.1942 -0.2927
 6029TIP3    H139646   1.909   5.348   2.658  0.2932 -0.6976 -0.0446
 6029TIP3    H239647   2.059   5.365   2.657  0.0936  1.2858 -1.2331
 6030TIP3   OH239648   5.132   2.628   2.965 -0.1792 -0.9049 -0.0629
 6030TIP3    H139649   5.042   2.659   2.959  0.2848  0.7629  0.8833
 6030TIP3    H239650   5.181   2.684   2.905  0.4752 -0.7124  0.6361
 6031TIP3   OH239651   1.205   1.313   8.537  0.2077 -0.2987  0.6920
 6031TIP3    H139652   1.148   1.236   8.533 -0.2345  0.1020 -1.4098
 6031TIP3    H239653   1.183   1.364   8.460  0.0649  2.2965  2.3286
 6032TIP3   OH239654   0.312   1.067   1.906 -0.5286 -0.3276 -0.0732
 6032TIP3    H139655   0.325   1.034   1.817  1.1584  0.5477 -0.1772
 6032TIP3    H239656   0.291   1.160   1.894 -0.6179 -0.2793  0.4341
 6033TIP3   OH239657   0.227   5.301   7.451  1.2060  1.1946 -0.2446
 6033TIP3    H139658   0.188   5.253   7.523  0.7726 -0.1959 -1.3626
 6033TIP3    H239659   0.153   5.326   7.395  1.6447  1.0760 -0.8912
 6034TIP3   OH239660   5.936   4.377   7.692 -0.5742 -0.1642 -0.1781
 6034TIP3    H139661   5.849   4.412   7.710  0.0970 -0.1131  4.2126
 6034TIP3    H239662   5.929   4.283   7.711  0.3843 -0.0527  0.8985
 6035TIP3   OH239663   2.357   0.526   8.797  0.3835  0.0569  0.0806
 6035TIP3    H139664   2.409   0.598   8.831  0.4596 -0.2298  0.5772
 6035TIP3    H239665   2.380   0.451   8.852 -0.8131  0.0003  0.5330
 6036TIP3   OH239666   0.731   6.380   7.934 -0.3224  0.2835  0.0396
 6036TIP3    H139667   0.652   6.413   7.976 -0.8590 -0.7031 -0.1710
 6036TIP3    H239668   0.754   6.301   7.984  1.5117  1.4442  1.1765
 6037TIP3   OH239669   5.125   2.225   1.582 -0.7178  0.1086 -0.1531
 6037TIP3    H139670   5.140   2.284   1.655 -0.2955  0.2841 -0.3731
 6037TIP3    H239671   5.144   2.138   1.617  0.4875  0.2833 -0.3034
 6038TIP3   OH239672   6.113   4.217   0.017 -0.2771 -0.1548  0.1194
 6038TIP3    H139673   6.194   4.181  -0.020  1.3764 -0.3249  3.5446
 6038TIP3    H239674   6.044   4.184  -0.040  1.9450 -0.8023 -2.3963
 6039TIP3   OH239675   4.231   0.211   2.927 -0.1478 -0.6041  0.4594
 6039TIP3    H139676   4.317   0.222   2.966 -0.2923  0.1898  0.5883
 6039TIP3    H239677   4.245   0.220   2.833 -0.3429  1.6555  0.5790
 6040TIP3   OH239678   0.212   0.319   2.376 -0.0716 -0.0703  0.9119
 6040TIP3    H139679   0.195   0.231   2.409  0.7985 -1.0745 -1.1619
 6040TIP3    H239680   0.124   0.357   2.364 -0.4716 -0.8654  1.2541
 6041TIP3   OH239681   4.615   5.803   2.033 -0.1506  0.5298  0.4571
 6041TIP3    H139682   4.559   5.784   1.958 -0.4781  1.9012  0.3326
 6041TIP3    H239683   4.578   5.750   2.104 -0.9982  0.6518  0.1184
 6042TIP3   OH239684   6.577   1.351   9.051  0.3664  0.4169 -0.6135
 6042TIP3    H139685   6.640   1.280   9.067 -0.6892 -0.2957  0.6888
 6042TIP3    H239686   6.494   1.315   9.083 -0.6166  1.4866 -1.8832
 6043TIP3   OH239687   2.256   4.798   3.141  0.2216 -0.3974  0.0935
 6043TIP3    H139688   2.256   4.873   3.081 -1.7191 -0.5014 -0.1166
 6043TIP3    H239689   2.316   4.736   3.101 -0.5619 -0.2100 -1.4519
 6044TIP3   OH239690   3.805   6.143   1.460 -0.4089  0.0976  0.1719
 6044TIP3    H139691   3.897   6.115   1.454 -0.6240 -0.4514 -0.8220
 6044TIP3    H239692   3.765   6.108   1.381 -1.4794  0.3524  0.5928
 6045TIP3   OH239693   5.335   1.214   8.331 -0.0419 -0.4478  0.1885
 6045TIP3    H139694   5.271   1.161   8.285 -0.3815 -0.6694  0.9021
 6045TIP3    H239695   5.419   1.192   8.291 -0.4024 -0.1456 -0.7605
 6046TIP3   OH239696   2.555   2.076   6.962 -0.4256  0.2886 -0.5761
 6046TIP3    H139697   2.649   2.091   6.966  0.0111 -1.9465 -0.9402
 6046TIP3    H239698   2.518   2.142   7.020  1.3160  1.4936 -0.7570
 6047TIP3   OH239699   3.142   3.950   7.897  0.0025 -0.4201  0.2196
 6047TIP3    H139700   3.083   3.907   7.836  1.2553 -1.1660 -0.5091
 6047TIP3    H239701   3.086   3.973   7.972 -0.8033 -3.2038  0.6175
 6048TIP3   OH239702   2.582   6.095   2.443 -0.0491  0.0035 -0.1900
 6048TIP3    H139703   2.556   6.058   2.527 -2.0073  2.1148  0.2332
 6048TIP3    H239704   2.626   6.177   2.466  2.1332 -0.8208 -1.1690
 6049TIP3   OH239705   3.827   6.252   9.039  0.2966 -0.3365 -0.0209
 6049TIP3    H139706   3.917   6.246   9.005  0.7484 -3.2526  1.3915
 6049TIP3    H239707   3.829   6.325   9.101  2.1003 -1.1894  0.9920
 6050TIP3   OH239708   2.008   2.495   8.502 -0.0199 -0.1063  0.2036
 6050TIP3    H139709   2.010   2.531   8.591  0.9478  0.1955  0.0658
 6050TIP3    H239710   1.915   2.479   8.485 -0.3918  1.5215  0.5867
 6051TIP3   OH239711   3.959   6.449   8.793  0.4488 -0.3575  0.1494
 6051TIP3    H139712   4.022   6.464   8.863 -0.6512  0.3397  1.0169
 6051TIP3    H239713   3.961   6.531   8.742  2.3622 -1.4005 -1.6082
 6052TIP3   OH239714   5.568   2.708   2.658 -0.3452 -0.5215 -0.4132
 6052TIP3    H139715   5.528   2.715   2.744  0.9986 -0.1270  0.2007
 6052TIP3    H239716   5.662   2.699   2.675 -0.1935 -2.1182 -1.7765
 6053TIP3   OH239717   5.582   1.880   1.730 -0.8187 -0.1540  0.0092
 6053TIP3    H139718   5.526   1.917   1.662 -0.4003 -0.1127 -0.3150
 6053TIP3    H239719   5.528   1.814   1.773 -0.2657 -2.0579 -2.0464
 6054TIP3   OH239720   3.335   1.476   8.180  0.0595  0.4151  0.0245
 6054TIP3    H139721   3.395   1.447   8.249  0.2365 -1.5313 -0.8742
 6054TIP3    H239722   3.268   1.407   8.177 -0.7148  1.1792 -0.8254
 6055TIP3   OH239723   2.533   0.961   7.676 -0.2698 -0.4083  0.1525
 6055TIP3    H139724   2.587   0.889   7.707  0.8054  0.3176  0.0599
 6055TIP3    H239725   2.443   0.933   7.690  0.1475 -1.1791  1.4309
 6056TIP3   OH239726   1.274   3.749   3.050  0.2562  0.3031 -0.0614
 6056TIP3    H139727   1.200   3.704   3.010  0.0181 -0.1067  0.8187
 6056TIP3    H239728   1.318   3.681   3.102  1.7431  0.3202 -1.2194
 6057TIP3   OH239729   5.099   2.781   8.473  0.0670 -0.3033 -0.3064
 6057TIP3    H139730   5.096   2.876   8.462  0.8986 -0.3670 -1.1642
 6057TIP3    H239731   5.007   2.754   8.471 -0.1975  0.5091  0.2869
 6058TIP3   OH239732   4.756   5.032   1.410  0.2776  0.1543  0.6618
 6058TIP3    H139733   4.768   5.126   1.428 -1.4755  0.7061 -0.7682
 6058TIP3    H239734   4.837   5.006   1.366  0.7730  0.9923  1.0450
 6059TIP3   OH239735   5.266   1.131   7.650 -0.3015 -0.5618 -0.2127
 6059TIP3    H139736   5.347   1.088   7.624 -1.6274 -3.2395 -0.2235
 6059TIP3    H239737   5.263   1.211   7.597  1.6183 -1.1121 -1.2427
 6060TIP3   OH239738   3.230   0.947   8.273  0.5217  0.0839  0.2714
 6060TIP3    H139739   3.179   0.914   8.199  0.5521 -0.1527  0.3543
 6060TIP3    H239740   3.314   0.902   8.267  0.7188  0.4698  0.1388
 6061TIP3   OH239741   1.374   5.093   8.782  0.1283  0.0592 -0.2295
 6061TIP3    H139742   1.317   5.025   8.746  1.5012 -1.8905  1.0823
 6061TIP3    H239743   1.438   5.109   8.712 -0.6698  0.5997 -0.8470
 6062TIP3   OH239744   6.591   0.388   8.362  0.2269 -0.2352 -0.6476
 6062TIP3    H139745   6.528   0.372   8.292 -0.4249  1.3672 -0.4611
 6062TIP3    H239746   6.670   0.419   8.318 -0.5394  1.8331 -0.6673
 6063TIP3   OH239747   3.564   4.719   2.148 -0.4588  0.1650 -0.0416
 6063TIP3    H139748   3.558   4.805   2.189  0.4846 -0.0512  0.5749
 6063TIP3    H239749   3.473   4.689   2.143 -0.7816  1.1186 -0.1210
 6064TIP3   OH239750   0.171   1.423   7.702 -0.7183 -0.3912  0.3376
 6064TIP3    H139751   0.133   1.511   7.710 -0.4286 -0.3300  1.1118
 6064TIP3    H239752   0.185   1.412   7.608 -0.7955  0.3776  0.2256
 6065TIP3   OH239753   0.259   2.785   8.286 -0.8144 -0.1439 -0.2032
 6065TIP3    H139754   0.176   2.760   8.327  0.3234 -1.7938  1.2660
 6065TIP3    H239755   0.308   2.828   8.355 -0.1443  0.1079 -0.8232
 6066TIP3   OH239756   1.334   6.657   1.648 -0.1310  0.5650  0.1349
 6066TIP3    H139757   1.353   6.733   1.593  1.3878 -1.3569 -2.1817
 6066TIP3    H239758   1.257   6.683   1.698 -2.1358  2.2473 -3.4398
 6067TIP3   OH239759   1.887   5.117   7.875 -0.3709 -0.3115 -0.0981
 6067TIP3    H139760   1.792   5.128   7.864 -0.6205 -1.6156  0.6053
 6067TIP3    H239761   1.909   5.044   7.817  0.7668  1.8437 -2.5697
 6068TIP3   OH239762   4.626   2.917   7.739 -0.1382 -0.0444  0.0258
 6068TIP3    H139763   4.690   2.848   7.725 -0.4678 -0.2606 -0.4368
 6068TIP3    H239764   4.648   2.954   7.825  0.0373 -0.7189  0.2725
 6069TIP3   OH239765   1.605   3.946   2.275  0.2052  0.0774  0.1294
 6069TIP3    H139766   1.658   3.922   2.351  2.9271 -3.6097 -2.5779
 6069TIP3    H239767   1.657   4.013   2.230  0.3630 -0.2805 -0.2290
 6070TIP3   OH239768   1.924   4.506   2.188  0.0600 -0.0257 -0.0037
 6070TIP3    H139769   1.890   4.571   2.128 -0.3972 -1.0370 -0.8657
 6070TIP3    H239770   1.885   4.529   2.273 -1.6228 -0.2986 -0.6770
 6071TIP3   OH239771   5.587   5.881   0.864  0.0257 -0.4083 -0.0809
 6071TIP3    H139772   5.511   5.831   0.893 -0.3208 -0.4492 -1.0070
 6071TIP3    H239773   5.595   5.953   0.926  0.6337 -1.6820  1.3711
 6072TIP3   OH239774   3.177   0.341   0.325  0.2921  0.1065  0.0246
 6072TIP3    H139775   3.126   0.402   0.271 -0.9224  0.2911  1.3184
 6072TIP3    H239776   3.137   0.348   0.411  0.3236 -2.3130  0.2815
 6073TIP3   OH239777   0.947   6.044   2.948  0.1540 -0.0006 -0.2268
 6073TIP3    H139778   0.878   6.101   2.981  0.2160 -0.5203  0.8329
 6073TIP3    H239779   1.028   6.084   2.980  0.2654 -0.0759 -0.4114
 6074TIP3   OH239780   6.680   5.583   1.805 -0.2877  0.4605 -0.5878
 6074TIP3    H139781   6.719   5.506   1.846 -1.8833 -0.9231 -1.5273
 6074TIP3    H239782   6.636   5.629   1.876 -1.7365 -1.0814 -0.4145
 6075TIP3   OH239783   6.025   0.250   0.334 -0.4335  0.2224 -0.2841
 6075TIP3    H139784   6.108   0.242   0.381 -0.3633  2.1782  0.0158
 6075TIP3    H239785   6.036   0.197   0.255  0.2770 -1.2977  0.7842
 6076TIP3   OH239786   2.402   6.272   1.643  0.1931  0.0714 -0.1156
 6076TIP3    H139787   2.461   6.336   1.681  0.6829 -1.0804  1.1502
 6076TIP3    H239788   2.399   6.294   1.550  0.6423  1.6584  0.2197
 6077TIP3   OH239789   4.513   6.556   0.369 -0.5332  0.0543  0.2215
 6077TIP3    H139790   4.580   6.622   0.386 -0.0383  0.2236 -2.1141
 6077TIP3    H239791   4.433   6.592   0.407  0.3300  0.5964  1.5940
 6078TIP3   OH239792   0.482   3.637   0.301 -0.3089 -0.5927  0.4565
 6078TIP3    H139793   0.567   3.596   0.316  0.1460  0.3713  0.6156
 6078TIP3    H239794   0.428   3.569   0.262  0.3836 -1.3623  0.8323
 6079TIP3   OH239795   1.159   3.211   1.959 -0.0792 -0.1757 -0.5330
 6079TIP3    H139796   1.088   3.194   1.897  0.0249 -0.2967 -0.6177
 6079TIP3    H239797   1.142   3.150   2.031  0.5940 -1.0173 -1.0749
 6080TIP3   OH239798   3.209   3.878   1.924 -0.1093  0.0495  0.1737
 6080TIP3    H139799   3.189   3.907   2.013  2.1038  0.5669  0.5647
 6080TIP3    H239800   3.129   3.896   1.875 -0.5006  2.3003  1.4725
 6081TIP3   OH239801   0.595   4.077   1.245 -0.0059  0.0005  0.2295
 6081TIP3    H139802   0.550   4.160   1.228 -0.7021 -0.1568  1.1756
 6081TIP3    H239803   0.673   4.079   1.190 -1.4245  0.0641 -1.9006
 6082TIP3   OH239804   0.231   0.464   8.702 -0.7686 -0.0469  0.3302
 6082TIP3    H139805   0.223   0.486   8.795 -2.9107  1.0696 -0.0386
 6082TIP3    H239806   0.155   0.407   8.685 -1.1644  0.8240 -0.9728
 6083TIP3   OH239807   4.822   6.642   2.355 -0.2848  0.0608 -0.3984
 6083TIP3    H139808   4.765   6.677   2.287 -0.5392 -1.4603 -1.0220
 6083TIP3    H239809   4.775   6.658   2.437  0.0088  1.8774 -0.5589
 6084TIP3   OH239810   4.879   2.748   2.383 -0.3673  0.3308  0.0524
 6084TIP3    H139811   4.805   2.806   2.396  0.7027  1.3151  2.3048
 6084TIP3    H239812   4.879   2.690   2.459  1.0939  0.2638  0.0391
 6085TIP3   OH239813   5.462   4.258   0.376  0.3934  0.2551  0.1073
 6085TIP3    H139814   5.540   4.297   0.337 -0.4276 -0.2569 -2.2198
 6085TIP3    H239815   5.391   4.280   0.315 -1.2153  0.2573  1.8638
 6086TIP3   OH239816   2.676   4.299   2.493 -0.3104 -0.3423  0.0777
 6086TIP3    H139817   2.649   4.210   2.469 -0.0607 -0.2136 -0.7384
 6086TIP3    H239818   2.706   4.292   2.583  1.0449 -1.4206 -0.4060
 6087TIP3   OH239819   1.466   3.693   7.616  0.7337 -0.4052  0.3458
 6087TIP3    H139820   1.487   3.775   7.571  2.6125 -2.0000 -1.9293
 6087TIP3    H239821   1.523   3.694   7.694  1.1942  0.1695  0.0116
 6088TIP3   OH239822   1.299   6.581   0.788 -0.5974 -0.2802  0.6159
 6088TIP3    H139823   1.390   6.551   0.795 -0.0183  1.3100  0.3078
 6088TIP3    H239824   1.291   6.612   0.698 -1.2133  0.3135  0.8693
 6089TIP3   OH239825   0.419   6.200   8.193 -0.1580 -0.0120 -0.1268
 6089TIP3    H139826   0.511   6.212   8.167  0.2950 -0.8134  0.9827
 6089TIP3    H239827   0.406   6.262   8.265 -0.1339 -0.6446  0.4436
 6090TIP3   OH239828   1.584   5.077   0.592 -0.5423  0.2441  0.1226
 6090TIP3    H139829   1.601   5.009   0.657  0.4897  2.0709  1.8598
 6090TIP3    H239830   1.510   5.126   0.627 -2.2878 -0.7696 -1.8579
 6091TIP3   OH239831   2.841   1.831   7.230 -0.1321  0.4713 -0.2869
 6091TIP3    H139832   2.926   1.797   7.202  0.0271  1.1420 -0.6416
 6091TIP3    H239833   2.858   1.924   7.250 -0.2596  0.0861  1.8902
 6092TIP3   OH239834   1.689   0.382   9.012  0.6497 -0.1347 -0.1522
 6092TIP3    H139835   1.724   0.451   9.067 -0.1899  1.0872 -1.1024
 6092TIP3    H239836   1.683   0.306   9.070 -0.8876  1.2815  1.7035
 6093TIP3   OH239837   5.935   4.696   7.794  0.4642  0.1889 -0.4761
 6093TIP3    H139838   5.899   4.653   7.717  2.3407 -1.7543 -0.3666
 6093TIP3    H239839   5.881   4.665   7.867  0.9674 -0.9383 -0.5729
 6094TIP3   OH239840   5.982   4.981   8.219  0.5871 -0.0004  0.3761
 6094TIP3    H139841   5.954   4.941   8.136 -2.3799 -1.0351  1.7447
 6094TIP3    H239842   5.989   5.074   8.199 -1.0517 -0.0936 -0.8336
 6095TIP3   OH239843   6.338   4.527   7.450 -0.2171  0.4941  0.0900
 6095TIP3    H139844   6.379   4.488   7.373  0.2409 -0.6552  0.9042
 6095TIP3    H239845   6.345   4.622   7.435 -2.2130  0.3702 -2.3725
 6096TIP3   OH239846   3.757   4.670   0.042  0.4429  0.3114 -0.5496
 6096TIP3    H139847   3.807   4.728   0.099  1.2141 -1.5801  0.7992
 6096TIP3    H239848   3.821   4.639  -0.023  1.0618 -1.8109  0.9482
 6097TIP3   OH239849   2.860   4.311   7.757 -0.7438  0.5445  0.1981
 6097TIP3    H139850   2.879   4.400   7.788 -0.3052 -0.1579  2.0587
 6097TIP3    H239851   2.946   4.271   7.743 -0.9105 -0.0546  0.8281
 6098TIP3   OH239852   2.957   5.537   1.390  0.0481  0.1133  0.2687
 6098TIP3    H139853   2.888   5.588   1.348 -0.7385  0.4938  1.9808
 6098TIP3    H239854   2.911   5.475   1.446  1.0575  1.3724  2.6153
 6099TIP3   OH239855   6.096   6.007   0.999  0.2438  0.1467  0.4051
 6099TIP3    H139856   6.157   6.081   1.002  1.0854 -0.5275  0.2937
 6099TIP3    H239857   6.135   5.942   1.058 -0.8140  0.0310  0.9897
 6100TIP3   OH239858   5.379   1.401   7.051 -0.0028  0.1217  0.0309
 6100TIP3    H139859   5.424   1.371   6.973  0.1724 -1.3522  0.6693
 6100TIP3    H239860   5.314   1.464   7.019 -1.8302 -2.4339 -1.6999
 6101TIP3   OH239861   5.759   1.457   8.820 -0.1004 -0.1312 -0.4215
 6101TIP3    H139862   5.773   1.378   8.873  0.5461 -0.9249 -1.7466
 6101TIP3    H239863   5.821   1.450   8.748 -0.9105  0.9662 -1.2664
 6102TIP3   OH239864   3.132   4.089   0.010 -0.0947  0.3998 -0.0859
 6102TIP3    H139865   3.111   4.126   0.096 -2.2971  2.1218 -1.2657
 6102TIP3    H239866   3.149   4.165  -0.045 -1.7473 -0.4738 -1.8911
 6103TIP3   OH239867   1.223   6.330   8.902  0.2691  0.7527  0.1620
 6103TIP3    H139868   1.312   6.297   8.916  0.4855  0.8282 -0.9333
 6103TIP3    H239869   1.175   6.302   8.979  0.9581 -0.3259  0.2209
 6104TIP3   OH239870   0.953   2.434   8.920  0.3129 -0.1110  0.2894
 6104TIP3    H139871   0.978   2.498   8.987  0.3342 -0.6746  0.8267
 6104TIP3    H239872   1.024   2.439   8.856 -0.1272  1.0393 -0.1359
 6105TIP3   OH239873   0.154   6.407   1.341 -0.5425  0.1312  0.3488
 6105TIP3    H139874   0.185   6.400   1.431 -0.3702  0.3557  0.3086
 6105TIP3    H239875   0.199   6.484   1.306 -0.1475 -0.2956 -0.1087
 6106TIP3   OH239876   0.041   2.706   8.426  0.1956 -0.0172 -0.1419
 6106TIP3    H139877   0.063   2.715   8.519 -0.6314 -0.8648  0.1615
 6106TIP3    H239878   0.053   2.613   8.408  0.4733  0.1621 -0.9280
 6107TIP3   OH239879   0.292   0.730   8.113  0.0180 -0.0326 -0.5327
 6107TIP3    H139880   0.230   0.803   8.116 -1.3823 -1.2057 -0.0311
 6107TIP3    H239881   0.266   0.678   8.038  0.0097 -0.8586  0.0270
 6108TIP3   OH239882   4.451   3.165   7.671 -0.0298 -0.3043 -0.1435
 6108TIP3    H139883   4.515   3.232   7.696 -0.8801 -0.3421  2.3590
 6108TIP3    H239884   4.484   3.084   7.711 -1.1007 -0.5195  0.3335
 6109TIP3   OH239885   6.111   1.100   0.797 -0.1277 -0.6470  0.2077
 6109TIP3    H139886   6.147   1.088   0.709 -0.8768  0.4808 -0.2790
 6109TIP3    H239887   6.021   1.130   0.782 -0.4905 -1.0951  1.3729
 6110TIP3   OH239888   3.524   2.139   0.745  0.1276 -0.0627  0.2443
 6110TIP3    H139889   3.466   2.072   0.708 -0.1532 -0.1809  0.8963
 6110TIP3    H239890   3.594   2.148   0.680  0.0705 -0.8530  0.0643
 6111TIP3   OH239891   6.072   0.216   2.258  0.4521 -0.2630  0.4806
 6111TIP3    H139892   6.041   0.292   2.309 -1.7230 -1.0185  0.3695
 6111TIP3    H239893   5.992   0.171   2.231  1.6595 -1.6552 -0.9338
 6112TIP3   OH239894   0.835   5.847   8.753  0.6434 -0.1618 -0.1131
 6112TIP3    H139895   0.905   5.783   8.761  0.2898 -0.6111 -0.5548
 6112TIP3    H239896   0.877   5.931   8.773  1.6228 -0.2368 -1.6346
 6113TIP3   OH239897   6.625   1.201   2.245  0.4441  0.3611 -0.5114
 6113TIP3    H139898   6.637   1.213   2.339  1.1462 -1.0135 -0.4034
 6113TIP3    H239899   6.711   1.176   2.212 -0.0637 -0.4264 -1.3009
 6114TIP3   OH239900   1.804   3.821   8.608  0.1487  0.1193  0.2971
 6114TIP3    H139901   1.897   3.813   8.585 -0.0313 -0.6819 -0.1929
 6114TIP3    H239902   1.804   3.871   8.689  0.9278  1.3328 -0.4173
 6115TIP3   OH239903   1.820   2.330   1.222  0.1577  0.3454  0.2002
 6115TIP3    H139904   1.850   2.339   1.313  0.1398 -1.9158  0.4979
 6115TIP3    H239905   1.751   2.263   1.227 -2.1480  2.4715 -1.0567
 6116TIP3   OH239906   3.808   1.115   1.663  0.2872 -0.3076  0.1306
 6116TIP3    H139907   3.725   1.154   1.638  0.4106  1.1204  1.7580
 6116TIP3    H239908   3.867   1.136   1.590 -0.7380 -1.3392 -1.0365
 6117TIP3   OH239909   3.845   1.351   7.733 -1.0004  0.3563  0.0227
 6117TIP3    H139910   3.929   1.394   7.749 -0.7765  0.6520 -1.7616
 6117TIP3    H239911   3.781   1.408   7.776 -0.3448  0.2740  1.1589
 6118TIP3   OH239912   1.631   1.178   7.815  0.3414  0.3031  0.0616
 6118TIP3    H139913   1.601   1.088   7.827 -1.3308  1.0138  1.6102
 6118TIP3    H239914   1.586   1.208   7.735  0.5066 -0.0647 -0.1699
 6119TIP3   OH239915   0.241   5.270   1.622 -0.4230 -0.1860 -0.2827
 6119TIP3    H139916   0.286   5.317   1.551 -0.5224  1.2259  0.5421
 6119TIP3    H239917   0.149   5.295   1.613 -0.9642 -2.3323 -1.3981
 6120TIP3   OH239918   5.587   6.087   7.526  0.5407 -0.1400 -0.7381
 6120TIP3    H139919   5.535   6.092   7.607  1.3817 -2.6635  0.0607
 6120TIP3    H239920   5.534   6.032   7.467 -0.0223  1.6032 -1.9340
 6121TIP3   OH239921   1.405   4.124   0.503 -0.2137 -0.7365  0.3845
 6121TIP3    H139922   1.322   4.153   0.541 -0.3706 -1.2250  0.4233
 6121TIP3    H239923   1.426   4.043   0.550  1.4305  0.5250  1.9564
 6122TIP3   OH239924   6.606   1.949   2.385  0.4120 -0.3369  0.2305
 6122TIP3    H139925   6.691   1.991   2.375  1.2471 -1.8884  0.4124
 6122TIP3    H239926   6.543   2.021   2.389  1.5111  0.8152 -1.6174
 6123TIP3   OH239927   1.528   0.442   8.351  0.4585 -0.2034  0.3673
 6123TIP3    H139928   1.581   0.403   8.420 -0.8027  0.0913  1.5308
 6123TIP3    H239929   1.438   0.418   8.372  0.1037 -1.0434 -1.7948
 6124TIP3   OH239930   0.282   1.635   1.042 -0.6149  0.5114  0.0612
 6124TIP3    H139931   0.289   1.683   0.960  2.4367 -0.3269 -0.3251
 6124TIP3    H239932   0.231   1.691   1.099 -1.4973  1.8296 -1.9053
 6125TIP3   OH239933   0.069   6.527   2.068 -0.0542 -0.6208 -0.3934
 6125TIP3    H139934   0.004   6.577   2.117  1.5071  0.4082  0.7532
 6125TIP3    H239935   0.106   6.589   2.006  0.8478 -0.7485 -0.0059
 6126TIP3   OH239936   4.171   3.040   1.145 -0.0582  0.3199  1.0728
 6126TIP3    H139937   4.122   3.042   1.063 -0.0589 -0.3762  1.0447
 6126TIP3    H239938   4.112   2.996   1.207  0.9600 -1.6767  0.7159
 6127TIP3   OH239939   0.432   2.102   7.420  0.4570  1.0153  0.4883
 6127TIP3    H139940   0.464   2.053   7.344 -0.3912  0.4506  0.4768
 6127TIP3    H239941   0.409   2.035   7.484  0.5437  1.4624  0.9951
 6128TIP3   OH239942   5.063   3.393   2.652  0.2743  0.1426 -0.2423
 6128TIP3    H139943   5.002   3.412   2.722  0.5337 -0.4881  0.1636
 6128TIP3    H239944   5.106   3.311   2.678  1.9427  1.0231 -0.0769
 6129TIP3   OH239945   4.448   0.697   8.003  0.2504 -0.0768  0.1387
 6129TIP3    H139946   4.454   0.793   8.011 -0.5147 -0.1108  1.5638
 6129TIP3    H239947   4.409   0.669   8.086  1.3623 -1.7309  0.1477
 6130TIP3   OH239948   3.848   3.823   1.226  0.1118 -0.7936  0.6424
 6130TIP3    H139949   3.837   3.731   1.203  0.6591 -0.3314 -1.7905
 6130TIP3    H239950   3.942   3.832   1.245 -0.0878 -0.8712  1.7598
 6131TIP3   OH239951   1.524   0.390   0.774  0.1188  0.8957 -0.0172
 6131TIP3    H139952   1.568   0.462   0.730 -2.4065  2.1108 -0.7119
 6131TIP3    H239953   1.484   0.339   0.704  0.7498 -0.4471  0.5549
 6132TIP3   OH239954   5.743   2.110   1.791  0.4121 -0.0723 -0.3951
 6132TIP3    H139955   5.716   2.028   1.750  1.1644  0.0124 -1.0964
 6132TIP3    H239956   5.750   2.172   1.718  0.8525  0.3401 -0.0104
 6133TIP3   OH239957   1.143   1.791   0.853 -0.4528 -0.3197 -0.3661
 6133TIP3    H139958   1.155   1.831   0.767  0.2042 -0.9016 -0.5548
 6133TIP3    H239959   1.069   1.838   0.891 -0.4450  0.2703 -1.0528
 6134TIP3   OH239960   3.030   2.989   7.358 -0.1759  0.4919  0.3242
 6134TIP3    H139961   2.993   2.902   7.368  0.2406  0.3261  0.4324
 6134TIP3    H239962   3.095   2.980   7.288  0.9830  0.3510  1.3804
 6135TIP3   OH239963   1.283   6.432   7.526 -0.4110 -0.7473 -0.3459
 6135TIP3    H139964   1.243   6.460   7.608  0.0313 -0.7466 -0.1293
 6135TIP3    H239965   1.239   6.484   7.459 -0.2527 -0.2001 -0.0365
 6136TIP3   OH239966   6.304   0.858   2.814 -0.1564 -0.1355 -0.4439
 6136TIP3    H139967   6.229   0.870   2.872  0.4764  1.7858  0.0723
 6136TIP3    H239968   6.379   0.890   2.865  0.9707 -1.6204 -1.0873
 6137TIP3   OH239969   0.825   3.434   2.185 -0.5637  0.6802 -0.1579
 6137TIP3    H139970   0.860   3.523   2.190  1.2299 -0.0088  0.3429
 6137TIP3    H239971   0.818   3.406   2.276  1.1391 -0.4687 -0.3136
 6138TIP3   OH239972   4.099   1.128   0.160 -0.3624 -0.2636  0.4231
 6138TIP3    H139973   4.160   1.187   0.205 -1.1031  0.8216  0.0305
 6138TIP3    H239974   4.150   1.094   0.087 -0.0512  0.2167  0.4081
 6139TIP3   OH239975   3.200   4.807   6.836 -0.1460  0.0372 -0.4867
 6139TIP3    H139976   3.253   4.809   6.916  0.6108 -1.3863 -0.9141
 6139TIP3    H239977   3.125   4.862   6.856  0.1160 -0.1398  1.1548
 6140TIP3   OH239978   0.197   1.882   0.612  0.4712  0.4206  0.2875
 6140TIP3    H139979   0.200   1.805   0.668  0.4821  0.7274  0.7181
 6140TIP3    H239980   0.243   1.856   0.532 -1.2387 -0.6575 -0.3949
 6141TIP3   OH239981   6.187   5.843   8.464 -0.2343  0.0413 -0.5285
 6141TIP3    H139982   6.283   5.846   8.461 -0.0633 -2.4252  0.5436
 6141TIP3    H239983   6.166   5.819   8.554 -1.9104  1.0902 -0.6042
 6142TIP3   OH239984   5.811   5.898   7.717  0.4646 -0.0719 -0.2738
 6142TIP3    H139985   5.886   5.840   7.729  0.0540 -0.9124 -1.5753
 6142TIP3    H239986   5.794   5.896   7.623 -1.5090 -0.3439  0.0365
 6143TIP3   OH239987   0.501   5.140   8.450  0.0310  0.3256 -0.0665
 6143TIP3    H139988   0.581   5.106   8.410  0.1555 -0.2828  0.6621
 6143TIP3    H239989   0.443   5.064   8.455 -0.7196  0.8328 -0.8730
 6144TIP3   OH239990   0.170   0.673   0.806 -0.0408  0.2627 -0.1515
 6144TIP3    H139991   0.209   0.629   0.881  0.7396  1.6550  0.3024
 6144TIP3    H239992   0.222   0.643   0.731 -0.2137 -0.4015 -0.0146
 6145TIP3   OH239993   5.321   3.056   7.488  0.1514 -0.6799 -0.0010
 6145TIP3    H139994   5.406   3.013   7.486 -0.9712 -3.1033  0.9136
 6145TIP3    H239995   5.287   3.041   7.576 -1.8642 -1.1826 -0.7920
 6146TIP3   OH239996   4.674   3.453   0.334 -0.3796 -0.1272 -0.5147
 6146TIP3    H139997   4.588   3.449   0.291 -0.2156  0.0050 -0.8504
 6146TIP3    H239998   4.737   3.457   0.263 -0.1589  1.3544 -0.2697
 6147TIP3   OH239999   5.119   3.412   0.552  0.4520 -0.8340  0.1979
 6147TIP3    H140000   5.024   3.398   0.559  0.3316  0.1808  0.6752
 6147TIP3    H240001   5.143   3.454   0.634  1.1771 -0.2986 -0.2867
 6148TIP3   OH240002   4.266   4.349   1.178 -0.2367 -0.4656  0.2627
 6148TIP3    H140003   4.274   4.429   1.126 -0.6961 -0.7274 -0.2257
 6148TIP3    H240004   4.290   4.375   1.267 -0.0577  0.1357  0.0414
 6149TIP3   OH240005   2.738   5.598   0.000  0.4347 -0.2154  0.5563
 6149TIP3    H140006   2.678   5.527  -0.022  1.5239 -1.3731  1.2010
 6149TIP3    H240007   2.820   5.574  -0.043  1.0706  0.1752  1.5198
 6150TIP3   OH240008   1.457   2.337   1.044  0.1157  0.0089 -0.0310
 6150TIP3    H140009   1.445   2.396   0.970 -0.2808  0.5836  0.4886
 6150TIP3    H240010   1.456   2.249   1.004  0.0025  0.3104 -0.7139
 6151TIP3   OH240011   5.114   1.655   1.763  0.6751 -0.4102 -0.2758
 6151TIP3    H140012   5.201   1.652   1.803  0.3654 -4.1663  0.5324
 6151TIP3    H240013   5.057   1.609   1.825 -1.4742  0.0872 -1.7387
 6152TIP3   OH240014   1.706   1.986   8.831  0.0519 -0.1819  0.2032
 6152TIP3    H140015   1.717   1.932   8.753  1.0418 -0.4893  0.5355
 6152TIP3    H240016   1.787   2.036   8.837 -0.1148  0.0145  0.9023
 6153TIP3   OH240017   2.138   3.570   1.491  0.0489 -0.5171  0.5930
 6153TIP3    H140018   2.171   3.660   1.495  1.1527 -0.9386  1.4563
 6153TIP3    H240019   2.163   3.532   1.575 -0.6455 -1.5566  0.3377
 6154TIP3   OH240020   5.712   0.416   1.352  0.0352  0.0566 -0.2331
 6154TIP3    H140021   5.650   0.489   1.358 -0.8894 -0.6292 -1.0202
 6154TIP3    H240022   5.714   0.395   1.259  1.0249 -0.3116 -0.1363
 6155TIP3   OH240023   5.071   2.538   7.737 -0.2458  0.0342  0.3615
 6155TIP3    H140024   5.036   2.449   7.727 -0.2298  0.0387  0.2587
 6155TIP3    H240025   5.020   2.577   7.808  0.2263 -0.2972  0.8898
 6156TIP3   OH240026   5.217   6.469   8.520 -0.1995  0.7466  0.2447
 6156TIP3    H140027   5.136   6.514   8.541 -0.4225  1.8463 -2.5113
 6156TIP3    H240028   5.270   6.476   8.599 -1.7434  2.4100  1.2089
 6157TIP3   OH240029   0.127   4.625   9.077 -0.5270 -0.0574  0.0528
 6157TIP3    H140030   0.094   4.535   9.072 -2.3838  0.6158 -1.0567
 6157TIP3    H240031   0.072   4.666   9.144  0.3600  0.2463  0.6045
 6158TIP3   OH240032   5.878   6.398   1.846  0.3219 -0.5355  0.4317
 6158TIP3    H140033   5.951   6.458   1.833  2.5285 -2.9661  0.8160
 6158TIP3    H240034   5.902   6.346   1.922 -1.6749 -1.6685  0.3747
 6159TIP3   OH240035   1.428   3.289   1.417 -0.0480  0.3090  0.1724
 6159TIP3    H140036   1.468   3.262   1.500  1.4804 -2.6253 -1.3858
 6159TIP3    H240037   1.347   3.238   1.412  0.5237 -0.5481 -0.6840
 6160TIP3   OH240038   2.787   4.371   1.340 -0.5259  0.0533  0.5194
 6160TIP3    H140039   2.751   4.449   1.297 -0.1819 -0.2044 -0.2596
 6160TIP3    H240040   2.736   4.298   1.303  1.6963 -0.4811 -1.7388
 6161TIP3   OH240041   4.162   6.242   0.136  0.4446 -0.1818  0.0751
 6161TIP3    H140042   4.167   6.150   0.110 -2.2327 -0.7745  1.3339
 6161TIP3    H240043   4.215   6.248   0.215  1.1359 -0.4909 -0.3619
 6162TIP3   OH240044   1.864   0.541   0.781 -0.4579  0.2393 -0.2607
 6162TIP3    H140045   1.849   0.516   0.872  2.4548  0.1231  0.2862
 6162TIP3    H240046   1.814   0.476   0.730 -2.8547  0.8363  1.1692
 6163TIP3   OH240047   2.176   6.455   8.815 -0.5734  0.1773  0.0991
 6163TIP3    H140048   2.100   6.423   8.766 -1.7333  1.9004  0.6619
 6163TIP3    H240049   2.154   6.439   8.907  0.0713  0.0364  0.2338
 6164TIP3   OH240050   5.237   5.190   1.290  0.3056  0.5111  0.2589
 6164TIP3    H140051   5.270   5.125   1.351  0.0910  0.2636  0.1111
 6164TIP3    H240052   5.288   5.176   1.210 -0.6594 -0.3588 -0.2138
 6165TIP3   OH240053   0.579   1.609   8.837 -0.2851  0.3784  0.3884
 6165TIP3    H140054   0.527   1.561   8.772  0.3516  0.8639 -0.5054
 6165TIP3    H240055   0.621   1.679   8.787  1.5520 -0.2255  0.9657
 6166TIP3   OH240056   0.802   3.699   7.116 -0.4577  0.5018 -0.0051
 6166TIP3    H140057   0.868   3.761   7.146  1.2934 -2.0182  1.7872
 6166TIP3    H240058   0.775   3.652   7.195  1.7685 -4.0674 -1.5857
 6167TIP3   OH240059   1.488   0.971   8.953  0.3011 -0.3449  0.0547
 6167TIP3    H140060   1.528   1.016   8.878  1.5784 -0.9575  0.3288
 6167TIP3    H240061   1.497   0.878   8.931  0.6968 -0.5314  0.9598
 6168TIP3   OH240062   1.290   3.775   1.096  0.4247  0.0711 -0.5740
 6168TIP3    H140063   1.220   3.724   1.054  0.0789 -0.4094  0.5351
 6168TIP3    H240064   1.342   3.709   1.142  0.0931  0.6739  0.7126
 6169TIP3   OH240065   4.482   4.062   0.257 -0.6730 -0.2047  0.6935
 6169TIP3    H140066   4.408   4.089   0.202 -0.6086 -1.3983 -0.0011
 6169TIP3    H240067   4.465   4.105   0.341 -0.7912  1.6188 -0.2213
 6170TIP3   OH240068   6.314   3.818   2.527  0.4811  0.7326  0.1416
 6170TIP3    H140069   6.234   3.854   2.564 -0.4498 -1.0528 -0.0365
 6170TIP3    H240070   6.294   3.803   2.435  1.2725  0.9282 -0.0745
 6171TIP3   OH240071   1.844   6.065   2.650  0.0036  0.6441  0.6687
 6171TIP3    H140072   1.847   6.037   2.559 -0.7603 -1.1407  1.1567
 6171TIP3    H240073   1.827   6.159   2.646 -0.5522  0.5008 -1.0118
 6172TIP3   OH240074   6.272   4.398   7.129 -0.1309  0.2391  0.2001
 6172TIP3    H140075   6.227   4.315   7.118  1.2415 -0.5386  0.3228
 6172TIP3    H240076   6.205   4.457   7.166 -0.8257 -1.0751  1.1071
 6173TIP3   OH240077   2.410   1.822   0.339 -0.3717 -0.4053 -0.0646
 6173TIP3    H140078   2.427   1.732   0.367 -2.2334 -1.3682 -1.7477
 6173TIP3    H240079   2.352   1.858   0.406  1.3012  0.0077  1.2297
 6174TIP3   OH240080   6.693   6.671   1.110  0.5694  0.1339 -0.1977
 6174TIP3    H140081   6.673   6.636   1.023  3.1272 -0.2687 -0.7107
 6174TIP3    H240082   6.785   6.647   1.125  0.1475 -0.0516  2.7545
 6175TIP3   OH240083   6.443   0.986   0.393  0.1474 -0.1700 -0.4171
 6175TIP3    H140084   6.457   1.061   0.450 -2.0240 -1.0095  1.3698
 6175TIP3    H240085   6.497   0.917   0.431  2.6372  0.4999 -2.4163
 6176TIP3   OH240086   1.905   0.775   9.016 -0.7064 -0.0326  0.0862
 6176TIP3    H140087   1.886   0.703   9.075 -2.1966  0.2079 -0.0564
 6176TIP3    H240088   1.871   0.853   9.061 -1.4000  0.2238 -0.8439
 6177TIP3   OH240089   4.143   0.381   0.858  0.6758 -0.7292 -0.3270
 6177TIP3    H140090   4.054   0.347   0.861 -0.3935  1.7990 -0.4750
 6177TIP3    H240091   4.175   0.359   0.770 -0.4017 -0.3109 -0.8361
 6178TIP3   OH240092   2.671   5.859   0.026  0.2790  0.2397  0.0937
 6178TIP3    H140093   2.699   5.768   0.017  1.4486  0.5910  0.0491
 6178TIP3    H240094   2.738   5.910  -0.020  0.3785  1.2289  1.2807
 6179TIP3   OH240095   1.620   4.099   8.197 -0.4237  0.1137  0.6541
 6179TIP3    H140096   1.601   4.083   8.290  0.9104  0.9303  1.0811
 6179TIP3    H240097   1.714   4.112   8.193 -0.5145  0.4975 -0.7678
 6180TIP3   OH240098   5.495   3.280   6.936 -0.7103  0.2822 -0.0660
 6180TIP3    H140099   5.410   3.271   6.980 -0.7586  2.5087  0.3865
 6180TIP3    H240100   5.476   3.266   6.843 -1.5463  0.5987  0.0537
 6181TIP3   OH240101   0.305   3.164   1.432  0.1548  0.1048 -0.1939
 6181TIP3    H140102   0.213   3.186   1.420 -0.1744 -1.1320 -0.0951
 6181TIP3    H240103   0.304   3.073   1.461  1.5008 -0.6666 -2.3369
 6182TIP3   OH240104   1.624   0.125   8.296  0.2027  0.2366  0.2399
 6182TIP3    H140105   1.716   0.099   8.286  0.0883  0.0609 -0.4049
 6182TIP3    H240106   1.605   0.175   8.216 -0.7075 -1.0590 -0.3952
 6183TIP3   OH240107   5.677   3.070   7.186  1.2709  0.0949 -0.8005
 6183TIP3    H140108   5.596   3.104   7.224  0.8394 -2.7049  1.0503
 6183TIP3    H240109   5.695   3.129   7.112 -2.3747  0.9018 -1.2471
 6184TIP3   OH240110   4.515   0.020   2.424  0.3220  0.1841 -0.4487
 6184TIP3    H140111   4.546  -0.023   2.503  1.7921 -0.6350 -1.4283
 6184TIP3    H240112   4.535   0.113   2.437 -0.3162  0.2040  0.5010
 6185TIP3   OH240113   0.040   4.198   0.593  0.3328  0.0009  0.1096
 6185TIP3    H140114   0.054   4.105   0.580  1.2509  0.1961 -0.3962
 6185TIP3    H240115   0.125   4.238   0.573  0.7094  0.7279  2.7731
 6186TIP3   OH240116   1.938   5.248   3.278  0.1523  0.2573 -0.4323
 6186TIP3    H140117   2.022   5.202   3.282  1.0739  1.7929 -1.0465
 6186TIP3    H240118   1.962   5.340   3.268 -1.6121  0.6779 -1.1953
 6187TIP3   OH240119   4.841   2.558   2.056  0.9549 -0.2624  0.4235
 6187TIP3    H140120   4.790   2.629   2.095  1.4201  0.3677 -0.0776
 6187TIP3    H240121   4.904   2.533   2.124  1.1376  0.1749  0.4168
 6188TIP3   OH240122   5.128   1.051   8.031  0.2955  0.0341 -0.0877
 6188TIP3    H140123   5.061   1.092   8.084 -0.5396  0.1684 -1.2159
 6188TIP3    H240124   5.089   1.042   7.944  0.6265 -2.5973 -0.0705
 6189TIP3   OH240125   2.205   4.716   1.420 -0.4192 -0.1411  0.4616
 6189TIP3    H140126   2.166   4.764   1.347 -0.3343  0.7722  1.0122
 6189TIP3    H240127   2.135   4.658   1.451 -0.4074 -0.6538 -0.4331
 6190TIP3   OH240128   5.194   6.662   0.930  0.1976 -0.0045 -0.2448
 6190TIP3    H140129   5.206   6.743   0.980  3.1837 -1.1482  1.1004
 6190TIP3    H240130   5.230   6.682   0.843 -0.8140  0.6379 -0.5285
 6191TIP3   OH240131   0.795   2.070   8.710 -0.6577 -0.2721  0.2318
 6191TIP3    H140132   0.800   2.051   8.804 -2.8946 -0.2210  0.4081
 6191TIP3    H240133   0.732   2.007   8.676  0.1507 -0.3178 -1.2768
 6192TIP3   OH240134   1.543   4.697   0.238  0.7531  0.1906  0.1668
 6192TIP3    H140135   1.493   4.709   0.319  1.3914  1.1282  0.4356
 6192TIP3    H240136   1.503   4.756   0.175  2.4536  2.1709  0.8330
 6193TIP3   OH240137   4.180   2.672   2.033 -0.3178 -0.3501  0.1991
 6193TIP3    H140138   4.091   2.707   2.030  0.3195  1.6223  2.0066
 6193TIP3    H240139   4.169   2.581   2.059 -1.8056  0.0974  1.2958
 6194TIP3   OH240140   1.867   2.417   8.003 -0.1997  0.5143  0.5847
 6194TIP3    H140141   1.916   2.424   7.921 -0.8698  0.6133  0.1820
 6194TIP3    H240142   1.934   2.426   8.071  0.7424 -2.0247  0.0967
 6195TIP3   OH240143   0.792   1.557   2.148  0.0345 -0.3173 -0.6474
 6195TIP3    H140144   0.806   1.463   2.143 -2.6232 -0.8644  0.7763
 6195TIP3    H240145   0.880   1.595   2.142  1.0647 -2.7603 -2.6694
 6196TIP3   OH240146   5.848   2.914   0.934  0.1266 -0.1526 -0.1940
 6196TIP3    H140147   5.858   2.937   0.842  0.8222 -1.0396 -0.3590
 6196TIP3    H240148   5.923   2.954   0.977 -0.1081  0.1208 -0.0388
 6197TIP3   OH240149   6.001   6.049   0.009  0.4171 -0.0673  0.0533
 6197TIP3    H140150   6.083   6.002  -0.004 -0.2961 -1.3815  0.1522
 6197TIP3    H240151   5.945   5.987   0.055 -0.8541  0.5795 -0.5774
 6198TIP3   OH240152   6.695   3.584   0.892 -0.4407 -0.0157 -0.0421
 6198TIP3    H140153   6.787   3.599   0.868 -1.1089  1.3563 -2.0333
 6198TIP3    H240154   6.692   3.599   0.987  1.0319  2.1559 -0.2674
 6199TIP3   OH240155   6.631   0.673   7.000  0.2056 -0.0617  0.3334
 6199TIP3    H140156   6.697   0.629   7.054  0.7383  0.0175 -0.2485
 6199TIP3    H240157   6.670   0.677   6.913  0.2010  1.6025  0.3748
 6200TIP3   OH240158   4.228   2.669   1.217  0.1199  0.5258 -0.5017
 6200TIP3    H140159   4.278   2.643   1.294  0.3876  0.4721 -0.6931
 6200TIP3    H240160   4.145   2.702   1.252 -1.0129 -2.2615 -0.3056
 6201TIP3   OH240161   2.911   6.101   0.787  0.0436 -0.3970  0.7076
 6201TIP3    H140162   2.969   6.151   0.730 -1.4585 -0.2679 -0.8060
 6201TIP3    H240163   2.923   6.010   0.760  1.0383 -0.6220  1.8343
 6202TIP3   OH240164   6.334   2.282   2.066 -0.3831  0.7309 -0.0988
 6202TIP3    H140165   6.408   2.260   2.121 -1.0138 -1.1185  0.0557
 6202TIP3    H240166   6.265   2.310   2.127 -0.4526  0.5704 -0.1046
 6203TIP3   OH240167   0.085   6.695   1.834  0.2793 -0.2260  0.2546
 6203TIP3    H140168   0.013   6.665   1.778 -1.7169  2.2717  1.2734
 6203TIP3    H240169   0.161   6.699   1.776 -1.0257 -0.5081 -1.5546
 6204TIP3   OH240170   4.594   2.587   8.502  0.3841 -0.6329  0.2954
 6204TIP3    H140171   4.577   2.674   8.538  0.1282  0.2190 -1.7965
 6204TIP3    H240172   4.518   2.535   8.529 -0.9212  0.5936 -0.8763
 6205TIP3   OH240173   6.641   0.383   7.783  0.5516 -0.4817 -0.2791
 6205TIP3    H140174   6.728   0.363   7.749  0.5586 -1.6615  0.3709
 6205TIP3    H240175   6.608   0.299   7.815  1.0252  0.6793  3.7477
 6206TIP3   OH240176   0.699   2.254   7.609  0.3528  0.0512  0.1095
 6206TIP3    H140177   0.709   2.204   7.528  0.8276  1.6512 -0.8631
 6206TIP3    H240178   0.618   2.221   7.648 -0.4647 -0.0175 -1.5686
 6207TIP3   OH240179   4.684   0.985   7.380  0.4279  0.1348 -0.3083
 6207TIP3    H140180   4.601   0.961   7.339  0.3580  0.5834 -0.4391
 6207TIP3    H240181   4.747   0.987   7.307  0.5777 -0.3082 -0.1934
 6208TIP3   OH240182   3.648   5.474   2.769  0.5165  0.0601 -0.5429
 6208TIP3    H140183   3.556   5.489   2.791  0.7108 -0.1288  0.4960
 6208TIP3    H240184   3.651   5.382   2.742  0.3090  0.2251 -1.1348
 6209TIP3   OH240185   5.099   4.011   0.436 -0.3234 -0.6025  0.3328
 6209TIP3    H140186   5.085   4.018   0.341  2.6545  0.9476 -0.1038
 6209TIP3    H240187   5.014   4.034   0.474 -1.5936 -1.2253 -1.9097
 6210TIP3   OH240188   1.016   4.760   0.744 -0.0679 -0.4868  0.4034
 6210TIP3    H140189   1.048   4.850   0.752 -0.8608 -0.1475 -0.1365
 6210TIP3    H240190   1.073   4.710   0.802  0.7053  0.2770  0.3352
 6211TIP3   OH240191   5.344   6.501   7.601  0.3782 -0.4390  0.2556
 6211TIP3    H140192   5.388   6.463   7.677 -1.6373 -1.6003  0.9165
 6211TIP3    H240193   5.415   6.520   7.540  1.9198 -0.8681  1.8216
 6212TIP3   OH240194   5.592   3.029   1.031  0.3129  0.8736 -0.0224
 6212TIP3    H140195   5.532   2.957   1.011  1.5287 -0.9030  2.2088
 6212TIP3    H240196   5.678   2.997   1.006  0.9131  1.4421  1.2074
 6213TIP3   OH240197   2.607   6.535   0.145 -0.8547  0.5691 -0.4040
 6213TIP3    H140198   2.511   6.542   0.146 -1.0791 -1.9612  0.6462
 6213TIP3    H240199   2.631   6.555   0.054 -2.5910 -0.6992 -1.1973
 6214TIP3   OH240200   5.271   6.546   1.763 -0.3969  0.3983  0.3100
 6214TIP3    H140201   5.197   6.563   1.706 -1.4845 -1.3637  1.1086
 6214TIP3    H240202   5.235   6.494   1.835  1.2512  1.1033  1.7181
 6215TIP3   OH240203   5.254   2.189   6.741  0.2040 -0.1243 -0.2728
 6215TIP3    H140204   5.240   2.184   6.836  2.3519  0.3118  0.1151
 6215TIP3    H240205   5.274   2.098   6.716  0.1204 -0.1561 -0.2262
 6216TIP3   OH240206   0.014   3.841   8.813  0.0397 -0.3762  0.3663
 6216TIP3    H140207   0.040   3.775   8.750  0.5468  0.3546 -0.2028
 6216TIP3    H240208   0.095   3.889   8.832 -0.5108  0.7231 -0.0066
 6217TIP3   OH240209   4.967   4.376   0.201 -0.2002  0.1714  0.6316
 6217TIP3    H140210   4.927   4.393   0.116  0.8424 -0.7799 -0.0766
 6217TIP3    H240211   4.942   4.286   0.223  1.8252 -0.6203 -0.0456
 6218TIP3   OH240212   0.583   5.587   2.090 -0.6909  0.6782  0.7949
 6218TIP3    H140213   0.548   5.498   2.097  1.2439 -0.3094 -0.9457
 6218TIP3    H240214   0.567   5.626   2.176 -4.1295 -0.3037  0.7239
 6219TIP3   OH240215   4.645   2.092   8.662 -0.1055  0.1877 -0.1055
 6219TIP3    H140216   4.561   2.133   8.686  0.2174  0.0943  1.3145
 6219TIP3    H240217   4.711   2.150   8.701  0.4558 -0.1452 -0.5594
 6220TIP3   OH240218   3.514   0.406   0.121  0.1375  0.0503  0.2080
 6220TIP3    H140219   3.552   0.493   0.113  1.9680 -0.6755  0.4855
 6220TIP3    H240220   3.579   0.347   0.082 -0.0033 -1.4019  2.0029
 6221TIP3   OH240221   5.664   0.730   1.030 -0.0777 -0.1132 -0.2063
 6221TIP3    H140222   5.589   0.754   0.975 -0.5144  0.5326  0.6384
 6221TIP3    H240223   5.654   0.785   1.108  1.1132 -0.2459  0.0511
 6222TIP3   OH240224   0.122   4.862   8.374  0.5568 -0.7166 -0.2750
 6222TIP3    H140225   0.160   4.784   8.334 -1.7430 -1.1665 -1.7272
 6222TIP3    H240226   0.047   4.830   8.424  1.3324  0.2636  1.6650
 6223TIP3   OH240227   5.755   6.647   8.407 -0.4402  0.4557 -0.2661
 6223TIP3    H140228   5.783   6.711   8.341  1.6368  1.1936  1.2054
 6223TIP3    H240229   5.794   6.564   8.378 -0.2965  0.5791 -0.4282
 6224TIP3   OH240230   4.746   4.641   1.738  0.1746 -0.3352  0.0859
 6224TIP3    H140231   4.790   4.720   1.769 -0.1806 -0.3107  0.5376
 6224TIP3    H240232   4.762   4.576   1.806  0.4276 -0.6398 -0.2638
 6225TIP3   OH240233   2.244   6.667   7.583  0.6029  0.2151  0.3722
 6225TIP3    H140234   2.157   6.705   7.572  1.3414  1.7758 -0.3137
 6225TIP3    H240235   2.260   6.620   7.501  0.7674  0.6921  0.1292
 6226TIP3   OH240236   4.078   2.279   0.568  0.2659 -0.3635 -0.5323
 6226TIP3    H140237   4.144   2.348   0.556 -0.0601  0.1967  0.7543
 6226TIP3    H240238   3.995   2.325   0.570  0.0679 -0.7438  0.6705
 6227TIP3   OH240239   4.563   5.172   0.071  0.1550 -0.5849  0.3460
 6227TIP3    H140240   4.597   5.236   0.008 -0.4784 -1.4749 -0.9517
 6227TIP3    H240241   4.563   5.089   0.023 -0.7067 -1.2245  1.4030
 6228TIP3   OH240242   1.070   6.358   8.670  0.1183 -0.3214 -0.2510
 6228TIP3    H140243   1.121   6.347   8.750 -0.6047  0.1594  0.2904
 6228TIP3    H240244   1.084   6.277   8.621 -1.1192 -1.5737  1.3367
 6229TIP3   OH240245   5.158   3.650   2.455 -1.0590  0.2995 -0.0982
 6229TIP3    H140246   5.216   3.702   2.510 -2.4349  2.5408 -0.6328
 6229TIP3    H240247   5.075   3.647   2.504 -1.5113  0.0686 -0.8585
 6230TIP3   OH240248   5.111   0.640   0.226  0.0750 -0.1758 -0.1395
 6230TIP3    H140249   5.055   0.657   0.150 -0.3537 -0.0599  0.1997
 6230TIP3    H240250   5.139   0.726   0.255 -0.3877 -0.1711  0.3001
 6231TIP3   OH240251   3.582   1.292   1.598 -1.1305  0.5076 -0.3884
 6231TIP3    H140252   3.596   1.252   1.512 -0.8558 -0.0360 -0.0886
 6231TIP3    H240253   3.490   1.273   1.618 -1.4273  1.3152 -0.9068
 6232TIP3   OH240254   4.910   3.069   0.683 -0.2890 -0.0170  0.4199
 6232TIP3    H140255   4.886   3.062   0.590  0.5135  0.8604  0.1311
 6232TIP3    H240256   4.833   3.109   0.724 -1.1031 -1.4523  0.3684
 6233TIP3   OH240257   3.254   3.787   8.807  0.6091 -0.6492 -0.1268
 6233TIP3    H140258   3.261   3.873   8.848  0.0423 -0.6706  0.0341
 6233TIP3    H240259   3.264   3.725   8.880  2.3900 -0.7735 -0.4320
 6234TIP3   OH240260   5.384   3.975   0.416 -0.2200 -0.0050 -0.0258
 6234TIP3    H140261   5.394   4.066   0.445 -0.6263 -0.6556  2.3985
 6234TIP3    H240262   5.291   3.966   0.397 -0.0415  0.2730 -1.1268
 6235TIP3   OH240263   3.924   1.620   8.769 -0.1839 -0.0467 -0.2885
 6235TIP3    H140264   3.979   1.621   8.848 -0.5493  0.7775 -0.0365
 6235TIP3    H240265   3.936   1.707   8.731 -0.8906 -0.0540 -0.5288
 6236TIP3   OH240266   4.566   4.716   1.184  0.6659  0.1945 -0.1157
 6236TIP3    H140267   4.537   4.711   1.275 -3.3717  1.4811 -1.1110
 6236TIP3    H240268   4.550   4.807   1.159  1.7686 -0.1168 -2.1367
 6237TIP3   OH240269   4.391   5.778   7.769  0.1194  0.3467  0.1976
 6237TIP3    H140270   4.441   5.814   7.843  0.1348  0.0053  0.3514
 6237TIP3    H240271   4.439   5.700   7.743 -0.1597  0.1905  0.1451
 6238TIP3   OH240272   0.116   5.313   0.318 -0.3649  0.8224 -0.3269
 6238TIP3    H140273   0.092   5.225   0.292  1.0956  0.4606 -0.5196
 6238TIP3    H240274   0.103   5.366   0.240 -0.4953  0.6313 -0.4345
 6239TIP3   OH240275   4.786   0.848   7.761  0.2486  0.9351  0.2965
 6239TIP3    H140276   4.841   0.844   7.839  0.8280  0.9991 -0.1060
 6239TIP3    H240277   4.795   0.938   7.730 -0.1940  0.9841  0.3053
 6240TIP3   OH240278   2.791   4.201   2.743  0.5949  0.7120 -0.1632
 6240TIP3    H140279   2.869   4.209   2.799 -0.8072 -1.0703  2.2248
 6240TIP3    H240280   2.804   4.118   2.697  0.5026  0.8798 -0.4977
 6241TIP3   OH240281   1.149   0.340   1.316  0.5113  0.3773  0.0736
 6241TIP3    H140282   1.118   0.284   1.245  0.0742 -1.2834  1.5034
 6241TIP3    H240283   1.111   0.426   1.297 -0.2005 -0.2015 -1.2897
 6242TIP3   OH240284   1.935   3.555   1.157  0.2535  0.5809  0.1157
 6242TIP3    H140285   1.951   3.542   1.063  3.6450  0.6413  0.5628
 6242TIP3    H240286   1.945   3.468   1.196 -1.2417  0.5381  0.4405
 6243TIP3   OH240287   0.638   1.313   8.706 -0.6605  0.2215  0.2923
 6243TIP3    H140288   0.604   1.260   8.634 -0.5994  1.7223 -0.8876
 6243TIP3    H240289   0.566   1.318   8.769 -0.6321 -1.3138  0.4916
 6244TIP3   OH240290   3.425   0.769   8.146  0.2617  0.4734  0.2305
 6244TIP3    H140291   3.455   0.828   8.077  0.4986 -0.4085 -0.4340
 6244TIP3    H240292   3.443   0.681   8.113  0.6020  0.0298  1.5131
 6245TIP3   OH240293   1.313   3.840   8.208  0.0174  0.2187 -0.3924
 6245TIP3    H140294   1.309   3.854   8.113 -0.3700 -1.8010 -0.7252
 6245TIP3    H240295   1.367   3.762   8.219  0.0068  0.3861  1.0548
 6246TIP3   OH240296   5.749   2.775   7.674 -0.2531 -0.4577 -0.3494
 6246TIP3    H140297   5.789   2.699   7.632 -1.7763 -0.7166 -1.4400
 6246TIP3    H240298   5.822   2.828   7.704  0.8551 -1.5727 -0.9997
 6247TIP3   OH240299   0.442   1.124   0.032  0.2100 -0.0710 -0.0334
 6247TIP3    H140300   0.507   1.189   0.059 -0.6386 -0.4912  3.5454
 6247TIP3    H240301   0.418   1.149  -0.057  2.8754  1.9993 -0.2962
 6248TIP3   OH240302   5.582   3.123   1.571 -0.3293  0.0714  0.3374
 6248TIP3    H140303   5.543   3.064   1.636 -0.5424 -0.4201 -0.2286
 6248TIP3    H240304   5.550   3.090   1.487  1.9212 -0.8395 -0.2318
 6249TIP3   OH240305   2.428   0.325   8.976 -0.1566 -0.4846 -0.2838
 6249TIP3    H140306   2.378   0.293   9.052  1.4914 -0.7420  0.7262
 6249TIP3    H240307   2.407   0.262   8.907 -0.5481 -1.0993  0.3754
 6250TIP3   OH240308   3.945   5.746   8.734 -0.0493  0.0967 -0.2161
 6250TIP3    H140309   3.853   5.721   8.739 -0.5258  1.2013 -2.3673
 6250TIP3    H240310   3.948   5.835   8.769  0.2314 -0.0061  0.0249
 6251TIP3   OH240311   0.386   1.158   8.849  0.4750 -0.3796  0.1403
 6251TIP3    H140312   0.335   1.195   8.778 -0.6197 -0.0719  1.0634
 6251TIP3    H240313   0.390   1.064   8.830  0.4919 -0.2536 -0.4940
 6252TIP3   OH240314   3.786   4.528   8.155  0.5411  0.4672 -0.8501
 6252TIP3    H140315   3.755   4.522   8.245 -0.8461 -3.1209 -1.3953
 6252TIP3    H240316   3.753   4.613   8.123 -0.0829  1.2038  1.5879
 6253TIP3   OH240317   3.781   0.686   8.265 -0.4694 -0.1415 -0.1750
 6253TIP3    H140318   3.817   0.630   8.195 -0.7869  1.2522 -1.5180
 6253TIP3    H240319   3.745   0.762   8.218 -2.3161  0.0098  1.3761
 6254TIP3   OH240320   0.159   3.687   7.759 -0.0098  0.3740  0.3689
 6254TIP3    H140321   0.225   3.644   7.814  0.8520 -0.2346 -1.0729
 6254TIP3    H240322   0.139   3.622   7.692 -1.8220  0.7012  0.5353
 6255TIP3   OH240323   4.203   3.481   0.062  0.0647 -0.0669  0.4599
 6255TIP3    H140324   4.217   3.462  -0.031  0.8092  0.3105  0.4833
 6255TIP3    H240325   4.191   3.576   0.065  1.3396  0.1053  0.8773
 6256TIP3   OH240326   4.898   4.203   8.314 -0.0178 -0.1744 -0.2166
 6256TIP3    H140327   4.973   4.230   8.261 -0.3493  0.4688 -0.3599
 6256TIP3    H240328   4.862   4.127   8.268  1.6923 -1.7350  0.8731
 6257TIP3   OH240329   1.395   1.168   8.644  0.2239 -0.1738  0.2706
 6257TIP3    H140330   1.372   1.092   8.590  2.6495 -0.0550 -1.1196
 6257TIP3    H240331   1.334   1.237   8.617  0.3534 -0.5983 -1.1976
 6258TIP3   OH240332   6.104   3.532   0.547  0.1261  0.0557  0.1083
 6258TIP3    H140333   6.086   3.622   0.575 -2.5681  0.3938 -2.2464
 6258TIP3    H240334   6.056   3.477   0.610  0.5093  0.3429  0.6549
 6259TIP3   OH240335   0.035   2.937   0.172  0.1883  0.2285 -0.0496
 6259TIP3    H140336   0.022   2.863   0.113 -0.3441 -1.8675  2.5454
 6259TIP3    H240337   0.130   2.953   0.169  0.2757 -0.3514 -0.8437
 6260TIP3   OH240338   4.490   6.057   1.686  0.4413  0.2725 -0.0620
 6260TIP3    H140339   4.584   6.041   1.698  1.4055  3.0579 -2.7455
 6260TIP3    H240340   4.465   5.999   1.614  0.8463  1.4919 -1.2221
 6261TIP3   OH240341   4.221   0.627   2.663  0.1991 -0.3051  0.2105
 6261TIP3    H140342   4.240   0.653   2.753  1.1097 -1.1192  0.2702
 6261TIP3    H240343   4.307   0.604   2.626  0.1416  1.8474 -1.4856
 6262TIP3   OH240344   6.483   5.476   1.574 -0.5522  0.6558  0.5853
 6262TIP3    H140345   6.555   5.518   1.621  0.4448 -1.4880  1.0816
 6262TIP3    H240346   6.503   5.492   1.481  1.4831 -1.1864  0.6293
 6263TIP3   OH240347   2.787   1.733   8.433 -0.5524  0.0298  0.3587
 6263TIP3    H140348   2.772   1.653   8.382 -0.5447 -0.1442  0.6319
 6263TIP3    H240349   2.858   1.777   8.387 -1.8038  0.8249 -0.9089
 6264TIP3   OH240350   2.229   6.456   2.901 -0.2701 -0.1625  0.2152
 6264TIP3    H140351   2.251   6.424   2.814 -1.8702  0.3948 -0.4224
 6264TIP3    H240352   2.240   6.551   2.895 -0.6700 -0.0934  0.5441
 6265TIP3   OH240353   6.380   0.553   1.472 -0.9389 -0.3357  0.0061
 6265TIP3    H140354   6.396   0.583   1.562 -1.2928  1.9726 -0.6192
 6265TIP3    H240355   6.302   0.498   1.479 -1.2109  0.1466  1.0867
 6266TIP3   OH240356   3.020   0.589   8.531 -1.4111  0.2498 -0.1341
 6266TIP3    H140357   3.052   0.599   8.620 -0.9841  2.0535 -0.4513
 6266TIP3    H240358   3.009   0.494   8.520  0.6047 -0.1884  1.1070
 6267TIP3   OH240359   2.620   0.601   0.021 -0.5466 -0.3762 -0.3187
 6267TIP3    H140360   2.666   0.585   0.104 -1.9265 -1.2458  0.3218
 6267TIP3    H240361   2.689   0.598  -0.045  0.8460  1.9411  0.9068
 6268TIP3   OH240362   4.077   4.066   8.278 -0.1051 -0.3312  0.1849
 6268TIP3    H140363   4.151   4.124   8.292  0.2969 -0.8572  0.2782
 6268TIP3    H240364   4.055   4.034   8.365  1.0432 -1.9596 -0.0739
 6269TIP3   OH240365   4.941   2.008   8.748  0.0322 -0.1909 -0.0226
 6269TIP3    H140366   4.885   1.943   8.704  0.2973  0.9168 -2.1413
 6269TIP3    H240367   4.879   2.070   8.787 -0.2107 -1.2950  1.4287
 6270TIP3   OH240368   6.477   0.526   0.820  0.3433  0.2594 -0.5359
 6270TIP3    H140369   6.525   0.452   0.782 -1.0080 -0.4763 -0.8741
 6270TIP3    H240370   6.389   0.518   0.784 -0.1085  1.4325  0.2592
 6271TIP3   OH240371   3.205   2.923   7.174 -0.3193 -0.5129  0.7555
 6271TIP3    H140372   3.288   2.949   7.134  0.2026  0.4897  2.4031
 6271TIP3    H240373   3.145   2.912   7.100  1.3065 -1.4278 -0.4729
 6272TIP3   OH240374   4.417   2.210   8.745  0.3212  0.3853 -0.2003
 6272TIP3    H140375   4.407   2.283   8.684  0.6031 -0.4587 -1.2698
 6272TIP3    H240376   4.393   2.248   8.830  2.0094  2.1677 -0.4432
 6273TIP3   OH240377   1.409   0.210   7.134  0.0586 -0.0715 -0.5026
 6273TIP3    H140378   1.373   0.122   7.139  1.0795 -0.4533  0.5479
 6273TIP3    H240379   1.349   0.257   7.075 -0.5328 -1.4299 -1.0279
 6274TIP3   OH240380   4.583   0.176   0.141  0.1285  0.3591 -0.2900
 6274TIP3    H140381   4.625   0.128   0.069 -1.1379 -1.3398  0.0330
 6274TIP3    H240382   4.626   0.145   0.220 -1.4550 -1.1647  0.0155
 6275TIP3   OH240383   5.684   6.308   7.312  0.3276 -0.2017 -0.2481
 6275TIP3    H140384   5.768   6.315   7.268  0.8980 -1.1307  0.6401
 6275TIP3    H240385   5.663   6.214   7.308 -0.0441 -0.1691  0.6232
 6276TIP3   OH240386   1.268   6.682   7.155  0.1038 -0.7237  0.2153
 6276TIP3    H140387   1.181   6.720   7.143  0.8287  0.5561 -1.5340
 6276TIP3    H240388   1.261   6.593   7.120  0.0061  0.1612 -2.2584
 6277TIP3   OH240389   1.001   0.968   1.210  0.3432  0.1110  0.1187
 6277TIP3    H140390   1.080   0.914   1.214  0.1657 -0.1493  0.1528
 6277TIP3    H240391   0.929   0.905   1.213  0.1373  0.3296 -0.2314
 6278TIP3   OH240392   1.272   4.710   8.963  0.0256  0.5080  0.1279
 6278TIP3    H140393   1.267   4.759   8.881 -1.3177 -1.1018 -0.8142
 6278TIP3    H240394   1.182   4.682   8.980  0.2571  0.8184  2.2070
 6279TIP3   OH240395   6.505   6.326   3.088 -0.0375 -0.2591  0.2431
 6279TIP3    H140396   6.543   6.239   3.075 -1.3459 -0.9767  1.0061
 6279TIP3    H240397   6.457   6.344   3.008  0.5868 -0.0318 -0.0899
 6280TIP3   OH240398   2.997   6.565   8.342 -0.1894  0.2343 -0.2945
 6280TIP3    H140399   2.955   6.492   8.296  0.1829  0.6643 -1.3475
 6280TIP3    H240400   2.939   6.639   8.327 -0.3364  0.2622  0.3914
 6281TIP3   OH240401   3.319   3.980   8.566  0.1376  0.2128 -0.0612
 6281TIP3    H140402   3.328   3.894   8.608  1.2643  0.1619 -0.3875
 6281TIP3    H240403   3.324   3.962   8.472 -1.2269  0.4621 -0.1993
 6282TIP3   OH240404   0.569   3.947   8.893  0.3263  0.2179  0.1088
 6282TIP3    H140405   0.585   4.041   8.884 -0.3786  0.2725 -0.6929
 6282TIP3    H240406   0.654   3.907   8.875  0.0147  0.5813 -2.5640
 6283TIP3   OH240407   0.284   2.129   1.457 -0.1242 -0.6008 -0.3365
 6283TIP3    H140408   0.332   2.206   1.489  0.8403 -0.9328 -0.9317
 6283TIP3    H240409   0.301   2.128   1.362 -0.3694 -1.3790 -0.3791
 6284TIP3   OH240410   6.214   5.368   1.185 -0.6438  0.0328 -0.2711
 6284TIP3    H140411   6.232   5.453   1.225  0.9625 -0.6516  0.5944
 6284TIP3    H240412   6.134   5.338   1.228 -0.6613  0.6739  0.1583
 6285TIP3   OH240413   2.724   1.337   1.831 -0.0277  0.1901 -0.1262
 6285TIP3    H140414   2.742   1.308   1.921 -0.5481 -0.2413 -0.1598
 6285TIP3    H240415   2.634   1.370   1.834 -0.4509 -0.8594 -0.7344
 6286TIP3   OH240416   0.861   6.658   8.261  0.9431 -0.1591 -0.4018
 6286TIP3    H140417   0.952   6.653   8.292  1.1674 -0.0458 -1.0117
 6286TIP3    H240418   0.808   6.641   8.338  1.4756  0.3324  0.0838
 6287TIP3   OH240419   3.885   4.561   1.987  0.1841 -0.2145 -0.1759
 6287TIP3    H140420   3.897   4.489   2.050 -0.8539 -0.1270  0.1427
 6287TIP3    H240421   3.860   4.517   1.905  0.6909 -0.2795 -0.2973
 6288TIP3   OH240422   1.205   5.945   8.697  0.5238  0.2608  0.3248
 6288TIP3    H140423   1.145   5.900   8.637  0.1256  1.3526 -0.1227
 6288TIP3    H240424   1.275   5.979   8.641 -0.1717  1.8235  0.3402
 6289TIP3   OH240425   5.335   4.275   1.391 -0.7565 -0.2170  0.0679
 6289TIP3    H140426   5.273   4.202   1.385 -1.2029  0.1883 -0.3130
 6289TIP3    H240427   5.419   4.234   1.414 -1.0979 -0.8010  0.2770
 6290TIP3   OH240428   3.389   1.682   0.524 -0.4154  0.1429 -0.4303
 6290TIP3    H140429   3.386   1.626   0.602 -2.9908  0.2783 -0.3490
 6290TIP3    H240430   3.483   1.700   0.511  0.1238 -0.0817  2.4802
 6291TIP3   OH240431   4.525   4.043   7.249  0.3026  0.1071  0.1862
 6291TIP3    H140432   4.511   4.059   7.342 -1.7687 -1.9862  0.3456
 6291TIP3    H240433   4.583   3.966   7.247  2.0525  1.3900 -0.3372
 6292TIP3   OH240434   5.896   6.336   3.007  0.0679  0.0357 -0.2015
 6292TIP3    H140435   5.896   6.250   2.965  1.6497  0.4113 -1.0494
 6292TIP3    H240436   5.821   6.381   2.969 -1.1493 -1.1481  0.7026
 6293TIP3   OH240437   0.135   1.361   0.759  0.0911  0.2891  0.1411
 6293TIP3    H140438   0.190   1.307   0.702 -0.3393  0.3000 -0.2911
 6293TIP3    H240439   0.117   1.306   0.835 -0.1322 -0.0806 -0.1804
 6294TIP3   OH240440   5.879   4.465   7.052 -0.1019 -0.3245  0.3676
 6294TIP3    H140441   5.885   4.407   7.128  0.9548  0.0894  0.6178
 6294TIP3    H240442   5.940   4.427   6.988  0.4520  0.3830  0.4610
 6295TIP3   OH240443   1.632   0.866   3.044 -0.6522 -0.3428 -0.0584
 6295TIP3    H140444   1.568   0.938   3.042  0.1039  0.3266 -1.6123
 6295TIP3    H240445   1.624   0.824   2.958  0.6138 -0.5966 -0.0693
 6296TIP3   OH240446   3.244   2.095   8.405  0.0135  0.1458  0.0826
 6296TIP3    H140447   3.309   2.093   8.335 -0.1737  3.4908 -0.3374
 6296TIP3    H240448   3.159   2.092   8.360 -0.0997  1.3408  0.1762
 6297TIP3   OH240449   1.021   1.870   8.455  0.1107  0.0986  0.3658
 6297TIP3    H140450   0.938   1.903   8.422  0.1898  0.3698  0.4384
 6297TIP3    H240451   1.055   1.939   8.511  1.5479  1.0675 -1.5614
 6298TIP3   OH240452   5.922   3.522   7.526  0.1000  0.0906 -0.3452
 6298TIP3    H140453   5.869   3.473   7.588 -0.8454  0.2411 -1.0086
 6298TIP3    H240454   5.970   3.455   7.477 -0.6182 -0.1347 -0.7436
 6299TIP3   OH240455   0.320   0.114   2.713 -0.1675 -0.5383  0.3857
 6299TIP3    H140456   0.247   0.122   2.651  1.9311 -0.3142 -2.2278
 6299TIP3    H240457   0.351   0.024   2.703  3.0078  0.6685 -2.4921
 6300TIP3   OH240458   5.750   4.374   1.454 -0.2740  0.2591  0.2554
 6300TIP3    H140459   5.667   4.419   1.469 -0.6946  0.0131 -1.1936
 6300TIP3    H240460   5.814   4.444   1.444 -0.9697  0.6382 -2.2583
 6301TIP3   OH240461   0.017   4.973   8.944 -0.3408 -0.0758  0.1646
 6301TIP3    H140462  -0.040   5.031   8.894 -1.2534 -0.1784  1.0508
 6301TIP3    H240463  -0.043   4.912   8.987  0.6005 -1.9022 -0.9888
 6302TIP3   OH240464   0.453   4.370   7.248 -0.4991  0.1695 -0.2226
 6302TIP3    H140465   0.372   4.335   7.284 -0.4557 -1.6043 -1.7223
 6302TIP3    H240466   0.521   4.310   7.277  0.4367  1.8896  1.4080
 6303TIP3   OH240467   1.754   5.443   8.666 -0.0778 -0.0261  0.0197
 6303TIP3    H140468   1.675   5.477   8.708 -0.3731  1.7874 -1.7978
 6303TIP3    H240469   1.818   5.514   8.675  2.0027 -2.0568  2.8541
 6304TIP3   OH240470   4.543   2.161   8.396  0.6317  0.0972  0.1369
 6304TIP3    H140471   4.563   2.082   8.347  2.2024  0.7306 -0.3389
 6304TIP3    H240472   4.581   2.146   8.483 -0.6149 -0.3460  0.6134
 6305TIP3   OH240473   2.804   4.384   2.275  0.3859 -0.1151  0.2462
 6305TIP3    H140474   2.840   4.471   2.294  1.3597 -0.6122  0.7737
 6305TIP3    H240475   2.776   4.351   2.360 -0.3898 -0.1541 -0.0160
 6306TIP3   OH240476   0.720   1.956   1.739  1.1066  1.2156  0.4163
 6306TIP3    H140477   0.628   1.928   1.736  0.3063  3.5077  1.4494
 6306TIP3    H240478   0.761   1.895   1.800 -0.1028  1.0642  1.1151
 6307TIP3   OH240479   6.200   5.186   0.769 -0.2532  0.1008 -0.2847
 6307TIP3    H140480   6.131   5.196   0.703 -1.8240  0.0408  1.2702
 6307TIP3    H240481   6.173   5.109   0.819  1.0987 -0.0662  0.2184
 6308TIP3   OH240482   6.187   2.207   7.762  0.4288  0.0606  0.0375
 6308TIP3    H140483   6.124   2.261   7.713  0.2900  1.2803  1.4989
 6308TIP3    H240484   6.132   2.154   7.820  0.7008  0.2702  0.4832
 6309TIP3   OH240485   0.554   5.178   2.939 -0.1827  0.6593  0.1225
 6309TIP3    H140486   0.633   5.232   2.948 -0.8333  1.5486  0.6341
 6309TIP3    H240487   0.486   5.227   2.985 -1.6987  1.2735 -2.5441
 6310TIP3   OH240488   1.784   6.665   8.711 -0.3043 -0.2014 -0.3788
 6310TIP3    H140489   1.709   6.703   8.665 -0.0689  2.2746  1.1424
 6310TIP3    H240490   1.784   6.708   8.796  1.1930 -2.2649  0.7459
 6311TIP3   OH240491   1.496   2.073   7.138  0.8018  0.1754 -0.6380
 6311TIP3    H140492   1.405   2.097   7.158  0.4957 -1.3210 -0.1345
 6311TIP3    H240493   1.548   2.124   7.199  0.0558 -1.8928  1.9165
 6312TIP3   OH240494   3.026   2.739   8.854  0.1891  0.3003 -0.0222
 6312TIP3    H140495   3.090   2.668   8.868 -1.8162 -1.2851  1.8864
 6312TIP3    H240496   3.062   2.813   8.902  0.8840 -0.3748  0.5339
 6313TIP3   OH240497   3.738   3.428   1.494  0.2206 -0.4516 -0.5047
 6313TIP3    H140498   3.806   3.456   1.556 -0.0585 -1.7815  0.4490
 6313TIP3    H240499   3.657   3.460   1.533 -0.0667 -2.2004  0.4263
 6314TIP3   OH240500   1.204   1.224   7.190 -0.1717  0.3580 -0.8866
 6314TIP3    H140501   1.223   1.312   7.220 -0.2353  0.3870 -0.9285
 6314TIP3    H240502   1.113   1.208   7.217  0.5026 -0.5122  1.0363
 6315TIP3   OH240503   0.999   2.079   1.718  0.0274 -0.1769  0.1718
 6315TIP3    H140504   0.917   2.082   1.670  0.4749 -0.8041 -0.6585
 6315TIP3    H240505   1.021   1.986   1.725 -0.6786 -0.2303  2.7904
 6316TIP3   OH240506   6.669   6.645   7.681  0.0063 -0.1495  0.3972
 6316TIP3    H140507   6.636   6.665   7.593 -1.4711 -1.5723  0.5726
 6316TIP3    H240508   6.690   6.552   7.679  0.7184 -0.0284  1.3330
 6317TIP3   OH240509   0.426   5.988   8.530  0.2326  0.6216 -0.7611
 6317TIP3    H140510   0.495   5.956   8.588 -0.2993  0.5132 -0.1768
 6317TIP3    H240511   0.442   5.944   8.447 -0.1953 -0.7931 -0.1164
 6318TIP3   OH240512   1.749   1.418   2.089  0.6852  0.3560 -0.3085
 6318TIP3    H140513   1.817   1.462   2.038 -1.0595  1.2632 -1.9490
 6318TIP3    H240514   1.731   1.478   2.162  1.6351  0.0932  0.1560
 6319TIP3   OH240515   3.348   1.696   1.629 -0.2867  0.1043  0.1676
 6319TIP3    H140516   3.430   1.680   1.582 -1.1852 -3.0457 -0.5603
 6319TIP3    H240517   3.371   1.685   1.722  0.2309 -0.2872  0.0008
 6320TIP3   OH240518   2.251   4.898   0.956  0.0621 -0.6909 -0.1009
 6320TIP3    H140519   2.279   4.816   0.914  0.4126 -0.6363  0.0185
 6320TIP3    H240520   2.165   4.916   0.918  0.5678 -0.3956 -1.1586
 6321TIP3   OH240521   1.063   2.394   8.012  0.2981  0.4110  0.3473
 6321TIP3    H140522   1.128   2.456   7.981 -0.5375  1.2285  0.2113
 6321TIP3    H240523   0.994   2.396   7.947  0.5190 -1.1397  0.0056
 6322TIP3   OH240524   1.264   3.552   8.419  0.0046 -0.5361 -0.0107
 6322TIP3    H140525   1.263   3.456   8.419 -2.2016 -0.6397  2.6849
 6322TIP3    H240526   1.241   3.576   8.509  1.0210  2.5554 -0.4622
 6323TIP3   OH240527   6.520   4.586   0.203  0.8371 -0.2990 -0.4186
 6323TIP3    H140528   6.595   4.621   0.251  0.6074 -0.2473 -0.0914
 6323TIP3    H240529   6.503   4.501   0.244  0.9226 -0.4587 -0.7128
 6324TIP3   OH240530   5.733   3.279   8.486  0.0957 -0.0008  0.7611
 6324TIP3    H140531   5.699   3.189   8.494 -0.4886 -0.0474 -1.4772
 6324TIP3    H240532   5.657   3.334   8.504  0.3367  0.0632  1.6441
 6325TIP3   OH240533   0.101   3.473   8.715 -0.6194  0.2924  0.8414
 6325TIP3    H140534   0.008   3.451   8.709 -0.2854 -1.0088  0.1599
 6325TIP3    H240535   0.141   3.432   8.638  0.7253 -0.2934  1.8137
 6326TIP3   OH240536   6.432   6.010   1.089  0.0962  0.6671  0.0278
 6326TIP3    H140537   6.426   6.096   1.130  0.1715  0.1762  1.0861
 6326TIP3    H240538   6.447   6.029   0.996  2.1321  1.8073  0.5209
 6327TIP3   OH240539   5.155   4.078   3.283 -0.2288 -0.0639  0.1239
 6327TIP3    H140540   5.226   4.087   3.219  0.9873 -1.9935  1.1010
 6327TIP3    H240541   5.189   4.120   3.362 -0.2712 -0.7567  0.5176
 6328TIP3   OH240542   5.638   2.940   8.669 -0.4398 -0.3709 -0.1307
 6328TIP3    H140543   5.559   2.983   8.702 -0.2579  1.1092 -1.5111
 6328TIP3    H240544   5.643   2.859   8.719 -0.4159  1.4794  3.1498
 6329TIP3   OH240545   3.757   6.644   1.895  0.6774 -0.7818 -0.1916
 6329TIP3    H140546   3.771   6.570   1.954  0.7264 -0.1867  0.5677
 6329TIP3    H240547   3.680   6.689   1.930  1.2559  0.1120  0.0015
 6330TIP3   OH240548   2.856   4.481   8.483  0.0594 -0.3331  0.6415
 6330TIP3    H140549   2.852   4.540   8.407  0.4231  1.1833  1.7629
 6330TIP3    H240550   2.765   4.474   8.512 -0.0792 -0.9021  0.1158
 6331TIP3   OH240551   2.544   3.894   7.934  0.4603 -0.5277  0.6397
 6331TIP3    H140552   2.559   3.972   7.988  1.0360 -0.2061  0.0363
 6331TIP3    H240553   2.508   3.830   7.995  0.8160 -0.0819  1.3471
 6332TIP3   OH240554   5.925   0.300   6.949  0.5220 -0.0321  0.0860
 6332TIP3    H140555   5.919   0.388   6.914 -0.9440 -0.3737 -0.6139
 6332TIP3    H240556   5.835   0.278   6.973  0.5946 -1.8391 -1.0744
 6333TIP3   OH240557   4.645   5.325   1.678 -0.0271 -0.1835  0.2162
 6333TIP3    H140558   4.630   5.241   1.721  0.2214  0.0276  0.7234
 6333TIP3    H240559   4.595   5.320   1.597 -1.1828 -0.2649  0.9183
 6334TIP3   OH240560   5.984   5.582   9.062 -0.1980  0.8519 -0.0861
 6334TIP3    H140561   6.074   5.609   9.042  0.4715 -0.4125  1.0369
 6334TIP3    H240562   5.965   5.512   8.999  0.6163 -0.6936  1.3007
 6335TIP3   OH240563   1.423   5.685   8.522 -0.1764  0.5687 -0.1626
 6335TIP3    H140564   1.346   5.741   8.529 -0.4918 -0.0446  1.6394
 6335TIP3    H240565   1.405   5.612   8.580  1.9822  0.6870  0.7386
 6336TIP3   OH240566   2.292   2.922   8.951 -0.0562 -0.0436 -0.2989
 6336TIP3    H140567   2.281   2.985   8.879 -0.1971 -0.7543 -0.9034
 6336TIP3    H240568   2.215   2.937   9.007  0.1186  0.5964 -0.2187
 6337TIP3   OH240569   2.762   4.295   0.949  0.4380 -0.2237 -0.5570
 6337TIP3    H140570   2.850   4.332   0.939  0.5002  0.2810  1.5065
 6337TIP3    H240571   2.725   4.298   0.861  1.9873  0.8295 -1.2178
 6338TIP3   OH240572   1.283   3.343   8.087  0.4993 -0.1534 -0.0400
 6338TIP3    H140573   1.223   3.413   8.061 -0.0623  0.8308  3.4293
 6338TIP3    H240574   1.367   3.367   8.048 -0.1581  1.3427 -0.5868
 6339TIP3   OH240575   1.535   2.270   2.119  0.0342 -0.2267  0.6737
 6339TIP3    H140576   1.626   2.256   2.148 -0.1936 -0.6270  1.2181
 6339TIP3    H240577   1.520   2.364   2.133  0.0644 -0.3335  1.4957
 6340TIP3   OH240578   2.341   2.090   0.225  0.2219 -0.1592 -0.4309
 6340TIP3    H140579   2.371   2.163   0.170 -2.2030  0.0787 -1.5617
 6340TIP3    H240580   2.399   2.017   0.202  0.9102  0.6467 -1.3445
 6341TIP3   OH240581   3.460   6.600   2.126 -0.0850  0.1200  0.1891
 6341TIP3    H140582   3.449   6.600   2.221  1.6344 -1.8964  0.4801
 6341TIP3    H240583   3.514   6.522   2.108 -1.3862 -0.2932 -2.5768
 6342TIP3   OH240584   2.086   3.803   8.572  0.3267 -0.3100 -0.7045
 6342TIP3    H140585   2.123   3.884   8.538  0.6194 -0.1311  0.0216
 6342TIP3    H240586   2.066   3.751   8.494  3.0407 -0.8536 -1.1381
 6343TIP3   OH240587   4.065   4.500   8.298  0.9467 -0.4069  0.4905
 6343TIP3    H140588   3.988   4.532   8.251  1.2586  0.0742  0.3001
 6343TIP3    H240589   4.059   4.404   8.291  0.3468 -0.3728  0.5141
 6344TIP3   OH240590   1.888   2.477   0.580  0.0517 -0.4132  0.1087
 6344TIP3    H140591   1.973   2.435   0.595  0.5388 -0.4711 -2.3964
 6344TIP3    H240592   1.887   2.551   0.641  3.0868  1.1570 -1.4999
 6345TIP3   OH240593   3.106   6.333   0.363 -0.0578 -0.0869  0.0727
 6345TIP3    H140594   3.166   6.407   0.367  1.1302 -1.0494  0.3908
 6345TIP3    H240595   3.048   6.353   0.289  0.9964  0.6017 -0.5917
 6346TIP3   OH240596   2.575   6.450   7.712 -0.0333 -0.4733  0.1207
 6346TIP3    H140597   2.648   6.417   7.660  0.4954  1.3501 -0.3678
 6346TIP3    H240598   2.613   6.517   7.769 -1.0575 -0.6048  1.0005
 6347TIP3   OH240599   6.537   3.803   8.632  0.2537  0.2264 -0.0588
 6347TIP3    H140600   6.613   3.852   8.662  0.8461  0.5024 -1.8789
 6347TIP3    H240601   6.487   3.865   8.578 -1.1037 -0.0453  0.8339
 6348TIP3   OH240602   1.655   3.127   0.734  0.1611  0.5466  0.1036
 6348TIP3    H140603   1.689   3.175   0.659  1.5488  0.2516  0.5143
 6348TIP3    H240604   1.586   3.071   0.698  1.5243 -0.3937 -1.1784
 6349TIP3   OH240605   1.051   5.685   8.611  0.0778 -0.7356  0.5630
 6349TIP3    H140606   0.989   5.613   8.619  0.6454 -1.1155  1.7704
 6349TIP3    H240607   1.099   5.667   8.530 -1.8321 -0.0384 -0.8000
 6350TIP3   OH240608   4.157   2.510   7.437 -0.5646 -0.4789 -0.3275
 6350TIP3    H140609   4.200   2.463   7.509 -2.9378 -0.7645  1.0077
 6350TIP3    H240610   4.067   2.519   7.466 -0.6431  3.4304 -1.3013
 6351TIP3   OH240611   4.563   6.232   8.556 -0.3363 -0.2174  0.1793
 6351TIP3    H140612   4.546   6.178   8.479 -0.0193 -1.1644  0.7606
 6351TIP3    H240613   4.476   6.262   8.584 -0.7749 -2.1137  1.0322
 6352TIP3   OH240614   4.505   0.331   2.491 -0.2459  0.4993  0.0111
 6352TIP3    H140615   4.485   0.388   2.566  1.9062  0.7051  0.4858
 6352TIP3    H240616   4.497   0.389   2.415 -2.2624  0.3349  0.0226
 6353TIP3   OH240617   5.953   4.831   0.788  0.4049 -0.1984 -0.3017
 6353TIP3    H140618   5.875   4.778   0.773  0.2513 -0.2167  0.5126
 6353TIP3    H240619   6.009   4.813   0.713 -0.0154 -0.8421 -0.4664
 6354TIP3   OH240620   2.559   6.301   1.362  0.5906 -0.2242  0.2359
 6354TIP3    H140621   2.612   6.235   1.317 -1.1778 -1.4190 -0.2173
 6354TIP3    H240622   2.468   6.277   1.341 -0.1608  1.4642  1.3307
 6355TIP3   OH240623   2.052   0.917   1.131 -0.0339 -0.2171  0.3676
 6355TIP3    H140624   2.109   0.857   1.083 -1.3100 -1.1302 -0.0532
 6355TIP3    H240625   1.967   0.909   1.089 -0.7093  0.4412  1.5385
 6356TIP3   OH240626   6.082   2.634   7.732  0.0614 -0.4222 -0.4415
 6356TIP3    H140627   6.127   2.590   7.660 -0.0390 -1.0290 -0.1355
 6356TIP3    H240628   6.030   2.566   7.774  1.9025 -0.6532  1.6781
 6357TIP3   OH240629   4.293   1.146   6.863 -0.4287  0.1467  0.2971
 6357TIP3    H140630   4.213   1.184   6.900 -1.0780 -1.9117  1.1416
 6357TIP3    H240631   4.278   1.145   6.769 -0.0596  2.6073  0.1564
 6358TIP3   OH240632   6.181   6.321   3.221 -0.3359  0.5782  0.1332
 6358TIP3    H140633   6.106   6.357   3.270 -0.4430  2.7085 -1.4445
 6358TIP3    H240634   6.249   6.388   3.231 -0.1731  0.8036 -2.0860
 6359TIP3   OH240635   3.229   5.162   8.139  0.4931  0.3058 -0.0999
 6359TIP3    H140636   3.164   5.189   8.074 -0.3417  2.4392  1.4938
 6359TIP3    H240637   3.294   5.232   8.138  0.1788  0.6838  1.6884
 6360TIP3   OH240638   0.789   0.588   7.671  0.2402 -0.4500 -0.0857
 6360TIP3    H140639   0.712   0.575   7.726  2.0595 -1.4639  2.4513
 6360TIP3    H240640   0.808   0.501   7.636  1.4064 -0.7245  1.1206
 6361TIP3   OH240641   0.245   3.380   0.966  0.3746 -0.0285  0.6056
 6361TIP3    H140642   0.205   3.455   1.008  1.5304  0.6785  0.5091
 6361TIP3    H240643   0.305   3.344   1.031  2.4221  1.2713 -0.4338
 6362TIP3   OH240644   5.300   6.181   0.503  0.7858 -0.3423  0.0481
 6362TIP3    H140645   5.251   6.256   0.469  1.5851 -0.6283 -1.8430
 6362TIP3    H240646   5.367   6.221   0.560  1.4497  0.4412 -1.2344
 6363TIP3   OH240647   1.134   2.358   8.537  0.0364 -0.0142  0.5923
 6363TIP3    H140648   1.146   2.372   8.443 -2.7101  1.7105  0.3952
 6363TIP3    H240649   1.221   2.333   8.569  1.2771  0.3501 -2.2172
 6364TIP3   OH240650   1.340   3.097   0.791 -0.1249 -0.4155 -0.1753
 6364TIP3    H140651   1.394   3.031   0.747  0.4371 -1.1980  1.5846
 6364TIP3    H240652   1.302   3.051   0.865  0.2513  1.2180  1.0935
 6365TIP3   OH240653   6.462   1.917   1.341  0.5768 -0.1191 -0.4617
 6365TIP3    H140654   6.410   1.907   1.262  1.1965  0.9155 -1.0125
 6365TIP3    H240655   6.466   1.828   1.378 -0.2699 -0.4880 -1.2187
 6366TIP3   OH240656   2.715   4.189   8.311  0.1390 -0.4353  0.0856
 6366TIP3    H140657   2.692   4.271   8.355  2.8511 -0.0530  0.9648
 6366TIP3    H240658   2.704   4.208   8.218  0.1021  0.7305  0.3121
 6367TIP3   OH240659   5.822   5.438   8.561 -0.0735  0.5531  0.1020
 6367TIP3    H140660   5.829   5.349   8.527  3.1376 -0.2470  2.3328
 6367TIP3    H240661   5.850   5.494   8.489  1.2113 -0.5685 -0.3016
 6368TIP3   OH240662   4.987   6.165   8.702  0.8955  0.1581 -0.1432
 6368TIP3    H140663   4.897   6.138   8.720  0.8138  0.5679  0.0723
 6368TIP3    H240664   4.984   6.261   8.704  1.3907  0.1703  0.1611
 6369TIP3   OH240665   5.261   4.900   0.775  0.3361 -0.1451 -0.0392
 6369TIP3    H140666   5.339   4.879   0.827 -0.9415 -1.2218  1.5263
 6369TIP3    H240667   5.251   4.995   0.783  0.0770 -0.3076  1.8641
 6370TIP3   OH240668   1.138   3.489   2.079  0.4429  0.1421 -0.3114
 6370TIP3    H140669   1.070   3.485   2.146 -0.3119  0.9170 -1.0118
 6370TIP3    H240670   1.116   3.420   2.017  0.4351  0.2319 -0.4097
 6371TIP3   OH240671   0.270   5.173   1.241 -0.0423 -0.1757  0.4469
 6371TIP3    H140672   0.195   5.131   1.284 -0.6180 -1.2844 -1.4823
 6371TIP3    H240673   0.303   5.235   1.305 -0.4410 -2.1318  2.6926
 6372TIP3   OH240674   2.276   1.230   0.538 -0.2640 -0.5594  0.3246
 6372TIP3    H140675   2.208   1.265   0.480  1.1002 -0.4635 -1.3093
 6372TIP3    H240676   2.327   1.307   0.565 -0.0276 -0.7610  0.4631
 6373TIP3   OH240677   4.557   2.758   2.571  0.4993  0.3718  0.4882
 6373TIP3    H140678   4.634   2.706   2.595  0.0992  0.1057  1.2556
 6373TIP3    H240679   4.590   2.826   2.513  1.3965  0.5604  1.2009
 6374TIP3   OH240680   0.979   4.266   0.934 -0.1800  0.1327  0.3466
 6374TIP3    H140681   1.044   4.285   0.867 -1.6877 -2.3426 -2.0180
 6374TIP3    H240682   0.899   4.309   0.904 -0.5053  0.2989  1.4079
 6375TIP3   OH240683   1.937   5.309   1.882  0.2157 -0.1934 -0.2037
 6375TIP3    H140684   2.019   5.355   1.859  0.0349  1.0129  1.3901
 6375TIP3    H240685   1.868   5.366   1.848  0.0096  0.1910  0.8196
 6376TIP3   OH240686   2.436   4.874   8.977 -0.3252  0.0453  0.0886
 6376TIP3    H140687   2.531   4.885   8.978 -0.4265  0.9534  0.0804
 6376TIP3    H240688   2.420   4.808   8.910  0.2408  0.5095 -0.5100
 6377TIP3   OH240689   3.632   4.907   1.143 -0.4670 -0.2394  0.0807
 6377TIP3    H140690   3.726   4.926   1.153 -0.5617  0.1500  0.2339
 6377TIP3    H240691   3.592   4.992   1.125 -0.7140 -0.4857 -0.5818
 6378TIP3   OH240692   4.969   2.736   1.693 -0.0123 -0.2311 -0.0684
 6378TIP3    H140693   4.952   2.812   1.747  2.2238 -1.1225  2.0790
 6378TIP3    H240694   4.924   2.664   1.738  2.1718 -1.0478  0.9189
 6379TIP3   OH240695   6.350   2.173   0.171 -0.3008  0.6192  0.1500
 6379TIP3    H140696   6.305   2.094   0.201 -0.7231  0.8514  0.1362
 6379TIP3    H240697   6.371   2.220   0.252  0.7915  0.0476  0.2149
 6380TIP3   OH240698   3.390   6.209   2.952  0.0247  0.0897 -0.3275
 6380TIP3    H140699   3.466   6.256   2.918  0.5610 -0.4612  0.0725
 6380TIP3    H240700   3.375   6.139   2.888 -0.6151  0.6420 -0.7914
 6381TIP3   OH240701   6.507   5.265   0.193 -0.3558  0.4760 -0.0266
 6381TIP3    H140702   6.415   5.292   0.198 -0.6073 -0.3176 -0.2020
 6381TIP3    H240703   6.540   5.306   0.114 -0.7380  0.2485 -0.3059
 6382TIP3   OH240704   3.670   4.188   8.794 -0.4389  0.0965  0.4976
 6382TIP3    H140705   3.633   4.118   8.848  2.3699 -2.9313 -1.1791
 6382TIP3    H240706   3.762   4.191   8.817 -0.1880  2.3280 -0.5222
 6383TIP3   OH240707   0.448   6.336   8.427  0.8778  0.0432 -0.2878
 6383TIP3    H140708   0.383   6.299   8.487  0.2408  0.1201 -0.9170
 6383TIP3    H240709   0.438   6.431   8.438  0.6508  0.0599 -0.6241
 6384TIP3   OH240710   2.419   2.526   0.372  0.1751 -0.0533  0.4164
 6384TIP3    H140711   2.337   2.548   0.417  0.4775  0.6585  0.6404
 6384TIP3    H240712   2.392   2.473   0.297 -0.5459  0.6903  0.1394
 6385TIP3   OH240713   1.713   3.767   0.722 -0.3713 -1.2729  0.4491
 6385TIP3    H140714   1.782   3.732   0.666  0.0652 -1.5055  1.1236
 6385TIP3    H240715   1.689   3.695   0.779 -0.4659 -0.8929  0.8924
 6386TIP3   OH240716   2.297   2.422   2.914 -0.7216  0.0436 -0.2268
 6386TIP3    H140717   2.301   2.350   2.851  3.6109  0.4285 -0.7127
 6386TIP3    H240718   2.310   2.501   2.862  2.9556  0.3799  0.8564
 6387TIP3   OH240719   5.009   3.124   2.501 -0.0889 -0.1954 -0.3991
 6387TIP3    H140720   4.930   3.113   2.449  0.0478 -2.1055 -0.2943
 6387TIP3    H240721   5.010   3.047   2.558  0.9699  0.6660  0.7838
 6388TIP3   OH240722   3.814   0.558   0.069 -0.4989  0.1300  0.2575
 6388TIP3    H140723   3.745   0.569   0.134  1.3979 -0.7392  2.5693
 6388TIP3    H240724   3.859   0.642   0.068 -1.3804  0.6108 -1.0528
 6389TIP3   OH240725   2.001   0.149   1.205  0.7134  0.3661  0.3422
 6389TIP3    H140726   2.032   0.162   1.115 -0.9022  0.6429 -0.1975
 6389TIP3    H240727   1.932   0.084   1.198  1.2210 -0.3418  1.5399
 6390TIP3   OH240728   4.249   0.923   1.265  0.4787 -0.7774 -0.3522
 6390TIP3    H140729   4.287   0.895   1.182  1.6821 -0.6589  0.1398
 6390TIP3    H240730   4.314   0.899   1.330 -0.2861 -0.5272  0.5283
 6391TIP3   OH240731   3.258   3.475   1.283 -0.1513  0.4804  0.2215
 6391TIP3    H140732   3.171   3.443   1.258 -0.4700  1.5705 -0.1310
 6391TIP3    H240733   3.292   3.408   1.342  0.1822 -1.6968 -2.2698
 6392TIP3   OH240734   3.676   5.835   8.879  0.8854 -0.0204  0.1746
 6392TIP3    H140735   3.601   5.822   8.820  2.3033 -0.9046 -1.5490
 6392TIP3    H240736   3.698   5.928   8.870 -0.7717  0.5608  1.7227
 6393TIP3   OH240737   2.659   2.478   0.513  0.7383  0.3022 -0.3541
 6393TIP3    H140738   2.741   2.451   0.472 -0.4790  0.9052 -3.4921
 6393TIP3    H240739   2.605   2.508   0.440 -2.9788 -1.7487  1.2811
 6394TIP3   OH240740   0.135   2.552   0.854 -0.4317 -0.1004 -0.4367
 6394TIP3    H140741   0.201   2.516   0.795  0.1358  1.1781 -0.6208
 6394TIP3    H240742   0.051   2.538   0.809 -0.0907  0.0487 -1.1144
 6395TIP3   OH240743   6.522   2.504   8.451  0.8768 -0.0893 -0.5594
 6395TIP3    H140744   6.590   2.560   8.489 -0.4531  1.5254 -0.4151
 6395TIP3    H240745   6.482   2.461   8.526  0.3910  0.5851 -0.4186
 6396TIP3   OH240746   4.260   1.389   0.008 -0.3386  0.0910 -0.6274
 6396TIP3    H140747   4.337   1.375  -0.047 -0.4705  0.6067 -0.9482
 6396TIP3    H240748   4.186   1.378  -0.051 -0.4739  0.9732 -0.6295
 6397TIP3   OH240749   0.757   3.731   0.077 -0.3475  0.1021 -0.1670
 6397TIP3    H140750   0.671   3.773   0.069  0.3103  1.7059  0.7926
 6397TIP3    H240751   0.813   3.797   0.116  1.1826 -1.1456 -0.1357
 6398TIP3   OH240752   2.460   4.443   0.505  0.3952 -0.0017 -0.2438
 6398TIP3    H140753   2.439   4.378   0.439 -3.1586 -0.6280  1.2739
 6398TIP3    H240754   2.506   4.395   0.573 -2.1550 -1.0747  0.8393
 6399TIP3   OH240755   0.973   3.539   1.583  1.0579 -0.5090 -0.5848
 6399TIP3    H140756   1.009   3.611   1.531  1.8316 -0.6028 -0.2004
 6399TIP3    H240757   0.878   3.550   1.578  1.1543  0.1123 -1.1224
 6400TIP3   OH240758   4.887   1.780   8.302  0.3112 -0.0320  0.2612
 6400TIP3    H140759   4.972   1.817   8.277 -0.0908  0.3275 -0.6029
 6400TIP3    H240760   4.898   1.685   8.290  0.0241  0.1384 -1.7267
 6401TIP3   OH240761   2.265   2.910   8.153 -0.2471  0.1587 -0.3074
 6401TIP3    H140762   2.234   2.983   8.206  2.0675 -0.2283  1.7187
 6401TIP3    H240763   2.235   2.832   8.199 -0.1427 -0.1928 -0.8252
 6402TIP3   OH240764   2.172   6.556   2.284  0.0501  0.7125  0.1967
 6402TIP3    H140765   2.212   6.590   2.204 -0.4827 -1.2518 -0.9941
 6402TIP3    H240766   2.175   6.629   2.346  0.7426  2.2192 -1.5138
 6403TIP3   OH240767   2.796   3.236   0.104  0.9326 -0.7908 -0.5857
 6403TIP3    H140768   2.876   3.243   0.052  0.1024 -0.4232 -1.8430
 6403TIP3    H240769   2.768   3.145   0.093  1.3330 -1.0123  0.1255
 6404TIP3   OH240770   5.229   4.504   0.599  0.6441 -0.1547  0.4469
 6404TIP3    H140771   5.172   4.468   0.530  1.6438  1.4143 -1.2905
 6404TIP3    H240772   5.279   4.572   0.555  1.2277  1.0410  2.8130
 6405TIP3   OH240773   5.659   0.482   8.904  0.4935 -0.4030  0.3306
 6405TIP3    H140774   5.635   0.572   8.925 -0.9967 -0.5273 -0.7370
 6405TIP3    H240775   5.597   0.429   8.953  0.5920 -0.8204  0.0063
 6406TIP3   OH240776   5.375   0.409   8.359  0.0589 -0.1277  0.2627
 6406TIP3    H140777   5.333   0.467   8.422  0.3621 -0.6755  0.9893
 6406TIP3    H240778   5.322   0.330   8.360 -0.5071  0.2203 -0.9215
 6407TIP3   OH240779   6.500   2.720   8.807 -0.1886  0.7069 -0.3448
 6407TIP3    H140780   6.461   2.790   8.755  1.0929  1.0769 -0.8460
 6407TIP3    H240781   6.545   2.665   8.743 -1.8623 -1.0671 -0.0520
 6408TIP3   OH240782   4.778   0.581   8.111 -0.1403  0.2112 -0.2912
 6408TIP3    H140783   4.709   0.552   8.050 -1.2981 -0.4237  1.2576
 6408TIP3    H240784   4.746   0.555   8.197  2.0223 -0.0185  0.4977
 6409TIP3   OH240785   1.719   4.537   7.148  0.2925 -0.6733 -0.2709
 6409TIP3    H140786   1.728   4.452   7.191 -1.6727 -0.7350  0.1239
 6409TIP3    H240787   1.629   4.564   7.167  0.9333  1.6159 -0.1709
 6410TIP3   OH240788   0.643   1.895   1.012  0.4713  0.1406  0.2923
 6410TIP3    H140789   0.576   1.938   0.958  0.1493 -0.4327  0.2338
 6410TIP3    H240790   0.610   1.806   1.025  1.1559 -0.1040  0.3846
 6411TIP3   OH240791   5.729   5.801   8.594  0.6100  0.8415 -0.2428
 6411TIP3    H140792   5.655   5.764   8.546  0.9338  1.6915 -1.4547
 6411TIP3    H240793   5.713   5.778   8.686 -0.0967 -0.7185 -0.7296
 6412TIP3   OH240794   5.050   0.936   8.931 -0.1804  0.2246 -0.2154
 6412TIP3    H140795   5.097   1.014   8.901 -1.5071  1.8596  1.7387
 6412TIP3    H240796   5.047   0.879   8.854  0.6504  2.1637 -1.7624
 6413TIP3   OH240797   3.922   3.362   7.274  0.1727  0.1520 -0.3186
 6413TIP3    H140798   3.978   3.437   7.293  0.5173 -0.1158 -0.2659
 6413TIP3    H240799   3.957   3.327   7.192  1.8693 -1.6796  1.1048
 6414TIP3   OH240800   3.876   6.607   8.552  0.3323  0.0180 -0.5147
 6414TIP3    H140801   3.781   6.618   8.540  0.0479 -1.4172  0.2165
 6414TIP3    H240802   3.901   6.546   8.482  0.5461 -0.3170 -0.1454
 6415TIP3   OH240803   6.201   3.967   3.116 -0.7096 -0.0572  0.2623
 6415TIP3    H140804   6.177   4.053   3.150  0.0036  0.7213 -1.1336
 6415TIP3    H240805   6.130   3.945   3.055 -0.5054 -0.1027  0.0390
 6416TIP3   OH240806   1.285   6.534   8.516  0.0353  0.1239 -0.0659
 6416TIP3    H140807   1.344   6.528   8.441 -0.4108 -0.1616 -0.3932
 6416TIP3    H240808   1.227   6.458   8.508  0.1899 -0.0921  0.7444
 6417TIP3   OH240809   5.065   6.541   7.675  0.4873  0.3151 -0.4396
 6417TIP3    H140810   5.152   6.529   7.638  0.5997  1.2120 -0.4841
 6417TIP3    H240811   5.008   6.485   7.621  1.2295 -1.5003  0.5421
 6418TIP3   OH240812   6.481   1.919   0.535 -0.6675 -0.0718  0.3321
 6418TIP3    H140813   6.413   1.877   0.482 -0.3461 -1.7191  1.1821
 6418TIP3    H240814   6.545   1.851   0.551 -0.3729  0.5811  2.1907
 6419TIP3   OH240815   0.404   2.318   0.851 -0.3387  0.0868  0.0172
 6419TIP3    H140816   0.369   2.300   0.764  0.7244  0.5431 -0.5205
 6419TIP3    H240817   0.333   2.296   0.911 -1.8771  1.8438 -1.0690
 6420TIP3   OH240818   2.615   6.270   7.941  0.0478  0.4406 -0.5011
 6420TIP3    H140819   2.580   6.197   7.993 -1.4510  0.9466 -0.7610
 6420TIP3    H240820   2.598   6.348   7.994  0.7819  0.7099 -0.6489
 6421TIP3   OH240821   2.150   3.292   8.094 -0.2671  0.1015  0.6802
 6421TIP3    H140822   2.139   3.249   8.179 -1.6229 -1.0173 -0.0240
 6421TIP3    H240823   2.063   3.289   8.054  0.5080 -0.0740 -1.0674
 6422TIP3   OH240824   1.295   6.138   2.550 -0.2916  0.3378 -0.3543
 6422TIP3    H140825   1.235   6.164   2.620 -0.1154  0.4898 -0.2575
 6422TIP3    H240826   1.378   6.178   2.575  0.1118 -0.7028  0.0379
 6423TIP3   OH240827   2.375   1.578   0.782  0.3037  0.6807  0.2796
 6423TIP3    H140828   2.334   1.652   0.827  1.0914 -0.2723  2.7294
 6423TIP3    H240829   2.324   1.502   0.808  0.9243  0.0540 -0.2857
 6424TIP3   OH240830   0.417   0.331   7.028  0.0439 -0.0897  0.1770
 6424TIP3    H140831   0.448   0.413   6.990  1.3602 -0.3428  0.6344
 6424TIP3    H240832   0.406   0.350   7.122  0.7794 -0.5277  0.3641
 6425TIP3   OH240833   1.890   4.100   8.160  0.3191  0.1791  0.0509
 6425TIP3    H140834   1.970   4.145   8.190  1.5015 -0.2412 -2.2247
 6425TIP3    H240835   1.916   4.008   8.152 -0.7583 -0.1639  0.3922
 6426TIP3   OH240836   2.031   0.496   1.174 -0.0670  0.2215  0.3743
 6426TIP3    H140837   2.028   0.548   1.254 -0.8555  2.4423 -1.0084
 6426TIP3    H240838   2.059   0.558   1.106 -0.7299 -1.2275 -1.3024
 6427TIP3   OH240839   5.018   4.413   1.729  0.1433  0.4838  0.0691
 6427TIP3    H140840   5.111   4.434   1.732  0.3164 -0.0820 -0.9518
 6427TIP3    H240841   4.987   4.451   1.647 -0.6525  1.1391  0.6571
 6428TIP3   OH240842   0.409   1.733   0.778 -0.3711  0.1268 -0.3951
 6428TIP3    H140843   0.490   1.721   0.730  0.3959 -3.0075  1.3971
 6428TIP3    H240844   0.356   1.656   0.757 -1.6222  0.6303  0.7252
 6429TIP3   OH240845   0.572   5.872   1.341  0.8147 -0.5673 -0.4773
 6429TIP3    H140846   0.611   5.880   1.254  1.9455  0.6406  0.1102
 6429TIP3    H240847   0.550   5.962   1.366  1.8926 -0.6868  1.0783
 6430TIP3   OH240848   6.213   0.331   7.375 -0.1888  0.5573  0.0588
 6430TIP3    H140849   6.129   0.312   7.419 -0.6160  0.2350 -0.8828
 6430TIP3    H240850   6.225   0.258   7.314 -0.3282  1.7166 -1.4082
 6431TIP3   OH240851   4.165   6.470   8.942 -0.2221 -0.0656  0.5369
 6431TIP3    H140852   4.130   6.538   9.000 -1.0539  0.0643 -0.1112
 6431TIP3    H240853   4.236   6.514   8.895 -0.3223  0.1633  0.5966
 6432TIP3   OH240854   1.508   3.948   9.009  0.0259 -0.2285  0.1858
 6432TIP3    H140855   1.583   4.005   9.023  1.6314 -2.2819  0.4821
 6432TIP3    H240856   1.477   3.970   8.921  3.5425 -1.9408 -1.7152
 6433TIP3   OH240857   5.375   4.602   1.159 -0.5030 -0.4796  0.3068
 6433TIP3    H140858   5.297   4.586   1.212 -0.3043 -1.6009  0.2743
 6433TIP3    H240859   5.443   4.548   1.199  0.0316 -0.1927 -0.2018
 6434TIP3   OH240860   6.416   6.621   0.976 -0.7566 -0.3594 -0.0322
 6434TIP3    H140861   6.404   6.546   1.035  1.1893 -0.2225  0.5984
 6434TIP3    H240862   6.504   6.611   0.940 -0.7336  1.2210 -0.5234
 6435TIP3   OH240863   1.109   5.484   8.923 -0.3571  0.3122  0.3004
 6435TIP3    H140864   1.112   5.574   8.955  0.2551 -0.2209  1.8725
 6435TIP3    H240865   1.015   5.463   8.921 -0.4853  0.8676  0.2911
 6436TIP3   OH240866   0.730   3.758   8.233  0.5083  0.2409  0.2520
 6436TIP3    H140867   0.780   3.839   8.225  0.5020  0.1893 -0.3561
 6436TIP3    H240868   0.737   3.735   8.326  0.9830  0.6324  0.3188
 6437TIP3   OH240869   0.792   0.145   0.787 -0.0181 -0.3836 -0.2881
 6437TIP3    H140870   0.823   0.055   0.774  0.1688 -0.7167  2.0302
 6437TIP3    H240871   0.767   0.148   0.879 -2.2048  1.3227 -0.8774
 6438TIP3   OH240872   3.971   2.284   0.863 -0.0952 -0.6859 -0.0836
 6438TIP3    H140873   3.940   2.198   0.834  0.8145 -0.2636 -2.5075
 6438TIP3    H240874   3.894   2.341   0.854  0.0753 -0.6397 -1.4528
 6439TIP3   OH240875   4.812   2.912   0.114  0.8976  1.0275  0.1153
 6439TIP3    H140876   4.805   2.865   0.197 -1.0705  2.6166  0.9518
 6439TIP3    H240877   4.816   2.844   0.048  0.1180 -0.3232  1.3876
 6440TIP3   OH240878   5.009   0.776   8.702  0.0154 -0.4450  0.0800
 6440TIP3    H140879   5.004   0.826   8.621 -2.1143 -0.8969 -0.1203
 6440TIP3    H240880   5.008   0.684   8.674  2.2900 -0.6657  0.5190
 6441TIP3   OH240881   1.943   5.494   3.078  0.4686 -0.4978  0.5618
 6441TIP3    H140882   2.017   5.452   3.034  0.5396 -0.5486  0.7297
 6441TIP3    H240883   1.982   5.540   3.152  0.3961 -0.0901  0.3457
 6442TIP3   OH240884   1.606   1.619   1.194 -0.0132 -0.3361  0.0204
 6442TIP3    H140885   1.527   1.639   1.143 -0.0073 -0.8023 -0.1757
 6442TIP3    H240886   1.669   1.686   1.167 -0.0996 -0.4136 -0.3845
 6443TIP3   OH240887   6.195   5.733   2.222 -0.0009  0.1615 -0.6229
 6443TIP3    H140888   6.284   5.760   2.245 -0.1294  0.6494 -0.6876
 6443TIP3    H240889   6.202   5.639   2.205  0.3039 -0.0133  0.3920
 6444TIP3   OH240890   2.453   2.446   8.403  0.2386  0.5332  0.0093
 6444TIP3    H140891   2.522   2.396   8.447  0.0329  0.7958  0.6412
 6444TIP3    H240892   2.487   2.461   8.315 -0.3282 -2.0782 -0.7513
 6445TIP3   OH240893   1.577   5.288   1.002  0.0747  0.1769  0.0250
 6445TIP3    H140894   1.549   5.270   0.913 -1.7089 -1.1956  0.7923
 6445TIP3    H240895   1.505   5.339   1.040  0.9878  1.0957  0.5836
 6446TIP3   OH240896   6.596   3.101   8.445 -0.7351 -0.0976  0.2514
 6446TIP3    H140897   6.680   3.147   8.439 -0.8732  0.2034  0.6348
 6446TIP3    H240898   6.603   3.031   8.379  0.8708 -1.7873  2.0899
 6447TIP3   OH240899   1.487   5.834   7.813 -0.2482 -0.9085  0.0380
 6447TIP3    H140900   1.393   5.816   7.810 -0.5759  0.4904  0.9469
 6447TIP3    H240901   1.511   5.851   7.722 -1.1711  0.0934 -0.0339
 6448TIP3   OH240902   5.458   0.845   0.347  0.4984  0.3924  0.1591
 6448TIP3    H140903   5.539   0.829   0.395 -0.1483 -2.2214  0.5241
 6448TIP3    H240904   5.461   0.783   0.274 -0.7477  0.9510 -0.4046
 6449TIP3   OH240905   3.164   2.657   1.905  0.0154  0.1099  0.5245
 6449TIP3    H140906   3.221   2.719   1.859  0.4842  0.2034  1.2134
 6449TIP3    H240907   3.212   2.636   1.985  0.1577 -1.6661  0.0079
 6450TIP3   OH240908   1.254   5.745   7.609 -0.2994  0.3151 -0.7168
 6450TIP3    H140909   1.337   5.773   7.569  0.4063 -2.2767 -1.2355
 6450TIP3    H240910   1.195   5.734   7.535  0.5194 -2.8812 -1.0279
 6451TIP3   OH240911   2.080   3.931   0.961 -0.7814  0.0515 -0.8085
 6451TIP3    H140912   2.016   4.001   0.969 -0.7150  0.0934 -0.6301
 6451TIP3    H240913   2.093   3.920   0.867 -2.2703 -1.0801 -0.9115
 6452TIP3   OH240914   0.997   5.226   1.330 -0.0987 -0.7551  0.7603
 6452TIP3    H140915   1.068   5.289   1.322 -0.6956  0.2321  2.6927
 6452TIP3    H240916   1.024   5.167   1.401 -1.8182  0.6311  2.6998
 6453TIP3   OH240917   3.885   4.330   0.973  0.1679 -0.4983  0.1152
 6453TIP3    H140918   3.880   4.285   1.058 -1.3646  1.6357  1.2784
 6453TIP3    H240919   3.907   4.421   0.996 -0.9371  0.2805 -1.6813
 6454TIP3   OH240920   2.424   5.187   1.659  0.7355  0.3095 -0.6466
 6454TIP3    H140921   2.374   5.215   1.736  0.8800 -1.0796 -0.0271
 6454TIP3    H240922   2.423   5.264   1.602  0.0136  1.1359  0.4199
 6455TIP3   OH240923   2.975   1.117   8.639 -0.5341 -0.0170  0.2474
 6455TIP3    H140924   3.042   1.185   8.627  0.3566 -0.7473  0.8791
 6455TIP3    H240925   3.008   1.042   8.589 -1.4523 -0.0272 -0.3598
 6456TIP3   OH240926   4.669   1.400   8.317 -0.3081  0.5578 -0.5154
 6456TIP3    H140927   4.649   1.351   8.396 -0.3148 -1.6364 -1.8009
 6456TIP3    H240928   4.585   1.414   8.274 -0.1054 -0.1850 -1.1819
 6457TIP3   OH240929   3.112   4.815   8.875  0.3673  0.6522  0.2600
 6457TIP3    H140930   3.192   4.862   8.897  0.6995  0.5036 -0.5825
 6457TIP3    H240931   3.128   4.780   8.787 -0.6865  0.7656  0.0105
 6458TIP3   OH240932   3.025   2.476   1.734  0.3927 -0.1365  0.1698
 6458TIP3    H140933   3.061   2.551   1.779 -1.9304  0.9994  0.2978
 6458TIP3    H240934   3.039   2.494   1.641  0.6700  0.0050  0.2409
 6459TIP3   OH240935   1.913   5.798   1.643  0.2144  0.2915 -0.2224
 6459TIP3    H140936   2.003   5.790   1.676  1.0371 -1.0735 -2.5468
 6459TIP3    H240937   1.873   5.713   1.663 -0.4581  0.7451  0.4230
 6460TIP3   OH240938   1.085   1.664   0.190  0.1902  0.2513  0.4265
 6460TIP3    H140939   0.993   1.650   0.213 -0.8394  1.5375 -2.3831
 6460TIP3    H240940   1.107   1.748   0.230  0.5224 -0.5386  1.9670
 6461TIP3   OH240941   1.609   4.464   3.143  0.7446 -0.2073 -0.0727
 6461TIP3    H140942   1.527   4.417   3.128  0.1891  1.1324 -1.5869
 6461TIP3    H240943   1.582   4.543   3.189  1.6394 -1.2001  2.2808
 6462TIP3   OH240944   0.376   4.884   8.520  0.0444 -0.1282  0.1178
 6462TIP3    H140945   0.283   4.884   8.497  0.2504  1.6582 -0.8765
 6462TIP3    H240946   0.416   4.826   8.455 -0.4738 -1.9818  1.3375
 6463TIP3   OH240947   4.479   5.003   8.830 -0.1619 -0.1226 -0.1584
 6463TIP3    H140948   4.574   4.994   8.821 -0.1869 -2.3428  1.2155
 6463TIP3    H240949   4.445   4.973   8.745  0.2991 -1.8164  0.2233
 6464TIP3   OH240950   1.216   1.091   8.230  0.6159 -0.5981 -0.4026
 6464TIP3    H140951   1.245   1.117   8.143 -0.2501 -3.2011 -1.5821
 6464TIP3    H240952   1.204   0.996   8.224  1.9895 -1.1280  3.0017
 6465TIP3   OH240953   3.242   5.754   7.812  0.2454  0.2459  0.2656
 6465TIP3    H140954   3.154   5.764   7.777  0.1515 -2.1561 -0.4200
 6465TIP3    H240955   3.300   5.784   7.742  0.0067  1.3426  0.5216
 6466TIP3   OH240956   3.948   1.664   7.466  0.2667  0.2624  0.6080
 6466TIP3    H140957   3.998   1.582   7.470  2.3176  1.3955 -0.0074
 6466TIP3    H240958   3.916   1.669   7.376 -0.4119 -0.1649  0.8248
 6467TIP3   OH240959   2.258   5.516   0.602 -0.3329 -0.3547  0.3411
 6467TIP3    H140960   2.309   5.578   0.551 -0.8634  0.4445  0.7637
 6467TIP3    H240961   2.214   5.461   0.537 -1.4467  1.0086 -0.1057
 6468TIP3   OH240962   4.043   3.315   8.263 -0.1517  0.1766 -0.1066
 6468TIP3    H140963   4.139   3.321   8.259 -0.0282 -1.3809  0.0166
 6468TIP3    H240964   4.022   3.321   8.356 -0.2679  1.3955 -0.1920
 6469TIP3   OH240965   6.316   6.221   2.162 -0.0166  0.7058 -0.5511
 6469TIP3    H140966   6.277   6.189   2.242 -0.5312 -0.0432 -1.0880
 6469TIP3    H240967   6.243   6.230   2.101  0.3564  1.3150 -0.9226
 6470TIP3   OH240968   5.445   3.237   0.903 -0.5233  0.2185  0.4437
 6470TIP3    H140969   5.459   3.152   0.944 -1.0643  0.8584  2.0049
 6470TIP3    H240970   5.530   3.260   0.866  0.2953  0.0868  2.1441
 6471TIP3   OH240971   3.583   3.679   0.224  0.3256 -0.4526  0.1869
 6471TIP3    H140972   3.608   3.627   0.300  3.2140 -0.1529 -0.4445
 6471TIP3    H240973   3.660   3.677   0.167 -1.3873  0.0926 -2.3409
 6472TIP3   OH240974   0.529   2.482   8.720 -0.4875 -0.1643  0.4204
 6472TIP3    H140975   0.588   2.408   8.709  0.2202  0.5584 -0.9474
 6472TIP3    H240976   0.551   2.519   8.805  1.0327  0.0629 -0.0503
 6473TIP3   OH240977   2.706   2.632   1.541  0.4269  0.1766  0.4176
 6473TIP3    H140978   2.767   2.558   1.536  2.0067  1.4992 -0.9823
 6473TIP3    H240979   2.645   2.617   1.470  1.2901  0.6427 -0.4457
 6474TIP3   OH240980   2.094   4.287   8.235  0.2567  0.7086 -0.2359
 6474TIP3    H140981   2.080   4.375   8.201  1.2246  0.4925 -1.2598
 6474TIP3    H240982   2.172   4.256   8.190  0.4237 -0.3675  0.7327
 6475TIP3   OH240983   4.976   4.520   0.444  0.1102  0.9896 -0.1784
 6475TIP3    H140984   4.963   4.468   0.365 -0.5498  0.4999  0.2395
 6475TIP3    H240985   4.906   4.585   0.442  1.3082  2.3054 -1.0198
 6476TIP3   OH240986   0.459   5.115   0.127  0.0720 -0.0084 -0.5875
 6476TIP3    H140987   0.518   5.041   0.116  1.5040  0.9867 -0.0094
 6476TIP3    H240988   0.383   5.094   0.073  0.5952 -1.7055 -0.7195
 6477TIP3   OH240989   5.961   0.983   8.869 -0.7295 -0.2556  0.2198
 6477TIP3    H140990   5.967   1.079   8.871  1.7794 -0.3379 -0.4559
 6477TIP3    H240991   6.030   0.953   8.928 -0.0100 -1.6398 -1.2606
 6478TIP3   OH240992   4.316   4.913   8.626 -0.2035 -0.1370  0.1454
 6478TIP3    H140993   4.304   4.828   8.583  1.3541 -1.0101  1.3241
 6478TIP3    H240994   4.254   4.912   8.699  1.2515 -1.2385  1.4468
 6479TIP3   OH240995   5.048   2.254   7.703 -0.2163 -0.2254 -0.0422
 6479TIP3    H140996   5.021   2.190   7.637 -0.6067  0.5894 -0.6890
 6479TIP3    H240997   4.984   2.243   7.774 -0.1153 -0.7330 -0.0244
 6480TIP3   OH240998   0.371   3.135   0.590 -0.0121  0.0878  0.1961
 6480TIP3    H140999   0.366   3.228   0.612  0.4099 -0.0439  0.8616
 6480TIP3    H241000   0.347   3.131   0.497  1.5281  1.0438 -0.2680
 6481TIP3   OH241001   3.398   2.336   7.077 -0.0229  0.2389 -0.8200
 6481TIP3    H141002   3.343   2.295   7.010 -0.0090  0.5041 -0.9968
 6481TIP3    H241003   3.338   2.389   7.129 -0.4394 -1.7276  0.8254
 6482TIP3   OH241004   0.847   3.064   8.670  0.3146 -0.1141  0.0847
 6482TIP3    H141005   0.934   3.070   8.709 -0.2463 -0.6625  1.4670
 6482TIP3    H241006   0.858   3.002   8.598  1.5748  1.6190 -1.3222
 6483TIP3   OH241007   1.277   0.445   2.042  0.1263 -0.9784 -1.0632
 6483TIP3    H141008   1.334   0.436   1.966 -0.0705  0.4655 -1.4091
 6483TIP3    H241009   1.312   0.382   2.106  2.0918 -0.1462 -1.2536
 6484TIP3   OH241010   0.546   4.142   7.519  0.0841  0.0619 -0.1783
 6484TIP3    H141011   0.618   4.087   7.552 -0.5037 -0.7565 -0.2156
 6484TIP3    H241012   0.581   4.182   7.440  0.2762 -0.8873 -0.5865
 6485TIP3   OH241013   4.482   4.014   1.735 -0.1272 -0.2025 -0.3722
 6485TIP3    H141014   4.393   4.046   1.752  0.4846  2.1523 -1.1968
 6485TIP3    H241015   4.475   3.919   1.741 -3.7036 -0.5534 -4.7444
 6486TIP3   OH241016   5.782   0.452   7.581 -0.0736  0.1756  0.7141
 6486TIP3    H141017   5.864   0.482   7.620  0.4742 -0.1910 -0.1157
 6486TIP3    H241018   5.723   0.440   7.655  0.0146  2.2309  1.1901
 6487TIP3   OH241019   4.239   5.995   1.824 -0.0906  0.4553 -0.1940
 6487TIP3    H141020   4.236   5.965   1.915  1.5059 -1.0984 -0.6009
 6487TIP3    H241021   4.330   6.021   1.810 -0.0564 -0.3108 -1.6250
 6488TIP3   OH241022   2.362   0.854   0.306 -0.1733 -0.3216 -0.1896
 6488TIP3    H141023   2.337   0.892   0.390 -0.2599 -0.4981 -0.1357
 6488TIP3    H241024   2.313   0.772   0.301  1.2002 -1.2044  0.3756
 6489TIP3   OH241025   5.471   6.012   8.675  0.4761 -0.4456  0.4725
 6489TIP3    H141026   5.484   5.931   8.723 -0.3177  0.1660  1.7683
 6489TIP3    H241027   5.382   6.040   8.696 -0.2294 -0.5536 -2.0299
 6490TIP3   OH241028   0.594   5.246   2.370 -0.0692 -0.0888 -0.1235
 6490TIP3    H141029   0.684   5.276   2.367  0.0043 -0.3337 -0.3439
 6490TIP3    H241030   0.599   5.156   2.402 -0.4342  0.7748  2.6961
 6491TIP3   OH241031   2.526   2.902   8.430 -0.2951 -0.6368 -0.5869
 6491TIP3    H141032   2.465   2.828   8.426  1.6701 -2.4016  0.2613
 6491TIP3    H241033   2.584   2.890   8.355 -0.1389  0.2522 -0.6228
 6492TIP3   OH241034   3.042   2.065   7.066 -0.2492  0.4473  0.1393
 6492TIP3    H141035   3.054   2.145   7.119 -0.9322 -0.2944  1.4784
 6492TIP3    H241036   3.130   2.029   7.057 -0.2602 -0.1499  2.0239
 6493TIP3   OH241037   5.745   1.078   0.977 -0.3801 -0.1761 -0.4181
 6493TIP3    H141038   5.706   1.024   0.908  0.3258 -2.2103  0.7102
 6493TIP3    H241039   5.742   1.024   1.056  1.7156  0.8267  0.4390
 6494TIP3   OH241040   3.189   0.584   8.798  0.3485 -0.4255  0.2977
 6494TIP3    H141041   3.152   0.501   8.826 -0.0065 -0.5011 -0.3712
 6494TIP3    H241042   3.275   0.561   8.763  0.3859 -0.4661  0.4163
 6495TIP3   OH241043   5.807   2.683   1.660  0.0542 -0.3330  0.1757
 6495TIP3    H141044   5.840   2.763   1.618 -0.8099 -0.0150  0.0646
 6495TIP3    H241045   5.772   2.714   1.744  1.5255 -0.9211  1.0353
 6496TIP3   OH241046   1.675   1.537   7.714 -0.0169 -0.1230 -0.0843
 6496TIP3    H141047   1.651   1.615   7.664 -0.3343  0.2439  0.6189
 6496TIP3    H241048   1.769   1.526   7.700 -0.0272  0.2196 -0.4176
 6497TIP3   OH241049   3.725   4.257   0.216  0.0123  0.2631 -0.2054
 6497TIP3    H141050   3.746   4.263   0.310  0.4930  0.6434 -0.3339
 6497TIP3    H241051   3.743   4.165   0.194 -3.3118 -0.7638  0.8060
 6498TIP3   OH241052   5.101   3.428   0.184 -0.3003 -0.1544 -0.0913
 6498TIP3    H141053   5.184   3.455   0.147  0.0691  1.1241  1.5381
 6498TIP3    H241054   5.122   3.350   0.235  0.1005  0.6181  0.9641
 6499TIP3   OH241055   4.798   2.813   8.591  0.1153 -0.0958  0.2099
 6499TIP3    H141056   4.710   2.779   8.608 -0.5377  2.3693  2.3890
 6499TIP3    H241057   4.785   2.886   8.530  1.0330 -1.3171 -1.5241
 6500TIP3   OH241058   1.305   5.472   8.658  0.3831 -0.4468 -0.3015
 6500TIP3    H141059   1.292   5.395   8.603 -1.0127 -0.4617  0.0126
 6500TIP3    H241060   1.217   5.499   8.684  0.9599 -0.0274  1.3567
 6501TIP3   OH241061   2.773   3.392   0.346  0.2189  0.6042 -0.0665
 6501TIP3    H141062   2.695   3.346   0.377  1.1794 -0.5154  0.7851
 6501TIP3    H241063   2.798   3.345   0.266 -1.6001  2.7898 -2.1188
 6502TIP3   OH241064   2.693   4.570   0.176 -0.1183  0.1179 -0.3642
 6502TIP3    H141065   2.753   4.573   0.102 -1.7164 -0.2930 -1.7554
 6502TIP3    H241066   2.740   4.520   0.243  1.2559  0.2456 -1.1962
 6503TIP3   OH241067   4.524   3.742   1.649  0.0233 -0.4779 -0.0166
 6503TIP3    H141068   4.611   3.775   1.672 -0.9279  1.4981  1.0043
 6503TIP3    H241069   4.502   3.682   1.721  0.1737 -0.2711  0.2039
 6504TIP3   OH241070   6.085   5.845   2.443  0.3284 -0.1374  0.2575
 6504TIP3    H141071   6.136   5.798   2.508  0.6954  0.8671  0.7170
 6504TIP3    H241072   6.107   5.802   2.360  1.3891 -0.1820  0.5388
 6505TIP3   OH241073   5.948   6.451   8.687  0.0284 -0.1538  0.5754
 6505TIP3    H141074   5.854   6.454   8.705  0.0614 -1.9119  1.2213
 6505TIP3    H241075   5.968   6.358   8.679  1.4166  0.2439 -1.3344
 6506TIP3   OH241076   0.521   1.138   8.540  0.0793  0.3955 -0.0422
 6506TIP3    H141077   0.428   1.119   8.532 -0.1872  2.0124 -1.0921
 6506TIP3    H241078   0.562   1.051   8.550 -1.4291 -0.4157 -0.5806
 6507TIP3   OH241079   5.067   0.636   1.071  0.1965  0.0199  0.9473
 6507TIP3    H141080   5.064   0.729   1.047  2.2819  0.1314  0.9443
 6507TIP3    H241081   5.103   0.634   1.159  0.1550 -0.7766  0.9571
 6508TIP3   OH241082   1.202   1.991   8.280  0.0162  0.0015  0.4117
 6508TIP3    H141083   1.180   2.080   8.252  1.3762  0.4698  0.7125
 6508TIP3    H241084   1.131   1.966   8.339 -0.1740  1.0666  0.6547
 6509TIP3   OH241085   2.615   4.603   8.804 -0.1009  0.4692 -0.3218
 6509TIP3    H141086   2.522   4.622   8.810 -0.0991  0.2432  0.4114
 6509TIP3    H241087   2.626   4.516   8.843  0.6022  1.0567  0.8359
 6510TIP3   OH241088   5.782   2.130   0.094  0.2446 -0.3504  0.5948
 6510TIP3    H141089   5.841   2.203   0.076 -0.8143  0.5663  0.7793
 6510TIP3    H241090   5.695   2.162   0.070 -0.1351 -1.8538 -0.1836
 6511TIP3   OH241091   2.378   5.574   2.205 -0.5039 -0.0807 -0.4357
 6511TIP3    H141092   2.367   5.669   2.197 -0.8145 -0.1310 -0.6318
 6511TIP3    H241093   2.289   5.539   2.200 -0.2582 -0.5360 -2.4145
 6512TIP3   OH241094   0.628   5.670   8.648 -0.0729 -0.3826 -0.1058
 6512TIP3    H141095   0.715   5.710   8.645  0.0108 -0.5482  0.0831
 6512TIP3    H241096   0.615   5.633   8.561 -0.2854  0.3363 -0.3852
 6513TIP3   OH241097   4.980   4.021   0.820  0.4910 -0.0361 -0.3306
 6513TIP3    H141098   4.906   3.973   0.857  0.0699  0.3074 -0.7192
 6513TIP3    H241099   4.949   4.051   0.735 -0.1059  2.9097  0.8219
 6514TIP3   OH241100   2.269   6.236   1.369  0.9886  1.0009  0.0358
 6514TIP3    H141101   2.245   6.177   1.297  0.8328  2.0413 -0.7889
 6514TIP3    H241102   2.187   6.275   1.396  0.8726 -0.2148  1.5798
 6515TIP3   OH241103   1.525   5.057   0.295 -0.0567 -0.2110  0.3096
 6515TIP3    H141104   1.599   4.997   0.286  0.2266 -0.0032  1.1744
 6515TIP3    H241105   1.495   5.046   0.385 -1.0373 -0.2348 -0.0057
 6516TIP3   OH241106   4.286   1.193   1.210 -0.2969  0.2997 -0.7919
 6516TIP3    H141107   4.275   1.099   1.224 -0.7825  0.4567 -0.0646
 6516TIP3    H241108   4.252   1.208   1.122 -0.2385 -0.2040 -0.9003
 6517TIP3   OH241109   1.445   6.379   3.407  0.5331  0.0121  0.4533
 6517TIP3    H141110   1.441   6.453   3.467 -0.0497  0.3774 -0.0232
 6517TIP3    H241111   1.531   6.386   3.366 -0.6401  2.3204 -1.9010
 6518TIP3   OH241112   0.444   0.999   1.174  0.1161 -0.1710  0.0691
 6518TIP3    H141113   0.414   1.015   1.084  1.0979 -0.5467 -0.3396
 6518TIP3    H241114   0.436   1.084   1.217  3.6781  1.1911 -1.5889
 6519TIP3   OH241115   0.847   3.088   1.272 -0.0051  0.1246  0.0865
 6519TIP3    H141116   0.789   3.125   1.206 -0.0960 -2.1791 -1.2551
 6519TIP3    H241117   0.798   3.093   1.354 -1.2321  0.1412 -0.6302
 6520TIP3   OH241118   4.787   6.338   8.929 -0.5691  0.1253 -0.1402
 6520TIP3    H141119   4.854   6.288   8.976  1.3946  1.0829 -1.7549
 6520TIP3    H241120   4.738   6.273   8.879  0.5033 -0.4233 -0.5051
 6521TIP3   OH241121   3.854   3.851   8.071  0.3645 -0.1274 -0.7828
 6521TIP3    H141122   3.899   3.767   8.066 -0.8717 -0.9468  1.1169
 6521TIP3    H241123   3.773   3.838   8.022  1.3949  0.8978 -2.9232
 6522TIP3   OH241124   1.171   1.945   2.629 -0.3756  0.4178  0.1544
 6522TIP3    H141125   1.120   2.019   2.594  0.7962 -0.0167 -2.7814
 6522TIP3    H241126   1.106   1.888   2.669 -2.0141  0.7849 -1.7963
 6523TIP3   OH241127   1.485   0.223   1.486  0.5486 -0.2734  0.2007
 6523TIP3    H141128   1.471   0.234   1.392  1.7634 -0.5442 -0.0329
 6523TIP3    H241129   1.580   0.225   1.496  0.4311 -0.2695  1.4249
 6524TIP3   OH241130   3.999   0.907   1.342 -0.4269 -0.2007  0.1854
 6524TIP3    H141131   3.990   0.944   1.430 -0.8972  0.1537 -0.0081
 6524TIP3    H241132   4.089   0.926   1.317 -0.2073 -0.5387  0.6933
 6525TIP3   OH241133   4.995   2.019   7.542  0.3607  0.5429 -0.2449
 6525TIP3    H141134   4.973   1.953   7.477 -1.2429  1.0737 -0.2789
 6525TIP3    H241135   4.957   1.986   7.623  1.1931  0.5322  0.1543
 6526TIP3   OH241136   2.765   4.289   8.044 -0.0481 -0.1219  0.1305
 6526TIP3    H141137   2.771   4.382   8.062  0.6206 -0.3879  1.4096
 6526TIP3    H241138   2.726   4.283   7.957  1.8766  1.3888 -0.8960
 6527TIP3   OH241139   0.317   5.746   1.571 -0.5889 -0.1158 -0.1772
 6527TIP3    H141140   0.255   5.789   1.631  0.1635 -1.1549  1.3998
 6527TIP3    H241141   0.374   5.817   1.542 -1.8044  0.6577 -0.8006
 6528TIP3   OH241142   0.979   4.370   2.319 -0.1221  0.7287 -0.0410
 6528TIP3    H141143   0.993   4.456   2.281  0.8410  1.8449  2.5599
 6528TIP3    H241144   0.930   4.321   2.253  0.9867  2.5942 -2.3871
 6529TIP3   OH241145   3.343   3.933   7.015 -0.1783  0.1058 -0.0098
 6529TIP3    H141146   3.410   3.939   6.946 -0.6152 -2.3031 -0.7229
 6529TIP3    H241147   3.390   3.897   7.090 -0.3051  0.1235  0.0774
 6530TIP3   OH241148   2.840   4.509   0.407  0.3950  0.2916  0.5736
 6530TIP3    H141149   2.885   4.434   0.447  0.9014  0.2431 -0.0688
 6530TIP3    H241150   2.844   4.577   0.474  1.9955  0.4909  0.3156
 6531TIP3   OH241151   6.028   5.378   3.103 -0.3228  0.4932 -0.8221
 6531TIP3    H141152   6.077   5.295   3.106 -1.3811 -0.2642 -2.9507
 6531TIP3    H241153   6.072   5.429   3.036 -0.7386  0.9542 -0.7457
 6532TIP3   OH241154   1.109   2.287   0.302  0.1423  0.2958  0.3639
 6532TIP3    H141155   1.114   2.225   0.229  0.0570  3.0065 -2.1406
 6532TIP3    H241156   1.027   2.267   0.345  0.2318 -1.4636 -0.2082
 6533TIP3   OH241157   0.455   5.636   1.263  0.3777 -0.3826 -0.6936
 6533TIP3    H141158   0.476   5.730   1.265 -1.4172  0.1837 -3.2135
 6533TIP3    H241159   0.526   5.597   1.213  1.3746 -0.4907  0.7550
 6534TIP3   OH241160   3.537   1.588   8.004 -0.4531 -0.3439  0.1388
 6534TIP3    H141161   3.608   1.599   8.067  1.2478 -0.4719 -1.6404
 6534TIP3    H241162   3.482   1.520   8.041  3.0584 -3.8942 -0.5318
 6535TIP3   OH241163   6.424   2.089   8.233  0.4467  0.2470 -0.9837
 6535TIP3    H141164   6.416   2.177   8.197 -3.6606  1.6793  2.4781
 6535TIP3    H241165   6.465   2.101   8.319 -1.3428 -0.8898  0.1074
 6536TIP3   OH241166   3.134   1.703   0.395 -0.3011 -0.0865  0.0246
 6536TIP3    H141167   3.215   1.700   0.445 -1.6532 -0.5755  2.3174
 6536TIP3    H241168   3.098   1.791   0.412  0.9007  1.1535 -3.0862
 6537TIP3   OH241169   6.062   4.823   1.022  0.2522 -0.2616 -0.4790
 6537TIP3    H141170   6.094   4.913   1.032 -2.4561  0.6613  1.0933
 6537TIP3    H241171   5.987   4.830   0.963 -0.3813 -1.3402  0.1496
 6538TIP3   OH241172   2.509   6.433   8.562  0.5300  0.4845 -0.4620
 6538TIP3    H141173   2.514   6.341   8.588 -1.2424  0.3155 -0.5820
 6538TIP3    H241174   2.541   6.434   8.472 -0.1910 -0.1646 -0.7350
 6539TIP3   OH241175   1.689   2.848   7.899 -0.4023  1.3280  0.3342
 6539TIP3    H141176   1.733   2.764   7.911 -2.3460  0.2014 -0.0184
 6539TIP3    H241177   1.760   2.910   7.882  1.0737 -0.2524  0.4611
 6540TIP3   OH241178   0.453   0.235   1.179  0.1355  0.1734  0.4833
 6540TIP3    H141179   0.493   0.307   1.227 -0.5981  2.0767 -1.5822
 6540TIP3    H241180   0.491   0.240   1.091 -2.5466  0.3676 -0.7644
 6541TIP3   OH241181   4.889   1.407   9.047 -0.6979 -0.0995  0.1008
 6541TIP3    H141182   4.849   1.423   9.133 -0.3237  1.4243  0.0260
 6541TIP3    H241183   4.823   1.439   8.985 -1.0111 -1.2953 -0.2005
 6542TIP3   OH241184   2.640   3.046   2.517 -0.0307  0.5329 -0.2332
 6542TIP3    H141185   2.667   3.080   2.432 -1.6671  1.8921 -0.2715
 6542TIP3    H241186   2.659   3.116   2.579  0.2222 -0.0585  0.3770
 6543TIP3   OH241187   5.834   6.522   8.117  0.6412  0.3186  0.2457
 6543TIP3    H141188   5.897   6.451   8.102 -0.9453 -1.4906  1.6166
 6543TIP3    H241189   5.850   6.583   8.046  2.7567 -0.9191 -0.4471
 6544TIP3   OH241190   2.552   4.544   2.501  0.2116  0.1621  0.2632
 6544TIP3    H141191   2.473   4.574   2.546  1.2969 -0.2783  2.6314
 6544TIP3    H241192   2.532   4.454   2.476 -0.0511  0.0412  0.8815
 6545TIP3   OH241193   5.373   3.274   2.697  0.3843  0.6730 -0.1494
 6545TIP3    H141194   5.300   3.229   2.740  0.1708  0.0679 -1.1253
 6545TIP3    H241195   5.353   3.269   2.604  1.3544  1.0711 -0.3885
 6546TIP3   OH241196   5.586   6.678   1.331  0.3427  0.5872  0.0563
 6546TIP3    H141197   5.656   6.616   1.354  0.4335  0.6122 -0.1482
 6546TIP3    H241198   5.619   6.723   1.253  0.2947  0.9238  0.2303
 6547TIP3   OH241199   5.903   6.294   0.487  0.4268 -0.2964  0.0596
 6547TIP3    H141200   5.845   6.219   0.499 -0.3018  0.2465 -0.0496
 6547TIP3    H241201   5.858   6.366   0.530 -0.1444  0.7026 -2.1295
 6548TIP3   OH241202   5.480   2.550   1.322  0.1797 -0.0869 -0.3096
 6548TIP3    H141203   5.398   2.550   1.271  0.2967 -0.1048 -0.5007
 6548TIP3    H241204   5.452   2.544   1.413 -0.0458  0.1886 -0.3562
 6549TIP3   OH241205   6.299   3.738   7.625 -0.3178  0.2484 -0.0998
 6549TIP3    H141206   6.394   3.739   7.616 -0.2994  0.5786  0.1118
 6549TIP3    H241207   6.284   3.727   7.719 -0.4696  2.3050  0.1523
 6550TIP3   OH241208   2.637   2.282   8.554 -0.3813 -0.7967  0.1914
 6550TIP3    H141209   2.720   2.319   8.526 -1.7341  1.1168 -1.6191
 6550TIP3    H241210   2.630   2.199   8.506 -0.3136 -0.0776 -1.0965
 6551TIP3   OH241211   2.151   1.589   7.956 -0.0604  0.1655  0.4137
 6551TIP3    H141212   2.194   1.647   8.018  0.1762 -0.4297  0.8075
 6551TIP3    H241213   2.142   1.642   7.876  2.8262 -0.1786 -0.2354
 6552TIP3   OH241214   5.245   4.765   8.324  0.1254  0.0960 -0.5905
 6552TIP3    H141215   5.225   4.720   8.241 -0.9907  0.0213 -0.2900
 6552TIP3    H241216   5.279   4.850   8.297 -1.2742  0.5128 -1.1468
 6553TIP3   OH241217   4.470   0.027   8.882  0.3681  0.0510  0.1885
 6553TIP3    H141218   4.441  -0.062   8.861 -0.1007  0.5721 -1.5194
 6553TIP3    H241219   4.542   0.043   8.822  0.3026  0.9180  0.3351
 6554TIP3   OH241220   6.618   6.148   1.372  0.9209  0.0230  0.2495
 6554TIP3    H141221   6.524   6.163   1.379  1.3592  3.1381  0.7846
 6554TIP3    H241222   6.639   6.092   1.446 -0.4113 -0.2521  0.4470
 6555TIP3   OH241223   6.705   2.538   8.671 -0.3404  0.5111  0.3282
 6555TIP3    H141224   6.712   2.547   8.766  1.0126 -1.7336  0.5163
 6555TIP3    H241225   6.744   2.453   8.652  3.3156  2.5677 -2.7138
 6556TIP3   OH241226   2.543   1.497   2.616 -0.1344  0.1923 -0.1128
 6556TIP3    H141227   2.499   1.550   2.682  0.4639  0.5517  0.0089
 6556TIP3    H241228   2.506   1.409   2.627  0.3267  0.1259  1.0629
 6557TIP3   OH241229   4.074   4.526   0.075 -0.1246 -0.2847  0.1853
 6557TIP3    H141230   4.031   4.450   0.037  0.7575  0.0072 -1.4734
 6557TIP3    H241231   4.137   4.489   0.137 -0.5456 -0.8477  0.2879
 6558TIP3   OH241232   1.719   3.210   1.103  0.0643 -0.0241 -0.1019
 6558TIP3    H141233   1.787   3.144   1.115  0.9157  0.8341 -0.0289
 6558TIP3    H241234   1.640   3.160   1.082  0.9145 -1.0091 -1.1004
 6559TIP3   OH241235   1.784   1.283   8.116  0.1734 -0.0628 -0.1672
 6559TIP3    H141236   1.862   1.323   8.154  0.6458 -1.0267 -0.0830
 6559TIP3    H241237   1.713   1.304   8.176 -0.0536  2.4524 -1.1929
 6560TIP3   OH241238   0.981   4.083   1.322  0.2805 -0.4233 -0.0016
 6560TIP3    H141239   1.035   4.004   1.324 -0.4175 -0.9317 -0.4263
 6560TIP3    H241240   0.942   4.083   1.234 -0.9842 -0.4881  0.5310
 6561TIP3   OH241241   4.778   5.001   8.001 -0.3583  0.1848  0.3252
 6561TIP3    H141242   4.808   5.040   7.919  2.5803 -2.8186 -0.2763
 6561TIP3    H241243   4.682   5.002   7.995 -0.2631  1.5280 -2.3623
 6562TIP3   OH241244   3.938   1.980   8.975  0.5579  0.2493 -0.3758
 6562TIP3    H141245   4.026   2.015   8.991  1.7495 -1.8446 -1.8172
 6562TIP3    H241246   3.931   1.904   9.033 -0.5331  0.6985  0.1044
 6563TIP3   OH241247   5.295   0.468   8.637  0.4479  0.6392 -0.0155
 6563TIP3    H141248   5.361   0.399   8.637  1.8417  1.9136  0.6571
 6563TIP3    H241249   5.307   0.513   8.721 -2.2663  0.0468  0.7866
 6564TIP3   OH241250   5.891   3.511   0.330 -0.0789 -0.1157  0.4215
 6564TIP3    H141251   5.903   3.558   0.247 -0.5859  0.9611  0.9278
 6564TIP3    H241252   5.963   3.541   0.385  0.7032 -1.4150  0.1430
 6565TIP3   OH241253   6.506   1.443   1.197  0.0755  0.6161 -0.1213
 6565TIP3    H141254   6.561   1.408   1.127 -0.7569  1.2842 -1.1431
 6565TIP3    H241255   6.478   1.366   1.246 -0.2260  0.0190 -1.2044
 6566TIP3   OH241256   6.041   1.887   8.347  0.5043 -0.4081 -0.1998
 6566TIP3    H141257   6.011   1.874   8.436 -1.2330 -1.2925 -0.8657
 6566TIP3    H241258   6.038   1.982   8.334 -1.3972 -0.4049  0.0078
 6567TIP3   OH241259   3.547   1.073   1.971 -0.4022  0.0174 -0.2955
 6567TIP3    H141260   3.552   1.116   2.057 -1.0072 -0.7260  0.1192
 6567TIP3    H241261   3.492   1.131   1.918 -0.3396  0.2863 -0.0683
 6568TIP3   OH241262   4.025   4.032   7.897  0.4083  0.1254 -0.0350
 6568TIP3    H141263   4.116   4.056   7.916  0.4196 -0.3139  0.4838
 6568TIP3    H241264   4.012   4.056   7.806  0.5516  1.7145  0.3275
 6569TIP3   OH241265   4.025   3.122   0.749 -0.3557 -0.3454 -0.6732
 6569TIP3    H141266   4.111   3.099   0.786  0.0683  0.5350 -1.0843
 6569TIP3    H241267   4.028   3.217   0.739 -1.0377 -0.4050 -1.5468
 6570TIP3   OH241268   3.617   1.820   8.181  0.1815 -0.9566 -0.2086
 6570TIP3    H141269   3.694   1.863   8.219 -0.2638 -0.5933  0.2817
 6570TIP3    H241270   3.648   1.788   8.096  1.3265 -2.1701  0.6185
 6571TIP3   OH241271   0.685   6.550   8.714 -0.5234  0.0635 -0.0889
 6571TIP3    H141272   0.755   6.608   8.685 -0.6226 -0.5234 -1.6286
 6571TIP3    H241273   0.605   6.603   8.707 -0.3875  0.3594  0.5096
 6572TIP3   OH241274   1.592   1.428   9.075 -0.1195  0.2390 -0.4669
 6572TIP3    H141275   1.660   1.361   9.068 -1.7849 -1.3818 -2.3864
 6572TIP3    H241276   1.596   1.475   8.991  0.0134  1.5516  0.2532
 6573TIP3   OH241277   3.605   3.941   0.425 -0.0899 -0.5083 -0.3696
 6573TIP3    H141278   3.539   3.906   0.366  0.0686  2.0017 -2.1845
 6573TIP3    H241279   3.678   3.967   0.368  0.9281  0.1522  1.1506
 6574TIP3   OH241280   1.873   3.715   2.790 -0.0215  0.1319 -0.4168
 6574TIP3    H141281   1.785   3.697   2.755 -0.9786  2.6816  0.4560
 6574TIP3    H241282   1.907   3.785   2.735 -0.5180  2.4426  2.0000
 6575TIP3   OH241283   1.050   2.096   8.622 -0.4146  0.0110 -0.2215
 6575TIP3    H141284   1.068   2.187   8.599 -0.8744  0.0722 -0.3504
 6575TIP3    H241285   0.957   2.095   8.644 -0.3475 -0.3718  0.0500
 6576TIP3   OH241286   1.009   2.061   0.682  0.2065 -0.2861 -0.0184
 6576TIP3    H141287   0.941   2.128   0.674 -0.4688 -1.1635 -2.4439
 6576TIP3    H241288   1.091   2.110   0.682 -0.2953  0.6135 -1.2092
 6577TIP3   OH241289   1.371   3.362   2.274  0.5550  0.0826 -0.4556
 6577TIP3    H141290   1.284   3.399   2.263  1.1072  1.4408 -0.5354
 6577TIP3    H241291   1.358   3.279   2.319 -0.7330  0.4658 -0.1093
 6578TIP3   OH241292   1.849   5.427   1.225  0.0989  0.3884  0.3695
 6578TIP3    H141293   1.766   5.472   1.208  0.4891  1.1009  0.3498
 6578TIP3    H241294   1.822   5.339   1.253 -0.7276  1.0874  1.9144
 6579TIP3   OH241295   5.790   2.620   0.546 -0.1508  0.7427 -0.2823
 6579TIP3    H141296   5.760   2.609   0.636  0.7538  0.4175 -0.0184
 6579TIP3    H241297   5.885   2.618   0.551 -0.0461 -1.7568 -1.5182
 6580TIP3   OH241298   4.858   6.082   1.938 -0.0585 -1.1093  0.0705
 6580TIP3    H141299   4.896   6.073   2.025  0.7531 -0.4252 -0.1969
 6580TIP3    H241300   4.776   6.129   1.952  0.7878  0.3271  0.3134
 6581TIP3   OH241301   4.931   0.961   7.546 -0.1651 -0.4563  0.6327
 6581TIP3    H141302   4.848   0.947   7.501 -0.8299  1.9796  0.9646
 6581TIP3    H241303   4.997   0.952   7.477 -1.0238  1.2589 -0.5026
 6582TIP3   OH241304   6.438   3.251   1.203  0.1769 -0.0439  0.1632
 6582TIP3    H141305   6.398   3.169   1.232  1.3064  0.5975  4.1815
 6582TIP3    H241306   6.364   3.308   1.183 -0.6522 -1.4241 -0.8770
 6583TIP3   OH241307   0.752   3.417   1.450 -0.0216  0.0452 -0.7239
 6583TIP3    H141308   0.716   3.329   1.433  0.9421 -0.5522  0.1758
 6583TIP3    H241309   0.835   3.418   1.403  0.3892  0.1314 -0.0166
 6584TIP3   OH241310   2.773   2.221   7.714  0.2260 -0.1521  0.1671
 6584TIP3    H141311   2.767   2.288   7.645  0.1178  0.8046  1.0712
 6584TIP3    H241312   2.720   2.148   7.681 -1.5540  1.0824  0.1021
 6585TIP3   OH241313   3.676   2.048   0.198  0.0319 -0.4119 -0.4268
 6585TIP3    H141314   3.688   2.141   0.178  0.1243 -1.0202 -3.7218
 6585TIP3    H241315   3.613   2.017   0.132  1.9197 -3.1941 -1.0977
 6586TIP3   OH241316   2.450   5.482   1.740  0.2175 -0.0648  0.2478
 6586TIP3    H141317   2.466   5.563   1.790  0.6876  2.5582 -3.7118
 6586TIP3    H241318   2.414   5.512   1.657  1.7726 -3.8477 -2.0423
 6587TIP3   OH241319   0.898   5.108   1.742  0.3141 -0.4369  0.3861
 6587TIP3    H141320   0.834   5.064   1.798 -0.0741  0.1500  0.4176
 6587TIP3    H241321   0.917   5.045   1.673 -0.4317 -0.5586  0.2798
 6588TIP3   OH241322   6.005   3.877   1.291 -0.1370  0.2540 -0.4695
 6588TIP3    H141323   5.926   3.823   1.291  0.4200 -0.5878  0.0749
 6588TIP3    H241324   5.973   3.967   1.296 -1.0540 -0.1217  1.0307
 6589TIP3   OH241325   5.564   3.380   0.042 -0.1384  0.0407 -0.3259
 6589TIP3    H141326   5.592   3.434   0.116  1.1801  1.2857 -1.6725
 6589TIP3    H241327   5.614   3.413  -0.032 -1.2541 -1.3231 -1.7499
 6590TIP3   OH241328   3.021   1.386   1.729 -0.1956  0.0883 -0.5088
 6590TIP3    H141329   3.075   1.405   1.806 -0.2659  0.5451 -0.5744
 6590TIP3    H241330   2.932   1.408   1.757 -0.0802  1.3039 -1.0856
 6591TIP3   OH241331   0.208   2.736   8.641  0.3698  0.0068 -0.6520
 6591TIP3    H141332   0.231   2.805   8.703  0.8300 -0.5998 -0.1439
 6591TIP3    H241333   0.210   2.655   8.692 -3.5965 -0.0839 -0.3325
 6592TIP3   OH241334   5.028   1.464   1.977 -0.3833 -0.0585 -0.1587
 6592TIP3    H141335   4.990   1.529   2.036 -0.8556 -0.3139 -0.1761
 6592TIP3    H241336   5.065   1.398   2.035 -0.2382  0.0326 -0.1454
 6593TIP3   OH241337   1.452   4.171   0.886  0.1367 -0.5985  0.9033
 6593TIP3    H141338   1.464   4.080   0.913  0.1613 -1.8014 -2.6834
 6593TIP3    H241339   1.531   4.193   0.838 -1.7208 -0.4511 -2.4105
 6594TIP3   OH241340   4.057   0.555   0.234  0.7649  0.1666 -0.2071
 6594TIP3    H141341   3.985   0.611   0.264  1.4135  1.0490 -0.2683
 6594TIP3    H241342   4.020   0.508   0.159 -0.3711 -0.9036  0.9957
 6595TIP3   OH241343   2.294   3.854   8.822 -0.2104  0.4294 -0.0905
 6595TIP3    H141344   2.359   3.828   8.887  1.1049 -1.5145 -2.0299
 6595TIP3    H241345   2.210   3.830   8.860  0.1815  2.3873  2.2049
 6596TIP3   OH241346   0.815   5.422   7.777 -0.3960  0.0264 -0.3495
 6596TIP3    H141347   0.843   5.466   7.697 -0.3980  0.8282  0.0776
 6596TIP3    H241348   0.848   5.333   7.768  0.4113  0.3593 -0.8392
 6597TIP3   OH241349   4.819   5.986   7.620 -0.7823  0.6612  0.5489
 6597TIP3    H141350   4.854   5.944   7.541 -1.3899 -1.8494  1.4985
 6597TIP3    H241351   4.740   6.032   7.590 -1.3063 -0.7008 -0.2699
 6598TIP3   OH241352   2.359   1.724   8.503  0.2862 -0.4514  0.0284
 6598TIP3    H141353   2.424   1.655   8.512  0.8992  0.1536  0.3379
 6598TIP3    H241354   2.385   1.791   8.566 -0.9554 -0.4223  0.5507
 6599TIP3   OH241355   5.208   0.430   9.103 -0.3116  0.5830 -0.4010
 6599TIP3    H141356   5.120   0.423   9.067  0.0927  0.0114 -1.2860
 6599TIP3    H241357   5.199   0.399   9.193 -1.3799  2.2948  0.1392
 6600TIP3   OH241358   4.388   0.840   8.738  0.0004  0.4206  0.0871
 6600TIP3    H141359   4.433   0.905   8.685 -0.3660 -0.7181 -1.6847
 6600TIP3    H241360   4.307   0.821   8.690 -2.7186  2.6347  3.2805
 6601TIP3   OH241361   5.519   3.615   0.998 -0.0860 -0.5652  0.1064
 6601TIP3    H141362   5.446   3.574   0.952 -0.5508 -0.2550  0.5570
 6601TIP3    H241363   5.478   3.679   1.056  0.6242  0.5828 -0.6232
 6602TIP3   OH241364   6.494   6.448   1.887  0.0164  0.0292 -0.4275
 6602TIP3    H141365   6.427   6.385   1.860  0.8505 -2.4006  2.5058
 6602TIP3    H241366   6.577   6.401   1.877  0.8061  1.1009  0.6728
 6603TIP3   OH241367   0.261   0.926   9.091 -0.2279 -0.5268 -0.3407
 6603TIP3    H141368   0.323   0.996   9.108 -0.1747 -0.1677 -1.8196
 6603TIP3    H241369   0.285   0.856   9.152  0.3359  0.3658  0.4802
 6604TIP3   OH241370   0.931   3.896   0.470  0.0770 -0.4703 -0.4325
 6604TIP3    H141371   0.852   3.890   0.417  0.2202 -1.4803 -0.5677
 6604TIP3    H241372   0.994   3.941   0.414 -0.6428  1.1300  0.0022
 6605TIP3   OH241373   2.615   1.784   6.920  0.1140  0.5767 -0.4434
 6605TIP3    H141374   2.603   1.791   7.015 -1.1102 -1.0434 -0.4303
 6605TIP3    H241375   2.603   1.873   6.888  0.3469  1.1185  0.9096
 6606TIP3   OH241376   5.733   4.710   0.721  0.7503  0.1414  0.3609
 6606TIP3    H141377   5.773   4.689   0.637  1.6197 -0.4154  0.8952
 6606TIP3    H241378   5.664   4.645   0.733 -2.1064  2.5495 -1.6928
 6607TIP3   OH241379   5.868   4.440   8.039  0.7010 -0.1572  0.3575
 6607TIP3    H141380   5.892   4.425   8.130 -0.8256 -2.0004  0.5412
 6607TIP3    H241381   5.927   4.384   7.988  0.3958 -0.5235  0.3925
 6608TIP3   OH241382   4.483   1.563   2.087  0.5428 -0.2384 -0.2756
 6608TIP3    H141383   4.542   1.500   2.128 -0.6408 -0.0658  1.8137
 6608TIP3    H241384   4.430   1.597   2.159 -1.1058  0.6947 -1.8561
 6609TIP3   OH241385   4.715   6.297   7.982  0.4713 -0.1256 -0.3363
 6609TIP3    H141386   4.750   6.359   7.918 -0.3843 -1.1790 -1.8808
 6609TIP3    H241387   4.782   6.294   8.051  1.5895  0.7813 -1.3291
 6610TIP3   OH241388   1.466   3.393   2.021 -0.2010  0.4488  0.0057
 6610TIP3    H141389   1.452   3.389   2.115  1.4723 -1.4535  0.2328
 6610TIP3    H241390   1.429   3.477   1.995 -1.9256  0.4140  2.1191
 6611TIP3   OH241391   3.542   5.196   8.141  0.3174 -0.7772 -0.1808
 6611TIP3    H141392   3.486   5.240   8.076  0.0745 -1.5229 -0.4997
 6611TIP3    H241393   3.630   5.228   8.123 -0.1505  1.5189  1.2528
 6612TIP3   OH241394   6.331   0.053   8.075 -0.1105  0.3455 -0.1365
 6612TIP3    H141395   6.388   0.080   8.147 -1.6480 -0.6435  1.5200
 6612TIP3    H241396   6.269   0.124   8.066 -2.8660 -1.4197  2.8337
 6613TIP3   OH241397   4.282   0.378   8.721 -0.5177 -0.2798 -0.3085
 6613TIP3    H141398   4.227   0.456   8.710 -0.1851 -0.1815 -1.4536
 6613TIP3    H241399   4.303   0.351   8.631  1.4092 -0.2273  0.0819
 6614TIP3   OH241400   6.228   5.312   8.229  0.2333  0.7000  0.0019
 6614TIP3    H141401   6.283   5.366   8.173 -0.4446 -0.1478 -1.5669
 6614TIP3    H241402   6.150   5.294   8.176 -1.2591  1.2682  1.8744
 6615TIP3   OH241403   6.022   1.826   0.640 -0.1856  0.2431  0.0226
 6615TIP3    H141404   6.060   1.911   0.620  2.3033 -0.7929 -0.0596
 6615TIP3    H241405   6.051   1.807   0.730 -0.3005 -0.6953 -0.1206
 6616TIP3   OH241406   5.805   2.203   7.810  0.1059  0.0320  0.7712
 6616TIP3    H141407   5.723   2.195   7.858  0.6941  1.7398  2.1742
 6616TIP3    H241408   5.870   2.158   7.864  0.3436 -0.1602  0.3347
 6617TIP3   OH241409   0.838   4.597   0.224  0.1027  0.2713 -0.4553
 6617TIP3    H141410   0.863   4.646   0.146  1.0943  0.8691  0.2119
 6617TIP3    H241411   0.903   4.622   0.290 -0.5358 -0.4479  0.4774
 6618TIP3   OH241412   5.647   6.553   7.675 -0.5558 -0.0940  0.6169
 6618TIP3    H141413   5.639   6.464   7.709  0.0077 -0.1868  0.5171
 6618TIP3    H241414   5.734   6.555   7.634 -1.3692 -0.0953 -1.1749
 6619TIP3   OH241415   5.068   3.537   9.000  0.0764  0.1297 -0.3776
 6619TIP3    H141416   5.118   3.616   8.979  1.7039 -0.1232  2.0705
 6619TIP3    H241417   5.082   3.525   9.094 -1.4727 -2.1760 -0.3689
 6620TIP3   OH241418   5.615   3.877   0.294 -0.1095  0.8933  0.3617
 6620TIP3    H141419   5.690   3.875   0.354 -0.6455 -0.7874  1.0407
 6620TIP3    H241420   5.540   3.897   0.350 -0.5439 -0.1944  0.2037
 6621TIP3   OH241421   4.204   5.286   2.639  0.7533 -0.1802  0.2755
 6621TIP3    H141422   4.292   5.305   2.672 -0.2957  1.8147  2.1885
 6621TIP3    H241423   4.170   5.220   2.698  0.7160 -0.4800 -0.0759
 6622TIP3   OH241424   6.142   1.990   1.393 -0.1832  0.1332  0.4685
 6622TIP3    H141425   6.159   2.083   1.379  2.2390 -0.4127 -0.8472
 6622TIP3    H241426   6.212   1.945   1.345  0.0145 -2.3487  2.8042
 6623TIP3   OH241427   5.244   5.042   1.668 -0.1771 -0.5055 -0.1171
 6623TIP3    H141428   5.193   4.962   1.675  0.3912 -0.9841 -1.1894
 6623TIP3    H241429   5.280   5.041   1.579  1.6674 -0.1871  0.5678
 6624TIP3   OH241430   2.910   5.345   0.159  0.7000 -0.3165  0.4456
 6624TIP3    H141431   2.928   5.439   0.156 -0.3990 -0.0875  0.6013
 6624TIP3    H241432   2.848   5.335   0.231 -0.0973 -1.0029 -0.3182
 6625TIP3   OH241433   3.651   3.339   7.261  0.5506  0.3484 -0.4746
 6625TIP3    H141434   3.643   3.426   7.223  0.9714  0.9501  0.7528
 6625TIP3    H241435   3.744   3.318   7.256  0.7554  0.7996  0.9228
 6626TIP3   OH241436   2.927   2.740   0.098  0.1180 -0.3260  0.7194
 6626TIP3    H141437   2.978   2.743   0.179 -1.3956  0.4257  1.7185
 6626TIP3    H241438   2.968   2.673   0.045 -0.2317 -2.6028  3.1091
 6627TIP3   OH241439   0.036   3.795   1.507 -0.8500 -0.1638  0.1001
 6627TIP3    H141440  -0.031   3.729   1.525 -1.4792 -0.1546 -1.9935
 6627TIP3    H241441  -0.000   3.848   1.436 -0.0184  1.9747  1.1646
 6628TIP3   OH241442   1.893   4.712   2.021 -0.1355 -0.2582  0.5305
 6628TIP3    H141443   1.898   4.753   1.935  1.6219 -0.8765  0.3081
 6628TIP3    H241444   1.883   4.784   2.083  0.4340  0.3124 -0.0433
 6629TIP3   OH241445   2.866   4.954   8.328  0.5474  0.6677  0.2684
 6629TIP3    H141446   2.803   5.027   8.333  1.1934  1.2902 -0.4389
 6629TIP3    H241447   2.940   4.983   8.380  0.1958 -0.1385  1.2412
 6630TIP3   OH241448   1.021   3.180   8.349  0.2030  0.0821  0.1096
 6630TIP3    H141449   0.959   3.245   8.317  0.5917 -0.5266 -2.0358
 6630TIP3    H241450   0.973   3.097   8.347  0.3381 -0.0223  0.8526
 6631TIP3   OH241451   5.525   2.192   0.020  0.3906  0.7916 -0.7134
 6631TIP3    H141452   5.477   2.201  -0.062  0.7187 -1.2015 -1.1535
 6631TIP3    H241453   5.480   2.252   0.080 -1.1828  0.7031 -1.7519
 6632TIP3   OH241454   1.765   5.127   1.119  0.1005 -0.3525 -0.2520
 6632TIP3    H141455   1.682   5.169   1.095  0.4294  0.3803 -0.1381
 6632TIP3    H241456   1.819   5.135   1.041  1.8775  3.7996  1.1677
 6633TIP3   OH241457   0.965   4.885   0.370  0.2999  0.3358 -0.2415
 6633TIP3    H141458   0.899   4.937   0.417  2.3209  2.4217  0.4692
 6633TIP3    H241459   0.942   4.896   0.278 -1.3913 -0.5437  0.0235
 6634TIP3   OH241460   6.448   5.856   8.156 -0.1827  0.0548  0.6137
 6634TIP3    H141461   6.538   5.869   8.125 -0.1363 -0.3390  0.5754
 6634TIP3    H241462   6.434   5.926   8.219  0.0429  0.3098  0.3799
 6635TIP3   OH241463   3.921   2.493   7.574 -0.2745 -0.4153 -0.2940
 6635TIP3    H141464   3.874   2.558   7.626  0.0547  1.2980 -2.0169
 6635TIP3    H241465   3.854   2.452   7.519 -0.2326 -0.3257 -0.4117
 6636TIP3   OH241466   4.285   4.665   7.975 -0.1565  0.0987 -0.5011
 6636TIP3    H141467   4.377   4.665   8.002 -0.7611  2.0071  1.8772
 6636TIP3    H241468   4.288   4.681   7.881  1.9392 -1.2906 -0.7605
 6637TIP3   OH241469   3.501   0.248   7.473 -0.5502  0.7227 -1.1060
 6637TIP3    H141470   3.495   0.321   7.535 -0.9111  0.6135 -1.0103
 6637TIP3    H241471   3.431   0.264   7.410 -0.7178  0.3815 -1.0061
 6638TIP3   OH241472   2.961   4.059   2.949 -0.2120  0.5363  0.4507
 6638TIP3    H141473   3.051   4.043   2.980 -0.0587  0.2957 -0.0947
 6638TIP3    H241474   2.924   3.971   2.938  0.1113  0.5680 -1.0907
 6639TIP3   OH241475   1.500   6.670   0.999  0.3190 -0.2226 -0.4315
 6639TIP3    H141476   1.536   6.751   0.964  0.3607  0.2307  0.6335
 6639TIP3    H241477   1.407   6.672   0.975  0.2437  0.3152 -0.1047
 6640TIP3   OH241478   4.277   5.915   7.559 -0.5770  0.1624 -0.4456
 6640TIP3    H141479   4.312   5.898   7.472 -1.1460  2.3063 -1.1493
 6640TIP3    H241480   4.322   5.852   7.616  0.6785 -0.4789 -2.0798
 6641TIP3   OH241481   5.104   3.663   7.411  0.0839  0.0612 -0.5392
 6641TIP3    H141482   5.020   3.651   7.365  0.3154  0.8398 -1.1830
 6641TIP3    H241483   5.079   3.687   7.500 -0.3887  0.7481 -0.8460
 6642TIP3   OH241484   4.018   1.814   7.672  0.0951 -0.4237  0.3511
 6642TIP3    H141485   4.022   1.757   7.595 -1.1775  1.1709 -0.9571
 6642TIP3    H241486   3.943   1.871   7.656 -0.4718 -0.3052  2.9976
 6643TIP3   OH241487   5.537   3.662   7.398  0.6693  0.2996 -0.7819
 6643TIP3    H141488   5.538   3.586   7.340 -0.0217  1.1935 -2.0364
 6643TIP3    H241489   5.466   3.717   7.363 -0.4857  0.4247  1.5431
 6644TIP3   OH241490   5.378   6.140   0.915  0.1015 -0.0587 -0.2240
 6644TIP3    H141491   5.354   6.211   0.854  0.6633 -1.8121 -2.6402
 6644TIP3    H241492   5.463   6.166   0.950 -0.4176  1.1787  0.2039
 6645TIP3   OH241493   4.936   1.537   1.111  0.2222  0.1367 -0.0373
 6645TIP3    H141494   4.852   1.498   1.086  0.3370  0.0038 -0.2196
 6645TIP3    H241495   4.994   1.520   1.037  0.1777  0.9686 -0.2644
 6646TIP3   OH241496   4.603   2.999   8.850 -0.0449  0.5886  0.6761
 6646TIP3    H141497   4.658   2.958   8.916 -0.4144 -1.0612 -0.0018
 6646TIP3    H241498   4.661   3.058   8.803  0.8697 -0.2989  0.6796
 6647TIP3   OH241499   4.549   3.736   1.963 -0.3334  0.6038  0.0697
 6647TIP3    H141500   4.457   3.730   1.989  0.0788  0.2411  1.4792
 6647TIP3    H241501   4.594   3.669   2.014  0.7469  0.8730 -0.4958
 6648TIP3   OH241502   6.097   1.156   2.646 -0.1548 -0.7187  0.3056
 6648TIP3    H141503   6.173   1.213   2.662  0.4013 -0.0939 -3.4484
 6648TIP3    H241504   6.135   1.070   2.630 -0.5322 -1.0506  1.1681
 6649TIP3   OH241505   5.624   1.685   8.925  0.2877  1.1470  0.3934
 6649TIP3    H141506   5.678   1.607   8.914 -0.2262  0.7124  0.8919
 6649TIP3    H241507   5.671   1.738   8.990  0.6072  1.2296  0.0973
 6650TIP3   OH241508   4.782   5.857   2.819 -0.4106  0.0159  0.1529
 6650TIP3    H141509   4.772   5.767   2.789 -0.3400 -0.0529  0.3392
 6650TIP3    H241510   4.854   5.892   2.767  0.3370 -0.3886  0.8994
 6651TIP3   OH241511   5.979   1.115   2.332 -0.3968  0.5143  0.4383
 6651TIP3    H141512   6.047   1.076   2.277  0.6686  2.0473  0.5962
 6651TIP3    H241513   5.906   1.130   2.273 -1.5170 -3.0177  0.6595
 6652TIP3   OH241514   3.432   5.158   1.854  0.0122 -0.0455  0.4096
 6652TIP3    H141515   3.346   5.192   1.831 -0.3565 -0.7030  0.7683
 6652TIP3    H241516   3.413   5.074   1.897  0.8800 -0.6434 -0.3604
 6653TIP3   OH241517   2.455   4.491   1.500 -0.3545  0.3508 -0.4202
 6653TIP3    H141518   2.527   4.428   1.508 -0.3872  0.2076 -1.2296
 6653TIP3    H241519   2.422   4.479   1.412 -3.0156 -1.3057  0.6783
 6654TIP3   OH241520   5.630   2.169   8.028 -0.4485 -0.1594  0.0473
 6654TIP3    H141521   5.545   2.197   7.996  0.1454 -0.3057 -1.7641
 6654TIP3    H241522   5.669   2.248   8.066 -0.4848  0.4763 -1.1952
 6655TIP3   OH241523   1.852   3.180   7.280  0.2904  0.3502  0.0593
 6655TIP3    H141524   1.836   3.228   7.361 -2.8757 -1.1894  0.4801
 6655TIP3    H241525   1.772   3.130   7.264  2.0195 -2.0422 -2.2357
 6656TIP3   OH241526   4.748   4.577   8.602  0.3212 -0.4526 -0.0656
 6656TIP3    H141527   4.706   4.599   8.685  3.6899  0.8969  1.4656
 6656TIP3    H241528   4.703   4.630   8.536  0.0993  1.5351  1.5895
 6657TIP3   OH241529   4.264   5.686   0.859 -0.5962  0.1155  0.1862
 6657TIP3    H141530   4.308   5.659   0.940 -1.2327 -0.1791  0.4439
 6657TIP3    H241531   4.188   5.736   0.888 -0.8306  0.0085 -0.2299
 6658TIP3   OH241532   1.764   3.951   1.622  0.3170  0.3769  0.2323
 6658TIP3    H141533   1.698   3.937   1.554  1.6825 -0.0147 -1.0616
 6658TIP3    H241534   1.748   3.880   1.685  0.2160 -0.3989 -0.6434
 6659TIP3   OH241535   3.591   4.692   2.458 -0.4427  0.6607 -0.1308
 6659TIP3    H141536   3.501   4.722   2.465 -0.0899  1.9763 -0.8570
 6659TIP3    H241537   3.584   4.597   2.459 -2.0915  0.6588 -2.4397
 6660TIP3   OH241538   3.733   4.263   2.035 -0.3093 -0.4072 -0.8767
 6660TIP3    H141539   3.656   4.319   2.031 -0.0313 -0.0231 -0.9199
 6660TIP3    H241540   3.709   4.185   1.985 -1.0683 -0.7883  0.0435
 6661TIP3   OH241541   0.841   0.393   1.165  0.0322 -0.1945 -0.1163
 6661TIP3    H141542   0.896   0.454   1.214 -0.0723  0.0104 -0.2520
 6661TIP3    H241543   0.874   0.397   1.075 -1.5134  1.5075 -0.6686
 6662TIP3   OH241544   0.574   0.192   2.699  0.1623  0.0362  0.4337
 6662TIP3    H141545   0.590   0.182   2.605 -0.4023 -4.5807  0.6352
 6662TIP3    H241546   0.479   0.184   2.708  0.3248 -0.9231  1.4582
 6663TIP3   OH241547   1.612   6.009   9.055 -0.2129  0.6294  0.1614
 6663TIP3    H141548   1.571   5.992   8.970 -2.0562  1.2972  0.8790
 6663TIP3    H241549   1.656   5.927   9.078 -0.9055 -0.0160 -0.7671
 6664TIP3   OH241550   4.086   1.426   7.372 -0.2616 -0.2961 -0.1632
 6664TIP3    H141551   4.163   1.387   7.415 -1.0484 -1.0985  0.5584
 6664TIP3    H241552   4.051   1.355   7.318 -1.5695 -0.5513  0.9683
 6665TIP3   OH241553   4.604   1.974   7.177  0.1326 -0.7382  0.3125
 6665TIP3    H141554   4.647   1.948   7.095  0.5282 -0.7774  0.5309
 6665TIP3    H241555   4.665   1.947   7.245  0.8675  1.3328  0.5426
 6666TIP3   OH241556   3.789   4.439   1.775 -0.3321 -0.2619 -0.5362
 6666TIP3    H141557   3.768   4.440   1.681 -0.2166  0.8163 -0.5663
 6666TIP3    H241558   3.750   4.357   1.807  0.4587 -1.1366 -1.7023
 6667TIP3   OH241559   6.035   1.861   7.852 -0.0618  0.0529  0.1755
 6667TIP3    H141560   5.949   1.843   7.890 -0.0564 -2.5109 -0.8208
 6667TIP3    H241561   6.015   1.898   7.766 -0.2239 -0.9304 -0.2283
 6668TIP3   OH241562   4.114   2.500   8.316  0.1718 -0.6058  0.2285
 6668TIP3    H141563   4.106   2.531   8.226 -0.1657  0.3071  0.5572
 6668TIP3    H241564   4.156   2.414   8.309  0.7888 -0.2391 -0.7450
 6669TIP3   OH241565   5.452   5.740   1.549  0.0040 -0.1068 -0.1260
 6669TIP3    H141566   5.413   5.665   1.506  0.8272 -1.4504  1.3621
 6669TIP3    H241567   5.533   5.757   1.500 -0.0287 -0.3976 -0.2811
 6670TIP3   OH241568   5.269   1.435   0.346 -0.6580  0.8365 -0.6016
 6670TIP3    H141569   5.347   1.387   0.317 -1.0325  1.4452 -2.7673
 6670TIP3    H241570   5.285   1.525   0.318 -1.0381  1.5411  1.2603
 6671TIP3   OH241571   5.577   4.478   8.219 -1.4120 -0.3681  0.8970
 6671TIP3    H141572   5.490   4.439   8.216 -1.7270  0.3691 -0.4039
 6671TIP3    H241573   5.563   4.570   8.193 -0.2056 -0.3531  0.2076
 6672TIP3   OH241574   0.372   4.139   1.912 -1.5785 -0.3366 -0.5801
 6672TIP3    H141575   0.315   4.157   1.837  0.5776 -2.1627 -2.8775
 6672TIP3    H241576   0.357   4.046   1.930  0.1961 -0.7238 -0.9147
 6673TIP3   OH241577   3.974   1.300   7.999 -0.6793 -0.5204 -0.2382
 6673TIP3    H141578   3.930   1.369   8.047  0.8285 -0.3050  0.9032
 6673TIP3    H241579   4.053   1.342   7.964  0.3775 -1.6844  0.6628
 6674TIP3   OH241580   3.363   4.419   8.243  0.4873  0.1015  0.4985
 6674TIP3    H141581   3.317   4.379   8.317 -0.2886 -0.1636 -0.1051
 6674TIP3    H241582   3.389   4.506   8.273  1.0704 -0.3713  1.4087
 6675TIP3   OH241583   0.443   0.360   7.408  0.1317  0.4471  0.3966
 6675TIP3    H141584   0.402   0.432   7.360  1.2344  0.8093 -0.0203
 6675TIP3    H241585   0.524   0.341   7.361 -0.4995 -1.6228  0.0112
 6676TIP3   OH241586   1.642   2.554   8.041 -0.0926  0.1688 -0.4888
 6676TIP3    H141587   1.590   2.528   7.965 -0.2554 -1.7083  0.1929
 6676TIP3    H241588   1.728   2.515   8.026  0.4775  1.4175 -0.5867
 6677TIP3   OH241589   0.767   1.647   8.224 -0.1301  0.4255 -0.2367
 6677TIP3    H141590   0.752   1.591   8.149  3.9829 -0.5857 -0.5494
 6677TIP3    H241591   0.745   1.593   8.300 -0.6702  0.1073 -0.6161
 6678TIP3   OH241592   1.578   0.272   7.362 -0.0047 -0.1227 -0.1221
 6678TIP3    H141593   1.532   0.240   7.285  2.0717 -0.2271 -1.4078
 6678TIP3    H241594   1.655   0.215   7.369  0.2982  0.4436  1.5150
 6679TIP3   OH241595   4.874   6.035   0.561  0.4744  0.7128 -0.4650
 6679TIP3    H141596   4.893   6.122   0.529  1.6779  0.2645 -1.0055
 6679TIP3    H241597   4.959   5.994   0.575 -0.0522 -0.1390  0.4702
 6680TIP3   OH241598   3.757   1.518   1.728  0.4485 -0.3629 -0.1059
 6680TIP3    H141599   3.734   1.610   1.711 -0.8167 -0.8450 -1.1448
 6680TIP3    H241600   3.696   1.468   1.675  1.7840 -1.8107 -0.3474
 6681TIP3   OH241601   5.601   1.808   0.411 -0.0146  0.1695 -0.5568
 6681TIP3    H141602   5.627   1.735   0.467  2.7345  1.8304  0.5537
 6681TIP3    H241603   5.550   1.865   0.469  0.5452  0.6116 -0.4908
 6682TIP3   OH241604   4.565   6.590   8.084  0.3444 -0.2657  0.0893
 6682TIP3    H141605   4.627   6.557   8.020  0.4068  1.1473 -0.6046
 6682TIP3    H241606   4.538   6.512   8.133  3.0601 -0.8638  0.8105
 6683TIP3   OH241607   0.193   2.532   1.538 -0.1897  0.3047  0.5135
 6683TIP3    H141608   0.153   2.550   1.453 -0.9538  2.0724  1.2022
 6683TIP3    H241609   0.280   2.572   1.532  0.9341 -2.0753 -0.3882
 6684TIP3   OH241610   6.675   5.969   1.610 -0.4791  0.1330 -0.2309
 6684TIP3    H141611   6.591   5.924   1.621  0.3555 -1.5599 -0.6324
 6684TIP3    H241612   6.735   5.925   1.670  0.3583  0.7265 -0.6091
 6685TIP3   OH241613   0.009   5.342   1.905  0.4835 -0.2859 -0.2404
 6685TIP3    H141614   0.004   5.286   1.828  0.7606 -1.8415  0.8076
 6685TIP3    H241615   0.092   5.318   1.946  1.1239  1.6712 -0.2772
 6686TIP3   OH241616   0.799   0.379   8.396  0.3485  0.2430  0.2347
 6686TIP3    H141617   0.784   0.311   8.331  2.8902  0.5498 -0.7499
 6686TIP3    H241618   0.724   0.438   8.387  0.3725 -0.0158 -2.0350
 6687TIP3   OH241619   0.897   2.580   0.998 -0.0015 -0.6466  0.0301
 6687TIP3    H141620   0.905   2.536   1.083 -1.0443 -0.5002  0.2141
 6687TIP3    H241621   0.819   2.634   1.007 -0.4224 -1.0323 -1.2129
 6688TIP3   OH241622   5.995   2.522   1.539  0.4961  0.6265 -0.3233
 6688TIP3    H141623   6.069   2.503   1.596 -0.6149 -1.2242  0.6069
 6688TIP3    H241624   5.941   2.585   1.588 -0.5176 -1.0468  0.8238
 6689TIP3   OH241625   5.532   6.075   8.399 -0.3773  0.3775  0.4596
 6689TIP3    H141626   5.528   6.027   8.316  1.1926 -0.3795  0.7722
 6689TIP3    H241627   5.524   6.007   8.466 -1.4787  0.9650  0.9399
 6690TIP3   OH241628   1.063   0.065   0.340  0.0343  0.9796 -0.1815
 6690TIP3    H141629   1.072  -0.018   0.293  0.9485  0.8288  0.2389
 6690TIP3    H241630   1.020   0.124   0.278 -3.6935 -0.6765  0.5494
 6691TIP3   OH241631   4.062   2.424   2.130 -0.2632 -0.7552 -0.2960
 6691TIP3    H141632   4.089   2.367   2.058  0.4071  1.1987 -1.6625
 6691TIP3    H241633   3.968   2.434   2.118  0.0433  0.6838 -1.8123
 6692TIP3   OH241634   2.559   1.231   1.500 -0.0756 -0.2176  0.5115
 6692TIP3    H141635   2.550   1.318   1.461 -0.1969  0.0444  1.1098
 6692TIP3    H241636   2.651   1.226   1.527  0.0810 -0.5138 -0.0772
 6693TIP3   OH241637   2.542   6.727   8.397 -0.5550  0.9379  0.0102
 6693TIP3    H141638   2.579   6.753   8.313  1.2109 -0.1490  0.4181
 6693TIP3    H241639   2.610   6.745   8.461 -1.9580  1.9860  1.2966
 6694TIP3   OH241640   5.850   1.039   2.599  0.4042 -0.8900  0.3337
 6694TIP3    H141641   5.934   1.057   2.641  0.0697  0.0595  0.6000
 6694TIP3    H241642   5.866   1.055   2.506  0.5954 -1.0042  0.3454
 6695TIP3   OH241643   2.366   2.644   8.608 -0.0746  0.8308 -0.4609
 6695TIP3    H141644   2.381   2.606   8.695  1.1596  1.5699 -0.3301
 6695TIP3    H241645   2.388   2.573   8.548 -3.1090 -0.4543 -0.2110
 6696TIP3   OH241646   3.572   2.882   9.049 -0.0513 -0.2330 -0.6181
 6696TIP3    H141647   3.516   2.863   9.124 -0.3945  1.2395 -0.4690
 6696TIP3    H241648   3.660   2.888   9.086 -0.3577  1.5737 -0.1146
 6697TIP3   OH241649   3.347   5.000   8.955 -0.2991  0.3820  0.1608
 6697TIP3    H141650   3.440   4.981   8.946 -0.2314  0.3077  0.9973
 6697TIP3    H241651   3.342   5.065   9.025 -0.9683 -0.4577  0.9114
 6698TIP3   OH241652   3.185   5.670   1.436  0.2355 -0.2213  0.8539
 6698TIP3    H141653   3.096   5.638   1.427  0.9290 -2.3196  0.8084
 6698TIP3    H241654   3.231   5.598   1.480  2.4546 -0.2601 -1.3132
 6699TIP3   OH241655   3.757   3.543   2.312 -0.1345 -0.4178  0.0289
 6699TIP3    H141656   3.766   3.479   2.383  0.7460 -0.4311 -0.0861
 6699TIP3    H241657   3.846   3.576   2.298 -0.5288  0.5989 -0.1352
 6700TIP3   OH241658   0.509   4.177   0.021  0.1150 -0.4186 -0.5004
 6700TIP3    H141659   0.524   4.271   0.020 -1.6165 -0.0880  0.9881
 6700TIP3    H241660   0.524   4.150   0.111 -2.2800 -0.9961 -0.1887
 6701TIP3   OH241661   5.106   1.207   1.521  0.0826  0.0244  0.6447
 6701TIP3    H141662   5.083   1.288   1.476  0.3547 -0.5222 -0.5415
 6701TIP3    H241663   5.096   1.139   1.454  3.3817 -0.4976  0.4789
 6702TIP3   OH241664   4.901   2.493   8.595  0.3463 -0.2890 -0.0473
 6702TIP3    H141665   4.823   2.537   8.560 -0.5492 -0.3896  1.7389
 6702TIP3    H241666   4.931   2.438   8.523  0.4773  1.8711 -1.7583
 6703TIP3   OH241667   0.411   4.232   8.745 -0.1107 -0.2843 -0.3881
 6703TIP3    H141668   0.485   4.273   8.789  0.9147 -0.7081 -1.6375
 6703TIP3    H241669   0.334   4.271   8.784  0.7878  0.4157  0.7156
 6704TIP3   OH241670   3.436   1.876   0.037  0.2563 -0.5049 -0.6456
 6704TIP3    H141671   3.491   1.812   0.081  0.1433  0.2832  0.7123
 6704TIP3    H241672   3.346   1.852   0.061  0.2077  0.0825 -0.2032
 6705TIP3   OH241673   5.812   0.695   1.635  0.0661  0.2804  0.2647
 6705TIP3    H141674   5.826   0.732   1.547  0.4981 -1.6903 -0.5562
 6705TIP3    H241675   5.900   0.695   1.674 -0.1464  1.2721  0.7795
 6706TIP3   OH241676   5.566   0.346   1.938  0.1330 -0.8898 -0.4641
 6706TIP3    H141677   5.658   0.356   1.913 -0.5725 -1.2110 -3.5945
 6706TIP3    H241678   5.552   0.251   1.935 -0.2395 -0.8716  0.4238
 6707TIP3   OH241679   5.878   2.156   8.386  0.4555 -0.0693 -0.1993
 6707TIP3    H141680   5.931   2.226   8.348  0.6315  0.0527  0.2624
 6707TIP3    H241681   5.788   2.188   8.379  0.3535 -0.5819 -1.6389
 6708TIP3   OH241682   5.558   1.287   0.765  0.3477 -0.2872 -0.1026
 6708TIP3    H141683   5.580   1.206   0.811 -0.7679 -0.9812 -0.7534
 6708TIP3    H241684   5.631   1.301   0.704 -0.2937 -1.8189 -1.2814
 6709TIP3   OH241685   6.006   0.924   7.572  0.1968  0.3756 -0.1603
 6709TIP3    H141686   6.011   0.917   7.477  1.5626 -0.9546 -0.0287
 6709TIP3    H241687   5.971   1.012   7.588 -0.9162  0.2840 -1.8798
 6710TIP3   OH241688   1.584   3.976   1.934 -0.1771 -0.2670 -0.2716
 6710TIP3    H141689   1.517   4.013   1.991 -1.5722 -0.6818 -1.5399
 6710TIP3    H241690   1.534   3.928   1.867  1.3158  0.7027 -2.1929
 6711TIP3   OH241691   5.354   1.106   0.535  0.3612  0.1181 -0.2522
 6711TIP3    H141692   5.393   1.171   0.475  0.7989  0.6249  0.5540
 6711TIP3    H241693   5.357   1.024   0.487  0.3031  0.5957 -1.0924
 6712TIP3   OH241694   2.194   2.859   6.964  0.1021 -0.4333 -0.3507
 6712TIP3    H141695   2.161   2.769   6.971 -0.4021 -0.3805 -1.7212
 6712TIP3    H241696   2.278   2.849   6.920 -0.5983 -0.1507 -1.8140
 6713TIP3   OH241697   3.041   6.320   0.642 -0.2067  0.5351  0.2667
 6713TIP3    H141698   3.083   6.357   0.563 -2.4924  0.5804 -1.0078
 6713TIP3    H241699   3.022   6.396   0.696  0.2042  0.6367  0.2747
 6714TIP3   OH241700   2.090   0.163   0.946 -0.7492  0.5415 -0.0940
 6714TIP3    H141701   2.168   0.217   0.938 -0.2586  0.1259  1.5010
 6714TIP3    H241702   2.118   0.075   0.923 -1.0932  0.6369 -0.8849
 6715TIP3   OH241703   2.893   6.377   7.941  0.1005 -0.2946  0.0553
 6715TIP3    H141704   2.921   6.443   7.878  0.4780 -0.1254  0.3978
 6715TIP3    H241705   2.800   6.367   7.925 -0.5432  2.1807  1.6889
 6716TIP3   OH241706   1.228   2.677   1.192  0.3434 -0.0974 -0.4143
 6716TIP3    H141707   1.322   2.687   1.205  0.6227 -0.0360 -2.3220
 6716TIP3    H241708   1.215   2.681   1.098 -1.5842 -0.1080 -0.1986
 6717TIP3   OH241709   1.881   3.014   7.789  0.2940  0.1711 -0.7943
 6717TIP3    H141710   1.910   3.094   7.833  0.1975 -0.1088 -0.2217
 6717TIP3    H241711   1.962   2.966   7.771  0.2183 -0.5565  0.7022
 6718TIP3   OH241712   4.485   6.538   0.757  0.2065 -0.0434 -0.1948
 6718TIP3    H141713   4.393   6.561   0.744 -0.4397 -2.2691  0.0871
 6718TIP3    H241714   4.497   6.539   0.852  0.6174  0.6824 -0.2452
 6719TIP3   OH241715   0.194   5.808   2.040 -0.5925  0.2634  0.3971
 6719TIP3    H141716   0.219   5.716   2.038 -0.0524  0.4082 -2.3253
 6719TIP3    H241717   0.142   5.816   2.121  0.8355 -1.9700  1.6513
 6720TIP3   OH241718   1.746   5.440   2.629  0.1374  0.0462  0.0538
 6720TIP3    H141719   1.695   5.492   2.567  0.2249  1.0817  0.8287
 6720TIP3    H241720   1.767   5.501   2.700 -0.7363 -1.3362  1.5680
 6721TIP3   OH241721   4.926   2.414   8.176 -0.2690 -0.2130 -0.1483
 6721TIP3    H141722   4.862   2.470   8.220 -0.6256  1.1808 -2.2630
 6721TIP3    H241723   4.912   2.327   8.214 -1.3690  0.6321  1.5254
 6722TIP3   OH241724   1.593   1.365   1.308 -0.8373 -0.4230 -0.8765
 6722TIP3    H141725   1.497   1.359   1.308 -0.8387 -0.4866 -0.1367
 6722TIP3    H241726   1.612   1.450   1.267 -1.3551  1.2713  2.0767
 6723TIP3   OH241727   2.983   6.503   0.856  0.0607  0.2316 -0.0000
 6723TIP3    H141728   3.046   6.561   0.814  0.3457 -0.0596  0.0263
 6723TIP3    H241729   3.012   6.499   0.948  2.1362 -2.6781 -0.6361
 6724TIP3   OH241730   5.859   1.364   7.847  0.0621  0.3971 -0.0121
 6724TIP3    H141731   5.925   1.433   7.851  0.3753  0.2536 -1.7061
 6724TIP3    H241732   5.782   1.407   7.810 -0.0814  0.0822 -0.0784
 6725TIP3   OH241733   6.600   6.639   1.380  0.6074  0.1293 -0.6486
 6725TIP3    H141734   6.644   6.644   1.295  1.1617  2.4340 -0.2941
 6725TIP3    H241735   6.625   6.720   1.425 -0.2516 -0.6983  1.4399
 6726TIP3   OH241736   0.114   5.038   0.261 -0.0309 -0.2253 -0.3252
 6726TIP3    H141737   0.028   4.997   0.259  0.2296 -0.8750  0.7716
 6726TIP3    H241738   0.171   4.971   0.300  0.7948  0.4961 -0.2626
 6727TIP3   OH241739   1.147   6.688   8.296  0.0626  0.3054 -0.0635
 6727TIP3    H141740   1.231   6.713   8.334  0.0186 -0.1381  0.3295
 6727TIP3    H241741   1.170   6.638   8.217  0.1670  0.0828  0.1094
 6728TIP3   OH241742   5.645   1.294   8.588  0.7793  0.6280 -0.0542
 6728TIP3    H141743   5.612   1.381   8.567 -0.8993 -0.2461 -1.3776
 6728TIP3    H241744   5.611   1.276   8.675  0.1872  0.8824 -0.2246
 6729TIP3   OH241745   5.968   5.040   7.304  0.2000  0.5025  0.1435
 6729TIP3    H141746   5.989   4.980   7.375 -2.2543 -0.5957  0.0526
 6729TIP3    H241747   5.872   5.042   7.301  0.2064  1.8006 -2.0630
 6730TIP3   OH241748   3.878   3.006   7.305  0.2657  0.0264 -0.2091
 6730TIP3    H141749   3.850   3.064   7.376  0.0816 -0.4514  0.1199
 6730TIP3    H241750   3.889   3.063   7.230  1.0884  0.6444  0.3610
 6731TIP3   OH241751   5.499   0.433   0.091 -0.2177  0.4600 -0.1884
 6731TIP3    H141752   5.537   0.352   0.058 -0.3820  0.7862 -1.1920
 6731TIP3    H241753   5.412   0.437   0.052 -0.8050  0.3826  1.0447
 6732TIP3   OH241754   5.693   1.811   1.177  0.2727  0.3736  0.7875
 6732TIP3    H141755   5.745   1.799   1.256 -0.2749  0.2011  1.1300
 6732TIP3    H241756   5.705   1.903   1.153  2.5816 -0.1839 -0.4707
 6733TIP3   OH241757   0.745   2.902   0.525  0.2516  0.2376 -0.0751
 6733TIP3    H141758   0.768   2.826   0.471  2.0353  1.4815 -1.1709
 6733TIP3    H241759   0.655   2.923   0.500 -0.6592 -2.0674  0.9916
 6734TIP3   OH241760   2.715   4.668   7.647 -0.4238 -0.0962 -0.5438
 6734TIP3    H141761   2.745   4.673   7.738 -0.7289  1.0898 -0.4863
 6734TIP3    H241762   2.781   4.614   7.603  1.7546  2.2238 -0.3681
 6735TIP3   OH241763   4.408   6.312   7.387  0.3823 -0.1196  0.4849
 6735TIP3    H141764   4.315   6.334   7.380  0.6617  1.0146  0.0679
 6735TIP3    H241765   4.426   6.259   7.310  0.4933  1.3074 -0.5208
 6736TIP3   OH241766   2.542   5.349   2.216  0.0546 -0.4376 -0.0004
 6736TIP3    H141767   2.471   5.413   2.223 -0.2502 -0.8683  1.1976
 6736TIP3    H241768   2.514   5.290   2.146  0.8715  1.3283 -1.9414
 6737TIP3   OH241769   5.389   5.823   2.674 -0.3730 -0.2426 -0.5367
 6737TIP3    H141770   5.379   5.890   2.742 -0.8080 -0.3574 -0.4853
 6737TIP3    H241771   5.483   5.816   2.661 -0.2039 -0.9932  0.8312
 6738TIP3   OH241772   6.024   1.165   1.126  0.2612  0.1236  0.3870
 6738TIP3    H141773   6.075   1.230   1.077 -1.3474  1.9968  1.1040
 6738TIP3    H241774   5.977   1.116   1.058  2.3767 -1.1781 -0.2398
 6739TIP3   OH241775   3.971   5.623   9.106 -0.0666  0.3131 -0.1387
 6739TIP3    H141776   3.905   5.692   9.102 -0.0693  0.2875 -0.6604
 6739TIP3    H241777   3.996   5.609   9.014  0.8896  0.5423  0.0736
 6740TIP3   OH241778   5.968   2.285   2.378 -0.4933 -0.1635 -0.3796
 6740TIP3    H141779   5.938   2.230   2.450 -0.8206 -0.2010 -0.5423
 6740TIP3    H241780   5.918   2.366   2.387 -0.1783  0.0206 -0.2758
 6741TIP3   OH241781   3.017   5.874   8.774  0.2944  0.9210 -0.1295
 6741TIP3    H141782   2.924   5.884   8.798  0.4458 -0.6254  1.3393
 6741TIP3    H241783   3.062   5.863   8.858  2.0319  2.9467 -0.7363
 6742TIP3   OH241784   1.940   1.543   0.254  0.0542 -0.9599 -0.6499
 6742TIP3    H141785   1.990   1.615   0.216 -1.7066  0.2813 -0.7260
 6742TIP3    H241786   1.876   1.519   0.187 -1.6949 -0.1699  0.6488
 6743TIP3   OH241787   5.389   1.426   2.018  0.0131  0.5330  0.0531
 6743TIP3    H141788   5.362   1.335   2.023  2.2649 -0.1911  0.0867
 6743TIP3    H241789   5.323   1.474   2.069 -0.4422 -1.2422  1.1999
 6744TIP3   OH241790   2.163   0.667   7.510  0.5182 -0.0190  0.3376
 6744TIP3    H141791   2.068   0.657   7.516  0.3223  1.4542  0.2166
 6744TIP3    H241792   2.179   0.757   7.540  1.7646  0.0927 -0.5768
 6745TIP3   OH241793   0.032   1.879   0.303  0.4198  0.0298  0.1293
 6745TIP3    H141794   0.094   1.811   0.329  0.9087  0.0587 -0.9408
 6745TIP3    H241795   0.048   1.950   0.365  1.0777 -0.1781  0.2051
 6746TIP3   OH241796   2.596   0.947   8.052 -0.5186  0.1723  0.6650
 6746TIP3    H141797   2.651   0.927   7.976  1.9207 -1.3567  2.6519
 6746TIP3    H241798   2.658   0.980   8.117 -2.2804  0.0197  2.4939
 6747TIP3   OH241799   0.791   0.779   1.083  0.3982  0.2249  0.0960
 6747TIP3    H141800   0.870   0.734   1.054 -0.2159 -0.5147 -0.4592
 6747TIP3    H241801   0.767   0.835   1.009  0.7627  0.9461  0.5146
 6748TIP3   OH241802   0.130   4.781   0.940  0.4489 -0.1406 -0.0470
 6748TIP3    H141803   0.121   4.785   1.035 -0.1445 -0.0426 -0.1024
 6748TIP3    H241804   0.178   4.860   0.917 -1.9163  1.3681 -0.0969
 6749TIP3   OH241805   5.174   5.495   7.338  0.2082  0.1757  0.4043
 6749TIP3    H141806   5.167   5.402   7.357  0.0240  0.3604  1.2777
 6749TIP3    H241807   5.267   5.515   7.350  0.3847 -0.0409 -0.5215
 6750TIP3   OH241808   1.581   6.209   0.355  0.0106 -0.3273 -0.4511
 6750TIP3    H141809   1.554   6.202   0.263 -2.8186 -1.9599  0.3617
 6750TIP3    H241810   1.545   6.130   0.396  2.4702 -0.3989  1.8211
 6751TIP3   OH241811   0.151   6.257   2.051 -0.3760  0.4073  0.3749
 6751TIP3    H141812   0.082   6.322   2.066 -0.6156  0.4541 -0.8007
 6751TIP3    H241813   0.125   6.183   2.105 -1.9914 -0.0001 -0.8551
 6752TIP3   OH241814   4.773   5.721   8.629 -0.5957 -0.0000 -0.2390
 6752TIP3    H141815   4.679   5.738   8.623 -0.2717  1.4991 -1.5144
 6752TIP3    H241816   4.790   5.715   8.723 -1.9754 -0.4403  0.0077
 6753TIP3   OH241817   2.317   3.220   7.755 -0.4570 -0.3649  0.1041
 6753TIP3    H141818   2.361   3.265   7.828  0.9997  0.8760 -1.4556
 6753TIP3    H241819   2.389   3.190   7.699 -1.3870 -3.9655  0.5754
 6754TIP3   OH241820   6.505   5.536   0.373  0.2456  0.0742 -0.0479
 6754TIP3    H141821   6.427   5.506   0.419  0.8257  0.9847  1.6188
 6754TIP3    H241822   6.578   5.500   0.423  0.8983  0.9801 -0.3215
 6755TIP3   OH241823   0.337   5.433   7.802 -0.2066  0.0422  0.0209
 6755TIP3    H141824   0.288   5.363   7.846 -0.4102  0.2055  0.0581
 6755TIP3    H241825   0.269   5.489   7.765 -0.2104  2.3626  3.1817
 6756TIP3   OH241826   3.639   3.420   0.424 -0.1569  0.2298  0.8368
 6756TIP3    H141827   3.706   3.409   0.356 -0.8322 -0.0385  0.2040
 6756TIP3    H241828   3.677   3.484   0.484  0.3618  0.6591  0.0738
 6757TIP3   OH241829   2.925   0.603   1.570  0.2446 -0.2949  0.2246
 6757TIP3    H141830   2.954   0.527   1.622  0.7561  0.3224  0.8697
 6757TIP3    H241831   2.831   0.607   1.584  0.3078 -0.4270  0.7263
 6758TIP3   OH241832   0.136   0.970   8.699 -0.2860 -0.4006 -0.1520
 6758TIP3    H141833   0.057   0.917   8.687 -1.8110  1.1243  2.2288
 6758TIP3    H241834   0.196   0.913   8.747 -2.3593  0.1910  3.4922
 6759TIP3   OH241835   0.752   1.579   8.525  0.2334  0.2990 -0.0111
 6759TIP3    H141836   0.825   1.634   8.553 -0.8471  0.9505  1.6898
 6759TIP3    H241837   0.675   1.618   8.566 -0.7666 -1.7118  0.1891
 6760TIP3   OH241838   3.768   4.207   0.489 -0.7034 -0.5941  0.1823
 6760TIP3    H141839   3.766   4.115   0.465 -0.1629 -0.5156 -0.1745
 6760TIP3    H241840   3.759   4.208   0.584 -1.5706 -0.9680  0.1160
 6761TIP3   OH241841   6.184   5.153   2.281 -0.6320 -0.4458  0.0649
 6761TIP3    H141842   6.171   5.059   2.288  0.4446 -0.5377  1.0771
 6761TIP3    H241843   6.277   5.163   2.261 -0.6341  0.4238  0.4519
 6762TIP3   OH241844   4.380   0.223   1.249 -0.6209 -0.1871  0.1402
 6762TIP3    H141845   4.418   0.135   1.250  2.5997  1.0798  0.9964
 6762TIP3    H241846   4.387   0.253   1.340 -2.8148  0.5659  0.1195
 6763TIP3   OH241847   6.635   4.748   2.844 -0.3591 -0.0881 -0.6003
 6763TIP3    H141848   6.699   4.681   2.867  0.2684  0.8280  0.3919
 6763TIP3    H241849   6.558   4.699   2.814 -0.0316 -1.2529  0.4169
 6764TIP3   OH241850   2.904   2.010   8.834 -0.2785 -0.2220  0.4000
 6764TIP3    H141851   2.865   2.097   8.824 -0.0019  0.0420  1.4705
 6764TIP3    H241852   2.981   2.024   8.889  0.9114 -0.8543 -1.0348
 6765TIP3   OH241853   1.785   0.962   7.925  0.5468 -0.9362 -0.4158
 6765TIP3    H141854   1.848   0.928   7.862  0.9531  1.4561 -1.4215
 6765TIP3    H241855   1.709   0.905   7.917  1.3079 -1.8065 -1.6974
 6766TIP3   OH241856   4.364   6.505   0.061 -0.0970  0.6730  0.2186
 6766TIP3    H141857   4.422   6.516   0.137 -0.8320 -0.6967  0.9962
 6766TIP3    H241858   4.401   6.431   0.014 -0.0227  1.1154 -0.4324
 6767TIP3   OH241859   2.961   0.286   2.605 -0.4420 -0.1151 -0.0884
 6767TIP3    H141860   2.878   0.291   2.654 -1.2582  0.7663 -1.4859
 6767TIP3    H241861   3.014   0.224   2.654 -2.4684 -1.8359  0.0645
 6768TIP3   OH241862   4.291   4.578   1.668  0.4580 -0.4010  0.0164
 6768TIP3    H141863   4.316   4.620   1.750  2.5104  1.2661 -1.3615
 6768TIP3    H241864   4.249   4.647   1.617  2.3795 -0.3846 -1.6505
 6769TIP3   OH241865   6.231   1.900   0.789 -0.1373  0.0563 -0.0059
 6769TIP3    H141866   6.259   1.943   0.870  1.9090 -1.6025  0.2437
 6769TIP3    H241867   6.310   1.858   0.756 -1.3721 -0.9315 -1.8495
 6770TIP3   OH241868   1.488   3.455   7.216 -0.0891  0.0419 -0.4886
 6770TIP3    H141869   1.569   3.501   7.194 -0.4979  0.8083 -0.4117
 6770TIP3    H241870   1.505   3.364   7.192  1.7442 -0.3347  1.8926
 6771TIP3   OH241871   2.257   6.684   0.884  0.2259 -0.3507  0.4105
 6771TIP3    H141872   2.257   6.637   0.801 -0.9560 -0.5756  0.5299
 6771TIP3    H241873   2.320   6.755   0.871  0.1846 -0.4865 -0.6125
 6772TIP3   OH241874   5.595   4.713   8.499  0.7768  0.1731  0.1859
 6772TIP3    H141875   5.518   4.747   8.545  1.8387  2.2695  0.5239
 6772TIP3    H241876   5.616   4.780   8.434  1.5712 -0.9668 -0.7897
 6773TIP3   OH241877   4.899   3.692   2.557  0.4036 -0.4190  0.1581
 6773TIP3    H141878   4.848   3.734   2.626 -0.8176  0.3442 -1.1444
 6773TIP3    H241879   4.833   3.653   2.499  1.4655 -3.1404  0.6696
 6774TIP3   OH241880   2.283   5.029   1.429  0.0195  0.6644 -0.1429
 6774TIP3    H141881   2.308   5.084   1.503  0.0552 -1.3340  1.4150
 6774TIP3    H241882   2.263   4.944   1.468 -1.7699  0.0472 -2.2407
 6775TIP3   OH241883   3.577   6.383   8.173 -0.4733  0.0311  0.3000
 6775TIP3    H141884   3.655   6.436   8.163 -1.3386  1.5864  1.3853
 6775TIP3    H241885   3.504   6.443   8.158 -1.4834 -1.0992  0.4666
 6776TIP3   OH241886   6.022   6.311   8.105 -0.3709  0.0053  0.3433
 6776TIP3    H141887   6.058   6.235   8.151 -0.7124  0.3867  1.2701
 6776TIP3    H241888   6.095   6.346   8.054 -0.0278 -0.5224  0.4705
 6777TIP3   OH241889   4.361   6.162   8.992  0.0241  0.8383 -0.3225
 6777TIP3    H141890   4.406   6.218   9.055 -1.2923 -0.2945  1.7435
 6777TIP3    H241891   4.411   6.080   8.993 -0.6082  0.4517  0.0691
 6778TIP3   OH241892   6.648   4.353   8.888  0.0724  0.5498 -0.3309
 6778TIP3    H141893   6.642   4.268   8.931 -0.2640  0.2652 -0.9248
 6778TIP3    H241894   6.577   4.404   8.927  0.2642  0.5545  0.0155
 6779TIP3   OH241895   6.312   5.689   2.582 -0.5492  0.1940 -0.4021
 6779TIP3    H141896   6.342   5.605   2.616 -2.2054 -0.5821 -0.7283
 6779TIP3    H241897   6.236   5.710   2.636 -1.0030  0.7700 -1.2385
 6780TIP3   OH241898   5.059   2.057   0.782 -0.1835 -0.0905 -1.4296
 6780TIP3    H141899   5.017   2.003   0.849 -1.3476  0.2234 -1.8833
 6780TIP3    H241900   5.128   2.002   0.747  0.9137 -0.0354  0.4689
 6781TIP3   OH241901   5.450   3.660   8.420 -0.3281  0.1760 -0.0612
 6781TIP3    H141902   5.538   3.689   8.442 -0.3714 -0.8055  1.4794
 6781TIP3    H241903   5.419   3.614   8.498 -0.8171 -2.7568 -1.8635
 6782TIP3   OH241904   4.832   4.485   1.955  0.0877 -0.2158  0.2573
 6782TIP3    H141905   4.872   4.426   1.891  1.4163  0.6159  0.2809
 6782TIP3    H241906   4.898   4.552   1.971 -1.4583  1.4466  0.0383
 6783TIP3   OH241907   6.542   2.368   1.641 -0.3097 -0.1657  0.0132
 6783TIP3    H141908   6.586   2.310   1.580  1.2642  1.9106 -0.9812
 6783TIP3    H241909   6.557   2.329   1.727  1.3798 -0.8370 -0.5433
 6784TIP3   OH241910   3.529   5.426   8.392  0.1409 -0.2578 -0.1889
 6784TIP3    H141911   3.569   5.339   8.385  0.5250 -0.2344  1.3222
 6784TIP3    H241912   3.500   5.432   8.483 -1.1871  0.6527 -0.6426
 6785TIP3   OH241913   5.983   1.632   8.950 -0.0195  0.5733 -0.9111
 6785TIP3    H141914   5.967   1.708   9.006  1.5979  0.5965 -0.4410
 6785TIP3    H241915   5.955   1.557   9.002  0.5733  0.6707 -0.4507
 6786TIP3   OH241916   6.370   5.454   2.700  0.2195  0.3168  0.1192
 6786TIP3    H141917   6.398   5.411   2.780 -0.7748 -2.1657 -0.7762
 6786TIP3    H241918   6.403   5.398   2.630 -3.9855 -1.0563 -1.0392
 6787TIP3   OH241919   6.318   5.993   1.910  0.0181 -0.2439 -0.0106
 6787TIP3    H141920   6.401   5.990   1.957 -0.3162 -0.1959  0.5879
 6787TIP3    H241921   6.309   5.905   1.873  0.7187 -0.0167 -0.7711
 6788TIP3   OH241922   0.819   5.008   8.870  0.3542  0.6055  0.1670
 6788TIP3    H141923   0.896   5.060   8.849  1.3392 -0.2941  1.4073
 6788TIP3    H241924   0.843   4.918   8.845 -0.8245  0.5229 -0.7355
 6789TIP3   OH241925   1.143   5.772   8.894 -0.7124  0.4710  0.6805
 6789TIP3    H141926   1.138   5.820   8.811  0.9346 -1.3689 -0.5776
 6789TIP3    H241927   1.230   5.792   8.928 -0.1511 -1.2227  0.3351
 6790TIP3   OH241928   3.750   4.424   7.878 -0.5169  0.7988 -0.0476
 6790TIP3    H141929   3.777   4.510   7.845  2.1599 -0.2387 -0.7633
 6790TIP3    H241930   3.749   4.434   7.973  0.4223  1.4421 -0.0957
 6791TIP3   OH241931   6.290   2.492   1.579 -0.1256 -0.2601  0.2428
 6791TIP3    H141932   6.317   2.580   1.554  0.0802  0.2476  2.0972
 6791TIP3    H241933   6.372   2.443   1.590 -0.2236 -0.5618 -0.3151
 6792TIP3   OH241934   1.503   4.641   7.733  0.3147  0.4589 -1.1869
 6792TIP3    H141935   1.526   4.573   7.670 -1.4205 -0.3109 -1.0250
 6792TIP3    H241936   1.410   4.656   7.720 -0.2756 -0.2430  1.6708
 6793TIP3   OH241937   0.671   4.994   1.820  0.0714 -0.1656  0.0868
 6793TIP3    H141938   0.635   4.998   1.731  1.3699  0.6633 -0.4370
 6793TIP3    H241939   0.595   5.002   1.877 -0.6513  0.8494 -0.9673
 6794TIP3   OH241940   4.821   4.790   2.078  0.6166  0.4034  0.2192
 6794TIP3    H141941   4.888   4.827   2.021  0.2176 -1.4915 -1.6240
 6794TIP3    H241942   4.747   4.850   2.070  0.6522  0.3112 -1.1352
 6795TIP3   OH241943   4.485   0.540   2.684 -0.0279 -0.2129 -0.6425
 6795TIP3    H141944   4.566   0.577   2.651  0.5216 -2.2058 -1.6916
 6795TIP3    H241945   4.485   0.561   2.778 -0.3233  3.2659 -1.2697
 6796TIP3   OH241946   2.989   3.226   7.480  0.0870 -0.2981  0.5379
 6796TIP3    H141947   2.965   3.270   7.398  1.0548  0.2390  0.5179
 6796TIP3    H241948   2.979   3.133   7.461  0.5936 -0.1994 -0.3154
 6797TIP3   OH241949   5.286   0.344   1.900  0.2198 -0.0491 -0.0552
 6797TIP3    H141950   5.369   0.349   1.947  0.0829 -1.6004  0.3930
 6797TIP3    H241951   5.305   0.291   1.823  0.0974  1.2771 -1.0325
 6798TIP3   OH241952   6.297   5.832   7.152  0.5585 -0.0826 -0.1124
 6798TIP3    H141953   6.333   5.760   7.099  1.2173  0.9329 -1.0816
 6798TIP3    H241954   6.230   5.871   7.096 -1.2810 -1.1878  1.2023
 6799TIP3   OH241955   6.010   2.958   0.636 -0.3478  0.0273 -0.3927
 6799TIP3    H141956   5.988   2.872   0.598  2.0316 -0.4876 -0.7192
 6799TIP3    H241957   6.093   2.981   0.595  0.0801  1.5428  1.2562
 6800TIP3   OH241958   6.173   2.476   1.941 -0.2140 -0.6830 -0.3115
 6800TIP3    H141959   6.194   2.442   2.028 -0.1195  0.3944  0.1112
 6800TIP3    H241960   6.258   2.496   1.901 -0.2801  1.6574  0.5613
 6801TIP3   OH241961   0.895   6.216   0.668  0.2855 -0.4139 -0.1239
 6801TIP3    H141962   0.803   6.224   0.643  0.2304 -0.1757  0.1453
 6801TIP3    H241963   0.930   6.305   0.662 -0.2237  0.0517  2.5059
 6802TIP3   OH241964   1.599   5.224   7.927  0.1365 -0.0038 -0.1019
 6802TIP3    H141965   1.632   5.243   8.015  0.6907  1.0060 -0.5137
 6802TIP3    H241966   1.573   5.309   7.892  1.1757 -0.1862 -1.4068
 6803TIP3   OH241967   5.007   0.546   0.606  0.1193  0.0434  0.5247
 6803TIP3    H141968   4.966   0.488   0.670  0.1099  0.3818  0.8277
 6803TIP3    H241969   5.078   0.494   0.568 -0.2299 -0.3482  0.4078
 6804TIP3   OH241970   5.189   1.961   7.757  0.1073 -0.1382 -0.1522
 6804TIP3    H141971   5.176   2.034   7.697 -0.3338  1.0012  1.2508
 6804TIP3    H241972   5.219   1.889   7.702 -0.6946  0.7145 -1.7732
 6805TIP3   OH241973   2.253   1.732   7.300  0.2015 -0.6764 -0.8281
 6805TIP3    H141974   2.168   1.700   7.331  0.3687 -1.7745 -1.4736
 6805TIP3    H241975   2.232   1.813   7.252 -0.5809 -1.3145 -1.5934
 6806TIP3   OH241976   2.240   1.373   2.133 -0.0624  0.1873  0.4270
 6806TIP3    H141977   2.320   1.351   2.180 -0.5046 -3.2735 -0.1827
 6806TIP3    H241978   2.181   1.300   2.150 -2.3460  1.6300 -0.8179
 6807TIP3   OH241979   3.248   4.699   0.498 -0.2618  0.4405 -0.2155
 6807TIP3    H141980   3.212   4.708   0.409  1.7590 -2.4241 -1.4514
 6807TIP3    H241981   3.330   4.652   0.486 -1.2872 -2.7191  3.3928
 6808TIP3   OH241982   5.089   2.791   8.176 -0.6316 -0.8211 -0.1032
 6808TIP3    H141983   5.164   2.837   8.138  0.5337 -1.6656  1.0527
 6808TIP3    H241984   5.122   2.757   8.260 -2.4987 -0.7048  0.7287
 6809TIP3   OH241985   0.065   0.671   2.699  0.1952  0.1275 -0.2334
 6809TIP3    H141986   0.123   0.693   2.772 -1.2701  0.7178  0.7964
 6809TIP3    H241987   0.026   0.587   2.723  0.1643  0.0220 -0.6368
 6810TIP3   OH241988   1.118   6.723   7.876  0.1959 -0.0605 -0.0481
 6810TIP3    H141989   1.087   6.699   7.788 -1.5828  0.3965  0.4109
 6810TIP3    H241990   1.204   6.761   7.861 -0.0552 -0.0164 -1.5968
 6811TIP3   OH241991   1.267   3.990   7.208  0.0250 -0.4050  0.1140
 6811TIP3    H141992   1.297   4.030   7.290 -0.3012  0.9095 -0.3881
 6811TIP3    H241993   1.334   3.924   7.188  0.4996 -0.2200  1.0500
 6812TIP3   OH241994   0.574   2.657   0.404  0.0584 -0.3161  0.3828
 6812TIP3    H141995   0.659   2.618   0.425 -0.4952 -1.3140  0.8756
 6812TIP3    H241996   0.528   2.663   0.488 -0.4934 -0.1473  0.0767
 6813TIP3   OH241997   0.963   2.164   1.051  0.2643  0.3525 -0.4483
 6813TIP3    H141998   0.886   2.213   1.022 -0.0828 -0.3178 -0.7016
 6813TIP3    H241999   1.036   2.224   1.040 -0.0601  0.5879 -1.3563
 6814TIP3   OH242000   0.540   4.677   0.643 -0.1501  0.0380  0.1274
 6814TIP3    H142001   0.606   4.712   0.702 -1.3420  2.0120  0.3543
 6814TIP3    H242002   0.565   4.710   0.557 -0.4655  0.2457  0.1140
 6815TIP3   OH242003   2.098   3.969   8.346  0.0534 -0.0731 -0.7283
 6815TIP3    H142004   2.043   3.904   8.302  0.1490 -1.1076  0.6083
 6815TIP3    H242005   2.188   3.939   8.329  0.1363  0.3733 -1.0820
 6816TIP3   OH242006   2.115   2.101   2.419  0.0578  0.7302 -0.2795
 6816TIP3    H142007   2.106   2.073   2.510 -2.3760 -2.0096 -1.1841
 6816TIP3    H242008   2.208   2.088   2.399  0.0485 -1.8716  0.9524
 6817TIP3   OH242009   0.402   5.838   0.480  0.6711 -0.1712  0.5219
 6817TIP3    H142010   0.370   5.845   0.390  1.5717  0.4842  0.2352
 6817TIP3    H242011   0.323   5.840   0.534  0.0160 -2.0564 -0.3037
 6818TIP3   OH242012   4.093   1.740   8.509  0.1433 -0.5752  0.4660
 6818TIP3    H142013   4.132   1.766   8.592  0.5750 -1.0365  0.4146
 6818TIP3    H242014   4.139   1.793   8.444 -0.8937  0.5263  0.5956
 6819TIP3   OH242015   5.952   1.605   1.483 -0.2017 -0.1840 -0.7315
 6819TIP3    H142016   5.890   1.594   1.555  2.6933  3.3538  2.7985
 6819TIP3    H242017   5.936   1.695   1.452  1.3488 -0.1848 -1.6164
 6820TIP3   OH242018   3.359   6.614   8.074 -0.1592  0.3890 -0.0759
 6820TIP3    H142019   3.363   6.658   8.159  0.5580  1.3238 -0.5758
 6820TIP3    H242020   3.265   6.608   8.054 -0.2998  0.8269  0.4429
 6821TIP3   OH242021   5.104   4.712   0.941 -0.0139 -0.1961 -0.0700
 6821TIP3    H142022   5.030   4.694   0.882 -0.9809 -0.5324  1.1979
 6821TIP3    H242023   5.146   4.790   0.904 -1.1984  0.1920 -0.6483
 6822TIP3   OH242024   3.812   6.623   2.300 -0.1560  0.1120 -0.3024
 6822TIP3    H142025   3.721   6.596   2.311  0.0002 -0.1640  0.3742
 6822TIP3    H242026   3.814   6.714   2.330  0.3254 -0.7202  2.5260
 6823TIP3   OH242027   1.613   3.049   2.617  0.4520  0.5709 -0.5281
 6823TIP3    H142028   1.633   3.061   2.524  0.2609  1.0210 -0.5140
 6823TIP3    H242029   1.567   3.129   2.643 -0.5329 -0.0375 -0.3247
 6824TIP3   OH242030   6.349   2.487   8.682  0.1938  0.4438  0.3642
 6824TIP3    H142031   6.338   2.508   8.775  3.2803  1.5521  0.6258
 6824TIP3    H242032   6.348   2.391   8.679 -1.9161  0.3962  1.1736
 6825TIP3   OH242033   1.375   0.104   7.917 -0.2573 -0.0797  0.1434
 6825TIP3    H142034   1.397   0.132   7.828 -1.2439  0.1242 -0.0466
 6825TIP3    H242035   1.458   0.076   7.955  0.1188 -0.4814 -0.9515
 6826TIP3   OH242036   4.378   4.002   0.867 -0.4929  0.3536 -0.1932
 6826TIP3    H142037   4.303   4.029   0.919 -1.7656  0.2943 -1.9071
 6826TIP3    H242038   4.430   4.082   0.856  0.5321  0.1038  2.1938
 6827TIP3   OH242039   2.096   0.661   0.891 -0.6221  0.0334 -0.2297
 6827TIP3    H142040   2.134   0.732   0.838 -0.9997  1.7045  1.6242
 6827TIP3    H242041   2.031   0.621   0.834  0.1890  0.6082 -1.6262
 6828TIP3   OH242042   6.228   6.563   8.250  0.1067  0.3655  0.8761
 6828TIP3    H142043   6.197   6.605   8.330  1.1320  0.6734  1.1225
 6828TIP3    H242044   6.233   6.634   8.186  1.3930  0.5666  1.1645
 6829TIP3   OH242045   5.552   1.609   1.440 -0.0678 -0.4509  0.6193
 6829TIP3    H142046   5.491   1.681   1.457  0.4873  0.5170 -1.1246
 6829TIP3    H242047   5.499   1.541   1.400 -0.1549  0.1420 -0.3174
 6830TIP3   OH242048   3.428   1.835   0.861  0.0743  0.1075  0.2266
 6830TIP3    H142049   3.445   1.881   0.779  1.1257  0.2026  0.4896
 6830TIP3    H242050   3.363   1.889   0.906 -2.0804 -0.9947 -1.4080
 6831TIP3   OH242051   2.668   2.233   1.618 -0.1136 -0.0145  0.4340
 6831TIP3    H142052   2.690   2.304   1.678 -1.1837  1.5686 -0.9459
 6831TIP3    H242053   2.582   2.258   1.583  0.4946 -0.8462 -1.7803
 6832TIP3   OH242054   6.586   6.291   0.820 -0.3640  0.7119  0.7377
 6832TIP3    H142055   6.641   6.249   0.753  0.2360  0.4345  1.3874
 6832TIP3    H242056   6.518   6.227   0.839 -0.2904  0.6202  0.6942
 6833TIP3   OH242057   3.302   1.204   0.677 -0.4048  0.1483  0.5735
 6833TIP3    H142058   3.285   1.152   0.599  1.7021  0.5755 -0.2475
 6833TIP3    H242059   3.323   1.140   0.745  1.0587 -0.1790 -0.1369
 6834TIP3   OH242060   1.444   2.129   7.645 -0.4920 -0.1695  0.2409
 6834TIP3    H142061   1.373   2.183   7.611 -0.5922 -0.8315 -0.6553
 6834TIP3    H242062   1.403   2.072   7.709 -0.8508 -0.7859 -0.5220
 6835TIP3   OH242063   6.559   3.091   0.045  0.1631  0.1447  0.2215
 6835TIP3    H142064   6.648   3.077   0.077  0.5496  0.7525 -0.5486
 6835TIP3    H242065   6.503   3.069   0.119  1.0760  3.0128  1.9329
 6836TIP3   OH242066   6.511   6.385   0.322 -0.0229 -0.3224  0.2645
 6836TIP3    H142067   6.444   6.366   0.257  0.4968 -0.1659 -0.3241
 6836TIP3    H242068   6.580   6.321   0.305  0.1423 -0.2425  0.6235
 6837TIP3   OH242069   3.294   2.353   7.794  0.4007 -0.0865  0.2317
 6837TIP3    H142070   3.384   2.323   7.807 -0.3421 -2.4908  0.3728
 6837TIP3    H242071   3.267   2.385   7.880  0.8756 -0.1076  0.3902
 6838TIP3   OH242072   3.256   4.686   8.675  0.3401 -0.5437 -0.0398
 6838TIP3    H142073   3.335   4.659   8.721  0.6714  1.5005  0.7063
 6838TIP3    H242074   3.200   4.608   8.674  1.7078 -1.5684  0.8308
 6839TIP3   OH242075   1.417   6.296   2.053  0.0563 -0.1093 -0.2432
 6839TIP3    H142076   1.423   6.376   2.000 -1.1799  0.3070  0.2129
 6839TIP3    H242077   1.417   6.225   1.990  0.7443  0.2658 -0.6784
 6840TIP3   OH242078   3.105   1.447   0.994 -0.3940 -0.3584  0.5456
 6840TIP3    H142079   3.073   1.466   0.905  2.9936 -1.1537 -1.0179
 6840TIP3    H242080   3.040   1.388   1.031 -0.9843 -1.6216 -2.2292
 6841TIP3   OH242081   2.800   5.370   1.127  0.0554  0.3950 -0.2483
 6841TIP3    H142082   2.873   5.312   1.148  1.3458  1.9198 -0.3551
 6841TIP3    H242083   2.807   5.385   1.033 -1.0385 -0.2562 -0.4541
 6842TIP3   OH242084   1.596   1.475   1.600 -0.1942 -0.2224 -0.5602
 6842TIP3    H142085   1.687   1.462   1.573  0.3674 -0.2077  1.1973
 6842TIP3    H242086   1.600   1.549   1.660 -1.8954  2.0632 -2.9911
 6843TIP3   OH242087   5.058   0.868   0.376 -0.1327 -0.1076 -0.3054
 6843TIP3    H142088   4.990   0.824   0.427 -0.5272 -0.0768 -0.7868
 6843TIP3    H242089   5.057   0.959   0.407 -2.1846  0.5828 -2.1019
 6844TIP3   OH242090   6.548   4.379   2.211 -0.0059 -1.0824 -0.0518
 6844TIP3    H142091   6.494   4.438   2.157  0.1651 -1.2710 -0.4307
 6844TIP3    H242092   6.633   4.423   2.217 -0.0884 -0.9594  0.2456
 6845TIP3   OH242093   5.430   3.973   2.399  0.1683 -0.1853  0.4745
 6845TIP3    H142094   5.473   4.042   2.449  0.0202  1.0438 -0.9974
 6845TIP3    H242095   5.374   4.020   2.337 -0.6667 -1.6656  0.0485
 6846TIP3   OH242096   2.857   3.992   0.441  0.6638  0.5462 -0.7253
 6846TIP3    H142097   2.839   4.080   0.407 -0.0104  0.4054 -0.7483
 6846TIP3    H242098   2.787   3.937   0.404  1.1501 -0.0259 -0.8103
 6847TIP3   OH242099   3.051   1.753   8.786 -0.5696 -0.4145 -0.4038
 6847TIP3    H142100   3.120   1.731   8.849 -0.6461 -0.0388 -0.1826
 6847TIP3    H242101   3.093   1.814   8.725 -0.1285 -1.7777 -1.4955
 6848TIP3   OH242102   5.682   1.347   1.519 -0.4405 -0.3872 -0.3065
 6848TIP3    H142103   5.671   1.442   1.514  1.8438  0.0439  1.7171
 6848TIP3    H242104   5.629   1.320   1.594  1.5925 -0.1434  1.2979
 6849TIP3   OH242105   1.230   3.573   1.332  0.0576 -0.2127 -0.6812
 6849TIP3    H142106   1.306   3.537   1.287  0.5949 -1.8925  1.4230
 6849TIP3    H242107   1.268   3.631   1.399 -0.5532 -0.4953 -0.0897
 6850TIP3   OH242108   2.400   4.728   1.970  0.2484  0.3518 -0.4219
 6850TIP3    H142109   2.346   4.754   1.895 -1.1507 -1.1341  0.0207
 6850TIP3    H242110   2.405   4.807   2.024 -0.3209  0.9119 -1.1652
 6851TIP3   OH242111   1.242   4.237   2.640 -0.5005  0.0430 -0.1855
 6851TIP3    H142112   1.199   4.165   2.595 -1.3080  0.6165 -0.3507
 6851TIP3    H242113   1.217   4.227   2.732 -0.3246 -0.0863 -0.1508
 6852TIP3   OH242114   5.362   3.838   1.067 -0.0249 -0.4492 -0.6046
 6852TIP3    H142115   5.284   3.835   1.010 -0.2032  0.7012 -0.4368
 6852TIP3    H242116   5.424   3.893   1.020  0.2352 -0.3763 -0.1809
 6853TIP3   OH242117   5.563   6.326   8.087 -0.0264  0.5986  0.5854
 6853TIP3    H142118   5.568   6.344   7.993 -1.1747  0.4584  0.4914
 6853TIP3    H242119   5.560   6.412   8.127  0.5688  0.6614  0.5140
 6854TIP3   OH242120   4.611   2.716   2.166  0.2291  0.4104  0.2365
 6854TIP3    H142121   4.623   2.783   2.234  0.9816  0.0310  0.4835
 6854TIP3    H242122   4.573   2.764   2.093 -0.2567  0.9000  0.7936
 6855TIP3   OH242123   2.003   0.010   0.394 -0.8909 -0.6630  0.2220
 6855TIP3    H142124   2.018   0.019   0.488  0.4801 -1.3553  0.0948
 6855TIP3    H242125   2.036  -0.077   0.373 -0.8581 -0.3774 -0.9658
 6856TIP3   OH242126   6.191   4.011   1.450 -0.2139  0.1312  0.4265
 6856TIP3    H142127   6.284   4.011   1.429 -0.1182 -1.3450  0.7484
 6856TIP3    H242128   6.151   3.955   1.384 -0.6605 -0.4110  1.1420
 6857TIP3   OH242129   4.558   3.734   8.897 -0.1234 -0.3754  0.0607
 6857TIP3    H142130   4.545   3.769   8.985 -0.6951 -1.1242  0.2885
 6857TIP3    H242131   4.625   3.667   8.908  0.1994 -0.0979 -0.1809
 6858TIP3   OH242132   3.641   2.532   8.130  0.2401 -0.7338  0.3900
 6858TIP3    H142133   3.702   2.527   8.057  1.7650 -2.4717  1.6737
 6858TIP3    H242134   3.651   2.621   8.164  1.2020 -0.6261 -0.1364
 6859TIP3   OH242135   3.960   6.021   8.744 -0.0710 -0.0723 -0.6455
 6859TIP3    H142136   3.936   6.091   8.684 -1.5574  0.6079  0.6641
 6859TIP3    H242137   4.016   6.064   8.809 -0.5476 -0.2014 -0.1407
 6860TIP3   OH242138   4.847   2.256   0.063  0.6269  0.1969  0.0048
 6860TIP3    H142139   4.760   2.267   0.102 -0.5744 -1.9843 -1.7689
 6860TIP3    H242140   4.908   2.267   0.136 -1.2818 -0.3229  1.7705
 6861TIP3   OH242141   0.005   5.483   8.385 -0.2200  0.1282  0.3355
 6861TIP3    H142142  -0.010   5.517   8.297 -0.1631  1.9421  0.9983
 6861TIP3    H242143   0.015   5.388   8.372 -0.0591  0.3668 -1.6117
 6862TIP3   OH242144   1.756   1.631   0.071  0.2690 -0.2172 -0.1651
 6862TIP3    H142145   1.695   1.559   0.054  0.5879 -0.5810  0.1773
 6862TIP3    H242146   1.820   1.625   0.001  0.6476 -0.6713  0.2064
 6863TIP3   OH242147   1.520   1.030   0.405  0.0314  0.3538  0.0452
 6863TIP3    H142148   1.609   1.019   0.439  0.7115  0.2202 -1.7042
 6863TIP3    H242149   1.480   1.095   0.464  0.8708 -0.4341  1.5410
 6864TIP3   OH242150   4.838   2.785   8.904 -0.3987 -0.5165  0.4761
 6864TIP3    H142151   4.794   2.762   8.822 -0.5758  0.1068  0.3910
 6864TIP3    H242152   4.874   2.702   8.936  0.1497 -0.6718 -0.5030
 6865TIP3   OH242153   3.450   2.029   1.603  0.5405 -0.2528  0.0857
 6865TIP3    H142154   3.470   1.951   1.551  1.4311 -1.0791  1.5964
 6865TIP3    H242155   3.512   2.095   1.573  1.8454 -1.0835  0.8745
 6866TIP3   OH242156   2.396   1.113   1.848  0.6821  0.1018 -0.0091
 6866TIP3    H142157   2.304   1.090   1.839  0.8137 -1.4810  2.0454
 6866TIP3    H242158   2.400   1.205   1.823 -1.5812  0.4127  0.5740
 6867TIP3   OH242159   1.979   5.916   3.061  0.4627 -0.4464  0.9014
 6867TIP3    H142160   2.047   5.980   3.043  0.4858 -0.5024  0.7852
 6867TIP3    H242161   1.902   5.950   3.014  1.3632 -2.2842 -2.2656
 6868TIP3   OH242162   5.476   0.069   1.942  0.2150  0.3558 -0.3639
 6868TIP3    H142163   5.395   0.078   1.891 -1.9084  1.2625  2.8510
 6868TIP3    H242164   5.506  -0.020   1.925 -2.5867 -0.7124 -0.2136
 6869TIP3   OH242165   0.297   0.085   0.213 -0.3953  0.5715 -0.1800
 6869TIP3    H142166   0.361   0.040   0.157  0.0453  0.4161  0.4356
 6869TIP3    H242167   0.229   0.019   0.227 -0.4561  0.5755 -0.4477
 6870TIP3   OH242168   5.920   3.473   1.574  0.2988  0.5226  0.5803
 6870TIP3    H142169   5.969   3.457   1.494 -0.2241 -1.1308  0.5429
 6870TIP3    H242170   5.839   3.515   1.545 -0.0225 -0.3434  0.1794
 6871TIP3   OH242171   3.940   0.150   0.743 -0.4686 -0.1763  0.4581
 6871TIP3    H142172   3.895   0.209   0.803 -1.5066  0.5878 -1.0156
 6871TIP3    H242173   3.906   0.172   0.656  2.7103  0.4405 -0.7801
 6872TIP3   OH242174   0.310   2.526   0.396 -0.4580  0.0357 -0.1133
 6872TIP3    H142175   0.399   2.535   0.361 -0.7890  0.9021 -0.7751
 6872TIP3    H242176   0.253   2.555   0.325 -1.1191  2.5813  1.3356
 6873TIP3   OH242177   6.005   3.923   0.056 -0.6997 -0.1060 -0.3221
 6873TIP3    H142178   5.942   3.967   0.113  0.3513  0.4824  0.4132
 6873TIP3    H242179   5.987   3.958  -0.031 -1.1327  0.3538 -0.0527
 6874TIP3   OH242180   1.617   4.684   1.693  0.1513  0.2198  0.5811
 6874TIP3    H142181   1.629   4.639   1.609 -0.6464  2.2891 -0.7135
 6874TIP3    H242182   1.600   4.775   1.669 -1.1076  0.6771  2.9726
 6875TIP3   OH242183   2.167   1.253   1.485  0.0869  0.2107 -0.4999
 6875TIP3    H142184   2.121   1.271   1.567 -0.0200 -0.0573 -0.5004
 6875TIP3    H242185   2.099   1.247   1.419  0.3352  4.0271 -1.3441
 6876TIP3   OH242186   4.279   4.458   0.262  0.1496  0.4933  0.6790
 6876TIP3    H142187   4.306   4.472   0.353 -0.1366  0.5839  0.7489
 6876TIP3    H242188   4.343   4.509   0.211 -0.5746  1.6711  0.9088
 6877TIP3   OH242189   5.611   5.731   7.883  0.2329 -0.2059  0.5013
 6877TIP3    H142190   5.602   5.813   7.931  0.4540 -0.2029  0.5364
 6877TIP3    H242191   5.680   5.748   7.819 -2.6589  1.1497 -2.5982
 6878TIP3   OH242192   6.308   0.666   7.958  0.0171  0.6372 -0.1190
 6878TIP3    H142193   6.314   0.631   7.870 -1.7174 -0.0402 -0.0075
 6878TIP3    H242194   6.236   0.729   7.955  0.6308  1.4118  0.5820
 6879TIP3   OH242195   2.283   6.630   8.600  0.4287 -0.1000 -0.0286
 6879TIP3    H142196   2.235   6.580   8.666  0.6688  1.1996  1.1773
 6879TIP3    H242197   2.369   6.588   8.595  0.3434 -0.3190  0.3493
 6880TIP3   OH242198   5.770   5.026   8.687 -0.2906 -0.2705  1.5702
 6880TIP3    H142199   5.679   5.057   8.691 -0.0849  0.3642  1.3722
 6880TIP3    H242200   5.781   4.996   8.597  0.3614  1.7537  0.9250
 6881TIP3   OH242201   5.264   1.624   6.963  0.1289  0.5992  0.1915
 6881TIP3    H142202   5.183   1.660   6.926 -1.7953 -0.5489  2.9670
 6881TIP3    H242203   5.317   1.702   6.983 -0.6440  1.4313 -0.8683
 6882TIP3   OH242204   2.114   5.149   1.156 -0.0433  0.1324 -0.3248
 6882TIP3    H142205   2.178   5.086   1.123 -1.8460 -2.5688  0.9687
 6882TIP3    H242206   2.063   5.174   1.079 -0.0828 -0.9622 -0.6607
 6883TIP3   OH242207   0.454   6.644   9.092 -0.0252  0.3810  0.1871
 6883TIP3    H142208   0.535   6.605   9.127 -1.5317 -2.2314  1.0239
 6883TIP3    H242209   0.425   6.582   9.025 -2.6899 -0.2164  1.7711
 6884TIP3   OH242210   1.750   4.691   0.734  0.3369 -0.0485  0.0922
 6884TIP3    H142211   1.659   4.718   0.725 -0.0215 -0.9187  0.9673
 6884TIP3    H242212   1.772   4.709   0.825  1.5403  1.5619 -0.4578
 6885TIP3   OH242213   1.053   2.616   9.099 -0.2570 -0.2314 -0.1562
 6885TIP3    H142214   1.073   2.701   9.060  0.1991 -0.6984 -0.9823
 6885TIP3    H242215   1.116   2.606   9.170 -1.0199  0.5817  0.6572
 6886TIP3   OH242216   6.000   0.920   7.041  0.0964 -0.0428 -0.2993
 6886TIP3    H142217   5.970   0.845   7.092  0.4951 -0.0316 -0.0453
 6886TIP3    H242218   5.971   0.996   7.092 -1.4697  0.0095 -1.2122
 6887TIP3   OH242219   5.368   3.371   1.237 -0.0486 -0.2280 -0.2984
 6887TIP3    H142220   5.464   3.374   1.235 -0.0917  1.4293 -2.0643
 6887TIP3    H242221   5.346   3.286   1.200  0.7223 -1.0521  1.0547
 6888TIP3   OH242222   6.169   0.504   2.682 -0.1799  0.1813 -0.0409
 6888TIP3    H142223   6.188   0.488   2.774  0.2185  0.3611 -0.0910
 6888TIP3    H242224   6.105   0.436   2.659  0.4146 -0.4574  0.1291
 6889TIP3   OH242225   1.429   3.498   8.882  0.5299 -0.1723  0.1656
 6889TIP3    H142226   1.418   3.509   8.787  1.7421 -1.6784 -0.1986
 6889TIP3    H242227   1.341   3.503   8.917 -0.0591 -0.5901 -1.1784
 6890TIP3   OH242228   2.728   1.643   2.504 -0.0028  0.1948  0.1416
 6890TIP3    H142229   2.684   1.571   2.548 -1.5083  1.1924  0.3238
 6890TIP3    H242230   2.673   1.720   2.520  1.8316  1.5243  0.4217
 6891TIP3   OH242231   5.902   2.341   0.644  0.1394 -0.1869  0.0014
 6891TIP3    H142232   5.930   2.408   0.707  0.3021  0.1401 -0.4107
 6891TIP3    H242233   5.976   2.332   0.584  0.0720 -0.6578 -0.0123
 6892TIP3   OH242234   4.410   1.503   7.318 -0.3000  0.2043 -0.1451
 6892TIP3    H142235   4.384   1.425   7.367 -0.2998  0.3034  0.0139
 6892TIP3    H242236   4.505   1.509   7.331 -0.5022  1.0646  1.0759
 6893TIP3   OH242237   5.590   2.791   1.228 -0.4898 -0.1755  0.3318
 6893TIP3    H142238   5.520   2.794   1.162  0.5422  1.1014 -0.7868
 6893TIP3    H242239   5.589   2.702   1.261  0.3682 -1.6181 -3.0933
 6894TIP3   OH242240   1.781   4.452   9.100 -0.1397 -0.0869  0.4607
 6894TIP3    H142241   1.844   4.510   9.057 -0.0433 -0.5801 -0.0820
 6894TIP3    H242242   1.727   4.510   9.153  0.4010  0.4122  0.4770
 6895TIP3   OH242243   5.549   4.172   1.553 -0.2356  0.0431  0.5007
 6895TIP3    H142244   5.631   4.221   1.546  0.4289 -1.2185 -1.4251
 6895TIP3    H242245   5.568   4.104   1.618 -0.1191  0.3932  0.8379
 6896TIP3   OH242246   5.309   2.746   0.717 -0.7650  0.2660  0.1213
 6896TIP3    H142247   5.335   2.655   0.728 -0.4607  0.5435  2.0268
 6896TIP3    H242248   5.343   2.770   0.630 -0.3731 -1.2550 -0.1720
 6897TIP3   OH242249   6.107   2.300   0.366  0.8266  0.2572 -0.0954
 6897TIP3    H142250   6.103   2.394   0.382  1.3220 -0.0213  2.1184
 6897TIP3    H242251   6.059   2.286   0.285  0.7167  2.4076 -0.4342
 6898TIP3   OH242252   1.838   3.172   8.189  0.0722 -0.1852 -0.0798
 6898TIP3    H142253   1.815   3.079   8.189 -0.5358 -0.0373  0.1031
 6898TIP3    H242254   1.834   3.198   8.097  0.9228 -0.4983 -0.2162
 6899TIP3   OH242255   1.506   3.811   2.941 -0.2737 -0.6774  0.0193
 6899TIP3    H142256   1.570   3.866   2.986 -1.2647  1.0384 -0.5769
 6899TIP3    H242257   1.424   3.829   2.985 -0.8542 -0.6835 -1.0282
 6900TIP3   OH242258   2.291   1.826   1.135 -0.1900 -0.0940  0.0315
 6900TIP3    H142259   2.279   1.911   1.091  0.1207  0.0514  0.2254
 6900TIP3    H242260   2.385   1.808   1.126 -0.4191 -0.9041 -0.8934
 6901TIP3   OH242261   0.913   3.435   0.206  0.2563  0.0901  1.2899
 6901TIP3    H142262   0.842   3.409   0.147 -1.9414  0.4763  3.6223
 6901TIP3    H242263   0.992   3.431   0.151 -1.6719  0.9566 -1.8319
 6902TIP3   OH242264   2.597   3.179   1.643 -0.2299 -0.0928 -0.8388
 6902TIP3    H142265   2.517   3.158   1.690  1.0257 -2.3320  0.4901
 6902TIP3    H242266   2.590   3.129   1.561 -0.5365  0.4093 -1.1279
 6903TIP3   OH242267   1.013   3.766   1.433  0.3346  0.2943 -0.5428
 6903TIP3    H142268   0.951   3.789   1.364  1.0401  1.0531 -0.9502
 6903TIP3    H242269   1.099   3.789   1.397  1.0499 -2.1865 -0.6045
 6904TIP3   OH242270   6.176   0.367   1.392 -0.1129  0.0048 -0.7437
 6904TIP3    H142271   6.259   0.364   1.344 -0.1247  1.0098 -0.8338
 6904TIP3    H242272   6.128   0.440   1.354  0.3890  1.6678  1.6009
 6905TIP3   OH242273   0.157   5.657   8.170 -0.0242 -0.3651 -0.8391
 6905TIP3    H142274   0.244   5.672   8.134  1.2468 -1.5720  1.5512
 6905TIP3    H242275   0.133   5.569   8.140 -0.0798 -0.3465 -0.8493
 6906TIP3   OH242276   6.606   3.850   0.816 -0.0221 -0.1179  0.0153
 6906TIP3    H142277   6.684   3.825   0.765 -2.4271  0.0501 -4.2291
 6906TIP3    H242278   6.609   3.793   0.893  4.9346  0.9208  0.9281
 6907TIP3   OH242279   4.792   0.790   0.234  0.1246 -0.4097 -0.0271
 6907TIP3    H142280   4.818   0.878   0.205 -0.5280 -0.1097  0.2694
 6907TIP3    H242281   4.856   0.767   0.301  0.9145 -0.6007 -0.8242
 6908TIP3   OH242282   1.590   4.816   8.949  0.3209 -0.2429 -0.2438
 6908TIP3    H142283   1.567   4.838   8.859  1.6801 -0.5933 -0.7020
 6908TIP3    H242284   1.610   4.722   8.946 -1.0186 -0.5945  0.7450
 6909TIP3   OH242285   3.185   2.571   2.573 -0.2668  0.2177 -0.1408
 6909TIP3    H142286   3.160   2.563   2.665  1.0033 -0.2260  0.1768
 6909TIP3    H242287   3.221   2.486   2.550 -1.5249 -0.0151 -1.3672
 6910TIP3   OH242288   1.685   0.077   7.936  0.1365  0.1540  0.5443
 6910TIP3    H142289   1.682   0.081   7.841 -3.1449 -0.0147  0.5345
 6910TIP3    H242290   1.748   0.145   7.961  1.1316  0.1343 -1.6959
 6911TIP3   OH242291   4.338   6.172   2.197 -0.1616  0.0405  0.5780
 6911TIP3    H142292   4.306   6.111   2.263 -0.5117 -1.8884 -1.2783
 6911TIP3    H242293   4.259   6.207   2.156 -0.0315 -1.4358 -1.0827
 6912TIP3   OH242294   3.381   1.489   0.998 -0.0724  0.0247  0.1232
 6912TIP3    H142295   3.286   1.489   0.996 -0.0645 -1.1844 -1.2552
 6912TIP3    H242296   3.405   1.405   1.037  0.4377  0.0609 -0.1002
 6913TIP3   OH242297   5.622   0.156   6.705  0.1186  0.0639  0.2651
 6913TIP3    H142298   5.531   0.150   6.678 -0.0624 -2.0118  1.1244
 6913TIP3    H242299   5.618   0.191   6.794  0.2148  0.4924  0.1044
 6914TIP3   OH242300   4.873   2.693   7.561 -0.2571 -0.0858 -0.3729
 6914TIP3    H142301   4.911   2.634   7.496  0.2424 -1.4871  1.1093
 6914TIP3    H242302   4.947   2.749   7.588  0.2608 -1.3083  0.8806
 6915TIP3   OH242303   1.008   4.654   1.071 -0.2371 -0.3433  0.3871
 6915TIP3    H142304   1.087   4.653   1.017 -0.6356 -0.1759 -0.2100
 6915TIP3    H242305   1.039   4.635   1.159  0.2926 -1.6801 -0.0663
 6916TIP3   OH242306   4.087   0.044   9.020 -0.2182 -0.5019  0.0851
 6916TIP3    H142307   4.130   0.108   9.076  1.1995 -0.4494 -1.0028
 6916TIP3    H242308   3.999   0.078   9.007 -0.3974 -0.2473  1.8129
 6917TIP3   OH242309   1.183   4.636   8.306 -0.0694  0.7175 -0.0730
 6917TIP3    H142310   1.209   4.614   8.396 -2.5703  2.2433  1.1317
 6917TIP3    H242311   1.207   4.558   8.255 -2.5640 -2.1926  2.7129
 6918TIP3   OH242312   4.333   6.386   7.712  0.2638  0.3485  0.0991
 6918TIP3    H142313   4.353   6.361   7.622 -0.5330  2.1889 -0.6351
 6918TIP3    H242314   4.340   6.481   7.712 -1.7904  0.5469  1.4514
 6919TIP3   OH242315   2.399   0.349   7.611 -0.0432 -0.2216  0.6052
 6919TIP3    H142316   2.393   0.415   7.542  0.1198 -0.0459  0.7578
 6919TIP3    H242317   2.491   0.349   7.636  0.2577 -1.5543 -0.4099
 6920TIP3   OH242318   1.666   0.916   7.411 -0.5492  0.3675 -0.2363
 6920TIP3    H142319   1.578   0.951   7.396 -0.5638  0.2555 -0.4105
 6920TIP3    H242320   1.651   0.828   7.448 -0.5113  0.4322 -0.0653
 6921TIP3   OH242321   1.005   5.589   2.280  0.2329  0.2651 -0.4288
 6921TIP3    H142322   1.095   5.590   2.313  0.1385 -0.8206 -0.1054
 6921TIP3    H242323   1.013   5.555   2.190  0.2248  0.8486 -0.6495
 6922TIP3   OH242324   5.876   3.157   1.285 -0.1551  0.1390  0.1628
 6922TIP3    H142325   5.866   3.069   1.247  0.5167 -0.2404  0.8275
 6922TIP3    H242326   5.886   3.141   1.379 -3.1504  1.1254  0.7741
 6923TIP3   OH242327   4.274   2.312   7.587 -0.1593 -0.2086  0.5243
 6923TIP3    H142328   4.358   2.267   7.599  0.3094  0.7551  0.9820
 6923TIP3    H242329   4.214   2.244   7.557  0.9504 -0.7755 -0.4578
 6924TIP3   OH242330   0.397   5.568   1.784  0.1403  0.0746 -0.4714
 6924TIP3    H142331   0.321   5.572   1.843  0.2417 -0.5394 -0.2944
 6924TIP3    H242332   0.359   5.580   1.697 -0.1190  0.1174 -0.3551
 6925TIP3   OH242333   2.612   3.161   0.626  0.5273 -0.1598 -0.3545
 6925TIP3    H142334   2.537   3.215   0.603 -0.8804  0.4561  4.5444
 6925TIP3    H242335   2.678   3.223   0.657  0.4235 -0.9529  1.5896
 6926TIP3   OH242336   5.885   6.483   2.169 -0.1862  0.1772  0.2546
 6926TIP3    H142337   5.976   6.452   2.172 -0.6217 -1.4361 -1.3354
 6926TIP3    H242338   5.833   6.404   2.182 -1.4047  1.0917  1.2109
 6927TIP3   OH242339   5.318   4.048   0.709 -0.1255 -0.4543 -0.4074
 6927TIP3    H142340   5.224   4.050   0.688 -0.5836  1.2915  1.5101
 6927TIP3    H242341   5.339   3.955   0.715 -2.1610 -0.9094  0.7606
 6928TIP3   OH242342   0.787   3.228   1.760 -0.3285  0.0479  0.5516
 6928TIP3    H142343   0.844   3.305   1.763  0.4314 -0.5306  1.3270
 6928TIP3    H242344   0.745   3.226   1.846  0.2063 -0.7980  0.8068
 6929TIP3   OH242345   4.770   1.181   8.203 -0.6156  0.9154 -0.6002
 6929TIP3    H142346   4.740   1.209   8.117 -0.6054  3.1305  0.0673
 6929TIP3    H242347   4.730   1.242   8.264 -0.1908 -0.2740  0.9435
 6930TIP3   OH242348   6.384   0.561   7.711  0.4408  0.5460  0.0371
 6930TIP3    H142349   6.343   0.584   7.627  0.5774  0.5307 -0.0328
 6930TIP3    H242350   6.477   0.574   7.697  0.3484  2.2018  0.7062
 6931TIP3   OH242351   3.148   0.141   8.667  0.6135  0.1078 -1.0876
 6931TIP3    H142352   3.178   0.188   8.589  0.2790  2.2799  0.0115
 6931TIP3    H242353   3.227   0.099   8.701  0.9864  0.0807 -1.9470
 6932TIP3   OH242354   5.185   3.142   1.400 -0.3074 -0.2258 -0.0003
 6932TIP3    H142355   5.170   3.203   1.473  2.2019 -0.0878  0.4793
 6932TIP3    H242356   5.151   3.188   1.323  0.6047  1.3634  0.5095
 6933TIP3   OH242357   5.358   3.547   0.478  0.2652  0.3976  0.0636
 6933TIP3    H142358   5.270   3.531   0.441  0.1809  0.0590  0.4084
 6933TIP3    H242359   5.361   3.493   0.557  0.1925  1.6577  0.9502
 6934TIP3   OH242360   3.821   1.898   1.312  0.3705  0.3282 -0.4938
 6934TIP3    H142361   3.795   1.820   1.360  1.6870  1.2984  1.9790
 6934TIP3    H242362   3.746   1.917   1.255  0.4100 -3.2233 -1.9674
 6935TIP3   OH242363   6.156   6.376   0.530 -0.1401  0.2921 -0.9699
 6935TIP3    H142364   6.183   6.433   0.601  0.7347  1.4677 -2.1879
 6935TIP3    H242365   6.064   6.358   0.547  0.4850 -1.0667  1.4778
 6936TIP3   OH242366   4.927   3.000   7.813 -0.6126  0.0347 -0.4099
 6936TIP3    H142367   4.968   2.916   7.834 -0.6544  0.1967  0.3341
 6936TIP3    H242368   4.989   3.066   7.843 -1.1736  0.2742  0.2406
 6937TIP3   OH242369   4.303   3.651   8.797 -0.1747 -0.1820  0.0875
 6937TIP3    H142370   4.289   3.556   8.800 -0.5026 -0.1083  1.8547
 6937TIP3    H242371   4.387   3.665   8.840 -1.7503  0.5405  3.2460
 6938TIP3   OH242372   4.007   0.746   2.537  0.0415 -0.3600 -0.2585
 6938TIP3    H142373   4.089   0.708   2.568 -0.5213 -1.7341 -0.3684
 6938TIP3    H242374   3.994   0.823   2.592  1.5942  0.1101 -0.5051
 6939TIP3   OH242375   2.125   5.005   7.422  0.0576  0.2914 -0.0314
 6939TIP3    H142376   2.070   4.985   7.346  0.4781 -0.1252 -0.2292
 6939TIP3    H242377   2.105   4.936   7.485 -1.3590  1.4322  0.8189
 6940TIP3   OH242378   0.154   5.594   2.722  0.0011 -0.1369 -0.1554
 6940TIP3    H142379   0.215   5.554   2.784  0.7433  0.6699 -0.3404
 6940TIP3    H242380   0.124   5.521   2.667  0.7096 -0.5691  0.0135
 6941TIP3   OH242381   4.432   0.954   7.235  0.3525 -0.1775  0.0526
 6941TIP3    H142382   4.352   1.004   7.223 -0.1717 -1.2220 -1.0220
 6941TIP3    H242383   4.447   0.911   7.151  1.7039 -0.4927  0.4270
 6942TIP3   OH242384   6.197   0.595   8.592  0.2819  0.2636 -0.3013
 6942TIP3    H142385   6.220   0.612   8.683 -1.8013 -1.8604  0.7191
 6942TIP3    H242386   6.277   0.562   8.552  1.0928  0.7488  0.8801
 6943TIP3   OH242387   2.993   5.623   7.983  0.0183  0.0412  0.0107
 6943TIP3    H142388   3.069   5.565   7.988  0.6926  0.9625  0.9433
 6943TIP3    H242389   3.002   5.665   7.897 -0.1990 -0.8503 -0.4560
 6944TIP3   OH242390   2.817   0.043   8.287 -0.4097 -0.5534  0.9419
 6944TIP3    H142391   2.843   0.123   8.333  0.7853 -0.6603  0.4876
 6944TIP3    H242392   2.792   0.073   8.200  0.9683 -0.7552  0.4528
 6945TIP3   OH242393   1.740   5.217   8.194 -0.0707 -0.6442 -0.5393
 6945TIP3    H142394   1.731   5.168   8.276 -2.3441 -1.8356 -1.4067
 6945TIP3    H242395   1.817   5.180   8.151 -0.7442 -2.3066 -0.3771
 6946TIP3   OH242396   4.893   6.061   3.132  0.3822 -0.7633 -0.4474
 6946TIP3    H142397   4.842   6.136   3.100 -0.6950 -0.7130  1.2465
 6946TIP3    H242398   4.984   6.089   3.123  0.0214  0.4851 -0.4639
 6947TIP3   OH242399   0.229   0.085   8.031 -0.2685 -0.8803 -0.1060
 6947TIP3    H142400   0.207   0.093   7.938  0.3557 -1.6847 -0.3307
 6947TIP3    H242401   0.244  -0.009   8.044 -0.3677 -0.7768  0.8151
 6948TIP3   OH242402   0.694   3.455   8.697 -0.0518  0.0611  0.8335
 6948TIP3    H142403   0.694   3.512   8.774 -0.0704  2.1813 -0.6523
 6948TIP3    H242404   0.612   3.475   8.653  0.1486 -0.8292  0.0381
 6949TIP3   OH242405   0.777   5.045   0.554 -0.3985  0.3142 -0.4896
 6949TIP3    H142406   0.688   5.062   0.585 -0.7133 -1.5588 -0.2580
 6949TIP3    H242407   0.827   5.031   0.634 -0.1086  0.3720 -0.6610
 6950TIP3   OH242408   3.606   3.121   0.622  0.6372  0.0453 -0.2379
 6950TIP3    H142409   3.541   3.178   0.581 -2.5035 -2.0824  1.3607
 6950TIP3    H242410   3.606   3.147   0.714  0.9369 -0.9556  0.0535
 6951TIP3   OH242411   5.110   5.135   9.025  0.0406  0.1982  0.3028
 6951TIP3    H142412   5.024   5.147   9.066  0.7393  0.7363  1.6921
 6951TIP3    H242413   5.167   5.198   9.070  1.5707 -1.3992  0.7382
 6952TIP3   OH242414   1.537   2.989   1.079  0.8253 -0.3842  0.0878
 6952TIP3    H142415   1.447   2.965   1.056  1.3195 -1.6220 -0.6131
 6952TIP3    H242416   1.559   2.933   1.153  0.5205  1.0061  1.2861
 6953TIP3   OH242417   0.319   1.942   0.075  0.1710 -0.1226 -0.8912
 6953TIP3    H142418   0.384   1.938   0.004  2.5203 -3.8357  1.1233
 6953TIP3    H242419   0.259   1.870   0.056 -1.1681  0.9141 -0.7368
 6954TIP3   OH242420   3.737   3.903   2.069  0.4746  0.3167 -0.2861
 6954TIP3    H142421   3.813   3.910   2.127  0.2109  1.7558 -0.0644
 6954TIP3    H242422   3.676   3.969   2.102 -0.2304  0.2463 -1.4013
 6955TIP3   OH242423   4.246   0.567   1.613  0.5759  0.2408  0.2266
 6955TIP3    H142424   4.205   0.541   1.530 -0.6777 -1.2698  1.2503
 6955TIP3    H242425   4.225   0.660   1.622  1.0999  0.5363 -1.3266
 6956TIP3   OH242426   1.441   0.513   9.051  0.1244 -0.1612  0.3721
 6956TIP3    H142427   1.414   0.584   8.992 -0.1422 -0.4608  0.1268
 6956TIP3    H242428   1.520   0.478   9.012 -0.8974 -1.3868 -0.6946
 6957TIP3   OH242429   3.483   4.036   8.291  0.1319 -0.0413  0.3430
 6957TIP3    H142430   3.510   4.043   8.383 -0.2817 -2.8968  0.7859
 6957TIP3    H242431   3.392   4.007   8.294  0.6452 -2.0086 -0.8551
 6958TIP3   OH242432   4.178   1.188   0.956 -0.7009  0.8712  0.5029
 6958TIP3    H142433   4.134   1.232   0.883 -0.3133  0.0179 -0.2696
 6958TIP3    H242434   4.143   1.099   0.956  1.9215 -0.3090 -1.0647
 6959TIP3   OH242435   5.575   5.439   1.723 -0.1511  0.6831  0.7045
 6959TIP3    H142436   5.650   5.485   1.683  0.6303  0.4494  1.8339
 6959TIP3    H242437   5.568   5.478   1.810 -0.9048  0.1981  0.8644
 6960TIP3   OH242438   1.265   0.404   0.090  0.5025  0.2132 -0.5075
 6960TIP3    H142439   1.297   0.314   0.088 -0.2652 -0.0681 -0.7217
 6960TIP3    H242440   1.333   0.455   0.047  0.0190 -0.5960 -2.3584
 6961TIP3   OH242441   2.511   3.615   8.389  0.4055 -0.2000  0.6560
 6961TIP3    H142442   2.531   3.580   8.476 -1.1294 -0.8969  0.7490
 6961TIP3    H242443   2.483   3.539   8.339  1.0633  0.2391 -0.4056
 6962TIP3   OH242444   4.692   0.918   2.943  0.5182 -0.3173 -0.4244
 6962TIP3    H142445   4.772   0.945   2.898 -0.4963  2.0053 -1.0254
 6962TIP3    H242446   4.705   0.947   3.034  0.2916  0.3159 -0.5839
 6963TIP3   OH242447   3.620   4.913   7.665  0.3061  1.0892 -0.4056
 6963TIP3    H142448   3.585   4.924   7.754 -1.6401 -0.9384 -0.8587
 6963TIP3    H242449   3.705   4.871   7.678 -0.4610 -0.2464  0.4965
 6964TIP3   OH242450   0.481   6.552   2.959  0.1245  0.1785 -0.7369
 6964TIP3    H142451   0.412   6.609   2.991  0.3688  1.1879 -1.9632
 6964TIP3    H242452   0.440   6.499   2.891  0.3739  0.2490 -0.9438
 6965TIP3   OH242453   5.374   0.890   1.845 -0.1981 -0.4010  0.1838
 6965TIP3    H142454   5.354   0.971   1.799 -0.6505 -0.5553  0.0998
 6965TIP3    H242455   5.452   0.855   1.801  0.4162  0.3322  0.6658
 6966TIP3   OH242456   3.807   6.539   8.105 -0.0381  0.4811 -0.5068
 6966TIP3    H142457   3.840   6.578   8.185 -1.5907  2.5413 -0.7755
 6966TIP3    H242458   3.880   6.545   8.043  0.8962 -0.3634  0.4680
 6967TIP3   OH242459   2.368   0.160   2.381  0.1762 -0.0247 -0.0239
 6967TIP3    H142460   2.284   0.122   2.356 -0.5918  1.9745 -0.6966
 6967TIP3    H242461   2.371   0.152   2.476 -0.4451 -0.7720 -0.0641
 6968TIP3   OH242462   2.801   2.187   7.061 -0.3093  0.2031 -0.4485
 6968TIP3    H142463   2.887   2.147   7.051 -0.9933 -2.0063  1.4686
 6968TIP3    H242464   2.803   2.227   7.148 -1.2650 -0.0438 -0.3009
 6969TIP3   OH242465   3.259   5.164   2.150 -0.2808  0.1600 -0.8749
 6969TIP3    H142466   3.226   5.164   2.239 -2.4862 -0.0906 -1.6231
 6969TIP3    H242467   3.225   5.245   2.112 -1.0280 -0.6506 -2.0110
 6970TIP3   OH242468   5.777   2.886   8.948  0.2055 -0.0572  0.3589
 6970TIP3    H142469   5.709   2.906   9.012 -1.0181  2.2126 -1.5058
 6970TIP3    H242470   5.741   2.814   8.896 -0.2971  0.4095  0.0614
 6971TIP3   OH242471   6.255   1.749   8.425 -0.0020  0.4238 -0.1130
 6971TIP3    H142472   6.177   1.790   8.387  0.1939  0.4833 -0.4575
 6971TIP3    H242473   6.313   1.822   8.446 -0.6202  0.4956  1.5081
 6972TIP3   OH242474   2.538   6.061   2.180  0.0245  0.5509 -1.0996
 6972TIP3    H142475   2.493   6.145   2.170  0.3283  0.7924 -0.4963
 6972TIP3    H242476   2.566   6.059   2.272 -2.6959 -1.5856 -0.1721
 6973TIP3   OH242477   4.800   6.551   0.874 -0.6857  0.2670 -0.3005
 6973TIP3    H142478   4.798   6.494   0.951 -0.9802  1.2927  0.4673
 6973TIP3    H242479   4.730   6.518   0.817  1.4338 -2.4250 -1.5918
 6974TIP3   OH242480   3.669   6.305   1.137 -0.0661 -0.0968  0.0110
 6974TIP3    H142481   3.638   6.230   1.188 -1.0647 -0.6561 -1.3418
 6974TIP3    H242482   3.765   6.300   1.142 -0.1299 -1.1152  0.4417
 6975TIP3   OH242483   2.269   3.894   8.088  0.1148 -0.2217 -0.3626
 6975TIP3    H142484   2.326   3.946   8.145 -0.3134 -0.4652  0.2928
 6975TIP3    H242485   2.318   3.814   8.071 -0.4743 -0.9524  1.1532
 6976TIP3   OH242486   0.852   6.067   2.604  0.1085  0.1140 -0.3757
 6976TIP3    H142487   0.877   6.150   2.562 -0.7842  1.3544  1.3914
 6976TIP3    H242488   0.934   6.019   2.614  0.8725  1.4164 -0.1764
 6977TIP3   OH242489   2.872   3.398   1.933  0.2783  0.0179 -0.0318
 6977TIP3    H142490   2.785   3.383   1.895  0.0246 -0.4011  0.6883
 6977TIP3    H242491   2.868   3.356   2.019 -0.2867  3.6310  1.8800
 6978TIP3   OH242492   3.532   2.983   7.421 -0.3256 -0.2746 -0.2523
 6978TIP3    H142493   3.486   3.056   7.379 -1.7824 -0.9070  0.1957
 6978TIP3    H242494   3.539   3.010   7.513 -2.4198 -1.4005  0.2817
 6979TIP3   OH242495   1.543   6.646   0.188 -0.0839 -0.1728  0.1821
 6979TIP3    H142496   1.523   6.599   0.269 -3.1356  0.1392 -0.2930
 6979TIP3    H242497   1.573   6.577   0.128  0.3722 -0.6881  0.9722
 6980TIP3   OH242498   6.270   5.476   0.539 -0.4609 -0.7685 -0.3757
 6980TIP3    H142499   6.194   5.442   0.491 -0.3847  0.7003 -1.6183
 6980TIP3    H242500   6.232   5.526   0.611 -0.6535 -0.8716 -0.4039
 6981TIP3   OH242501   3.279   3.172   7.478 -0.7497 -0.0857  0.0114
 6981TIP3    H142502   3.292   3.172   7.383 -0.9834  1.3046 -0.0340
 6981TIP3    H242503   3.185   3.164   7.489 -0.7065 -0.4521  0.1481
 6982TIP3   OH242504   2.339   3.508   1.698  0.3338  0.7380  0.2853
 6982TIP3    H142505   2.362   3.456   1.620  2.9679 -1.8446  2.5336
 6982TIP3    H242506   2.380   3.593   1.682  2.5237 -0.3647 -0.4101
 6983TIP3   OH242507   5.443   5.380   0.776 -0.2174 -0.1126 -0.4642
 6983TIP3    H142508   5.428   5.343   0.863 -0.7890  1.9350  0.3589
 6983TIP3    H242509   5.492   5.312   0.729  2.5190 -0.2782  2.3205
 6984TIP3   OH242510   1.404   2.531   0.832 -0.3462  0.2806  0.0517
 6984TIP3    H142511   1.440   2.612   0.868 -0.0096  0.5158 -0.7868
 6984TIP3    H242512   1.455   2.516   0.752  2.0063 -2.6015  1.9084
 6985TIP3   OH242513   5.969   6.220   1.201  0.0857  0.5362 -0.1034
 6985TIP3    H142514   5.996   6.129   1.187 -0.6542  0.3419 -0.3137
 6985TIP3    H242515   6.050   6.271   1.192  0.5292 -0.1120  0.1435
 6986TIP3   OH242516   5.092   3.504   8.687  0.6082 -0.5225  0.2294
 6986TIP3    H142517   5.057   3.511   8.776 -0.3474 -0.3597 -0.1427
 6986TIP3    H242518   5.102   3.410   8.672  0.8618 -0.5449  0.5476
 6987TIP3   OH242519   4.395   1.532   2.457  0.4315  0.3855 -0.2073
 6987TIP3    H142520   4.479   1.545   2.500  0.8381  1.1559 -1.2143
 6987TIP3    H242521   4.387   1.605   2.396 -0.4645 -0.2827 -0.9193
 6988TIP3   OH242522   3.930   4.787   8.331  0.1957 -0.3177 -0.2540
 6988TIP3    H142523   4.014   4.759   8.295 -1.2650 -1.6445 -3.0185
 6988TIP3    H242524   3.898   4.851   8.267 -0.9988  0.0013  0.6363
 6989TIP3   OH242525   4.239   1.099   8.843  0.0101 -0.6044 -0.7080
 6989TIP3    H142526   4.317   1.077   8.895  0.7496  1.2020 -0.9697
 6989TIP3    H242527   4.168   1.101   8.907  0.6163  0.0204 -0.0277
 6990TIP3   OH242528   1.402   6.040   8.537  0.2877  0.1669 -0.3852
 6990TIP3    H142529   1.392   6.015   8.445 -0.0465  1.5813 -0.7742
 6990TIP3    H242530   1.473   6.105   8.536  1.2349 -0.8164  0.5814
 6991TIP3   OH242531   1.769   5.912   2.876 -0.4595 -0.0554  0.5978
 6991TIP3    H142532   1.689   5.959   2.900  0.1315  0.6848  1.1975
 6991TIP3    H242533   1.807   5.964   2.805  0.0816  0.2606  1.1113
 6992TIP3   OH242534   1.384   0.160   0.114 -0.3679 -0.1787 -0.7468
 6992TIP3    H142535   1.372   0.072   0.150  0.2021 -0.0057 -0.1191
 6992TIP3    H242536   1.467   0.190   0.150 -0.2539  0.3786 -1.4522
 6993TIP3   OH242537   1.714   3.415   0.451 -0.3382  0.1357 -0.7618
 6993TIP3    H142538   1.714   3.320   0.462  0.8388  0.0108 -1.6405
 6993TIP3    H242539   1.782   3.446   0.511  1.4084  0.0969 -2.6388
 6994TIP3   OH242540   6.696   2.021   1.176 -0.4237 -0.5583  0.3067
 6994TIP3    H142541   6.742   2.083   1.232  0.9850 -2.7342  1.6692
 6994TIP3    H242542   6.611   2.009   1.219 -1.0374  0.9587 -0.4069
 6995TIP3   OH242543   3.917   3.101   0.194  0.6574 -0.0243 -0.1107
 6995TIP3    H142544   3.935   3.133   0.282  1.4446 -1.0955  0.1470
 6995TIP3    H242545   4.004   3.093   0.154  0.3816 -0.5154 -0.6241
 6996TIP3   OH242546   4.753   6.516   0.109  0.9249  0.2758  0.1646
 6996TIP3    H142547   4.722   6.595   0.064  1.7155 -0.2616 -1.4121
 6996TIP3    H242548   4.839   6.499   0.070  0.8084 -1.3174  0.5429
 6997TIP3   OH242549   3.617   0.914   7.758 -0.3069  0.6722  0.1099
 6997TIP3    H142550   3.549   0.854   7.789 -0.7851 -0.0632 -2.1268
 6997TIP3    H242551   3.568   0.991   7.727  0.1754  1.5529  1.4798
 6998TIP3   OH242552   4.070   2.594   0.911  0.1080 -0.7550  0.2237
 6998TIP3    H142553   4.042   2.608   1.001  1.4376  1.3297  0.3830
 6998TIP3    H242554   4.050   2.503   0.893  0.7665 -1.5169  2.9730
 6999TIP3   OH242555   2.604   0.356   8.705  0.3771 -0.0729  0.2539
 6999TIP3    H142556   2.518   0.389   8.728  0.6172  1.7489 -1.1908
 6999TIP3    H242557   2.599   0.340   8.611  1.2701 -1.1112  0.3643
 7000TIP3   OH242558   3.556   4.011   1.634  0.2920 -0.0275  0.1507
 7000TIP3    H142559   3.465   3.999   1.604 -0.1519 -0.2641  1.5276
 7000TIP3    H242560   3.552   3.994   1.728  1.7178  0.2866  0.2783
 7001TIP3   OH242561   2.519   3.498   0.506  0.4845  0.1323 -0.0628
 7001TIP3    H142562   2.496   3.527   0.417  0.8133  0.1869 -0.1301
 7001TIP3    H242563   2.524   3.579   0.557 -3.4818 -0.0662  0.9451
 7002TIP3   OH242564   4.627   2.141   2.594 -0.9106  0.2579  0.5256
 7002TIP3    H142565   4.625   2.227   2.634  1.9251 -0.4398  2.4427
 7002TIP3    H242566   4.562   2.089   2.643 -0.5849  0.5661  1.2895
 7003TIP3   OH242567   4.500   4.748   9.079  0.0418 -0.3670  0.1635
 7003TIP3    H142568   4.491   4.653   9.087  4.4388 -0.9011  1.8456
 7003TIP3    H242569   4.468   4.782   9.163  0.3168 -0.5932  0.3622
 7004TIP3   OH242570   2.073   1.075   8.359 -0.0765 -0.0017  0.9503
 7004TIP3    H142571   2.020   1.057   8.437  0.2703  0.3853  1.2827
 7004TIP3    H242572   2.140   1.136   8.390 -0.7374  1.2029  0.0464
 7005TIP3   OH242573   3.131   2.273   1.039 -0.0260 -0.7799  0.4920
 7005TIP3    H142574   3.074   2.305   0.968  0.6911 -0.4877  0.0325
 7005TIP3    H242575   3.095   2.313   1.118 -0.0281  0.0031  0.1109
 7006TIP3   OH242576   1.958   4.123   8.542  0.7128  0.5514 -0.3901
 7006TIP3    H142577   2.002   4.085   8.466  2.0245  2.6607 -0.7666
 7006TIP3    H242578   2.019   4.110   8.615  0.3298  0.2691 -0.1136
 7007TIP3   OH242579   4.448   0.325   2.171  0.0857 -0.0387 -0.1406
 7007TIP3    H142580   4.410   0.320   2.083  0.7088  1.5528 -0.5349
 7007TIP3    H242581   4.538   0.293   2.160 -0.0867 -0.5987  0.0840
 7008TIP3   OH242582   0.204   2.661   0.193 -0.0180 -0.4824 -0.5328
 7008TIP3    H142583   0.112   2.636   0.185  0.4192 -2.1939 -0.6631
 7008TIP3    H242584   0.217   2.730   0.128 -1.1629 -0.3017 -0.5887
 7009TIP3   OH242585   5.909   0.766   7.776 -0.0153 -0.1519  0.1034
 7009TIP3    H142586   5.949   0.683   7.749  1.8987 -0.4401  3.3066
 7009TIP3    H242587   5.968   0.833   7.741 -0.2246 -0.2602 -0.4627
 7010TIP3   OH242588   5.469   2.525   8.057 -0.3253 -0.0299 -0.8188
 7010TIP3    H142589   5.427   2.509   7.972 -1.1524 -0.4288 -0.3492
 7010TIP3    H242590   5.400   2.509   8.121  0.3161  0.1739 -0.0597
 7011TIP3   OH242591   2.950   1.662   1.089  0.0199  0.5640  0.1353
 7011TIP3    H142592   3.024   1.604   1.068  0.5677  1.3111 -0.0791
 7011TIP3    H242593   2.984   1.721   1.156  0.0691  1.7861 -0.9266
 7012TIP3   OH242594   4.072   0.277   3.135 -0.1030 -0.1642  0.5476
 7012TIP3    H142595   4.117   0.238   3.060  0.5686  1.8198 -0.1488
 7012TIP3    H242596   4.128   0.349   3.161 -1.6233  0.7858  1.3184
 7013TIP3   OH242597   3.079   3.667   8.294  0.0000  0.1978 -0.8596
 7013TIP3    H142598   3.149   3.712   8.342 -1.7583  1.4103  0.7447
 7013TIP3    H242599   3.032   3.618   8.362 -0.3440 -1.1094 -2.0097
 7014TIP3   OH242600   1.155   0.826   1.906  0.4552 -0.0313  0.0773
 7014TIP3    H142601   1.095   0.896   1.933  1.0802  0.7086 -0.4361
 7014TIP3    H242602   1.219   0.820   1.976  0.6663  0.2266 -0.0923
 7015TIP3   OH242603   3.618   1.896   1.150  0.0941 -0.3750  0.3937
 7015TIP3    H142604   3.639   1.955   1.077  1.0133  0.6349  1.4365
 7015TIP3    H242605   3.535   1.856   1.124  0.1069  0.3772 -0.9527
 7016TIP3   OH242606   3.216   4.933   7.078  0.2880  0.1728 -0.1667
 7016TIP3    H142607   3.155   4.933   7.152  0.4435  0.5031 -0.0345
 7016TIP3    H242608   3.238   5.026   7.066  0.4260  0.0980 -0.4936
 7017TIP3   OH242609   3.852   6.015   1.757  0.6661 -0.1647 -0.1381
 7017TIP3    H142610   3.873   5.947   1.822 -1.6195 -1.7628 -0.9381
 7017TIP3    H242611   3.936   6.034   1.715  1.9857  0.0102  2.3819
 7018TIP3   OH242612   4.980   0.298   1.555  0.0075  0.3060  0.2420
 7018TIP3    H142613   4.913   0.353   1.596 -0.7602 -0.0938 -0.4742
 7018TIP3    H242614   4.944   0.273   1.470  0.5170 -0.9738  0.3746
 7019TIP3   OH242615   1.935   5.408   0.664 -0.0259 -0.1283 -0.0536
 7019TIP3    H142616   1.959   5.451   0.582  0.2351 -1.0045 -0.4502
 7019TIP3    H242617   1.848   5.441   0.684  0.6184  1.4647  0.2673
 7020TIP3   OH242618   4.881   0.376   0.766 -0.8943  0.2608 -0.0067
 7020TIP3    H142619   4.789   0.378   0.794 -0.4678 -1.0765  1.6483
 7020TIP3    H242620   4.884   0.308   0.699 -1.5910  2.3122 -2.3046
 7021TIP3   OH242621   0.144   0.078   7.744  0.1428 -0.3059  0.3053
 7021TIP3    H142622   0.061   0.031   7.737  0.6855 -1.0638 -1.4669
 7021TIP3    H242623   0.209   0.018   7.710  0.9678  1.4204 -1.3886
 7022TIP3   OH242624   5.066   5.121   3.098 -0.1742 -0.9488 -0.0708
 7022TIP3    H142625   5.013   5.195   3.126  0.2131  0.5423 -2.9466
 7022TIP3    H242626   5.029   5.046   3.145 -3.2315  0.4110 -0.0586
 7023TIP3   OH242627   5.492   5.501   2.593  0.5163 -0.4725  0.5487
 7023TIP3    H142628   5.541   5.573   2.633  2.9597 -1.6589 -0.0634
 7023TIP3    H242629   5.547   5.473   2.519 -1.7643 -1.1050 -1.0193
 7024TIP3   OH242630   5.711   3.430   7.691 -0.4457  0.1217 -0.1852
 7024TIP3    H142631   5.769   3.447   7.766 -1.1081 -1.6633  0.8013
 7024TIP3    H242632   5.623   3.433   7.728 -0.8935  0.8661 -1.2689
 7025TIP3   OH242633   3.723   2.644   6.893  0.2295  0.3692 -0.6073
 7025TIP3    H142634   3.711   2.623   6.985 -1.2192 -0.1929 -0.8811
 7025TIP3    H242635   3.745   2.737   6.891 -3.8184  1.5566  0.1761
 7026TIP3   OH242636   3.965   0.122   8.626  0.3548 -0.2170  0.5625
 7026TIP3    H142637   3.907   0.170   8.567 -0.2519  0.3108  1.5592
 7026TIP3    H242638   3.968   0.034   8.588 -0.2974  0.0113 -0.0647
 7027TIP3   OH242639   6.267   4.194   2.765  0.4671  0.3178  0.2347
 7027TIP3    H142640   6.299   4.108   2.792  0.1645 -0.0886 -0.6668
 7027TIP3    H242641   6.177   4.178   2.738 -0.2279  1.2707  1.8103
 7028TIP3   OH242642   0.685   2.013   7.951  0.0536  0.6427 -0.5024
 7028TIP3    H142643   0.705   1.956   7.877 -1.0737 -0.7630  0.2117
 7028TIP3    H242644   0.597   1.988   7.978  0.0340  1.8351  0.6684
 7029TIP3   OH242645   4.658   0.296   8.007  0.1061  0.2064  0.3402
 7029TIP3    H142646   4.578   0.252   7.978  1.1373 -2.8419  1.7069
 7029TIP3    H242647   4.728   0.255   7.955  0.9034  2.3661 -0.4006
 7030TIP3   OH242648   4.369   3.569   8.180 -0.5986 -0.1743  0.4131
 7030TIP3    H142649   4.443   3.579   8.240 -0.7944  0.7408  0.5096
 7030TIP3    H242650   4.319   3.497   8.217  1.3900 -2.3623 -0.8520
 7031TIP3   OH242651   0.749   0.329   1.578  0.0276  0.5545  0.2743
 7031TIP3    H142652   0.691   0.393   1.537 -0.0818  0.6061  0.5085
 7031TIP3    H242653   0.836   0.369   1.571 -0.1209  1.0411  1.0053
 7032TIP3   OH242654   4.398   2.286   9.017 -0.1396  0.1476  0.4342
 7032TIP3    H142655   4.326   2.343   8.992 -0.6661  0.1664  1.9012
 7032TIP3    H242656   4.384   2.269   9.110  0.5119 -1.6306  0.2547
 7033TIP3   OH242657   6.592   5.764   0.780 -0.1711  0.3077 -0.8062
 7033TIP3    H142658   6.675   5.746   0.736 -0.2130 -0.2827 -0.6516
 7033TIP3    H242659   6.551   5.678   0.789 -0.5627  0.5356 -0.4124
 7034TIP3   OH242660   0.333   5.178   2.452 -0.3465  0.4079 -0.0712
 7034TIP3    H142661   0.413   5.229   2.436  1.0333 -1.0041  1.8243
 7034TIP3    H242662   0.335   5.108   2.387  0.0781  0.2566  0.1023
 7035TIP3   OH242663   3.019   2.774   0.995 -0.5205  0.3164 -0.0135
 7035TIP3    H142664   2.930   2.754   1.024 -0.9435  0.6739 -1.0250
 7035TIP3    H242665   3.014   2.775   0.900  0.9315 -1.3267 -0.1686
 7036TIP3   OH242666   1.801   2.932   8.570 -0.2319 -0.2392  0.3774
 7036TIP3    H142667   1.759   2.875   8.633  0.3870 -0.1726  0.8578
 7036TIP3    H242668   1.774   3.020   8.596  0.9970 -0.1169  1.3117
 7037TIP3   OH242669   3.295   2.589   2.147  0.1043 -0.5414 -0.3519
 7037TIP3    H142670   3.232   2.655   2.176 -1.1495 -1.2777 -1.3089
 7037TIP3    H242671   3.265   2.508   2.187  0.3449 -0.9403 -0.9693
 7038TIP3   OH242672   3.712   1.302   8.176  0.2872 -0.1627 -0.1901
 7038TIP3    H142673   3.675   1.350   8.250 -1.1784 -0.7406 -0.5133
 7038TIP3    H242674   3.777   1.361   8.139 -0.3292  0.9094  0.3984
 7039TIP3   OH242675   2.821   0.814   0.410  0.6305 -0.1774 -0.3517
 7039TIP3    H142676   2.782   0.782   0.492 -0.3320 -0.2952 -0.8373
 7039TIP3    H242677   2.754   0.872   0.374  1.8723  1.5328 -0.0493
 7040TIP3   OH242678   3.381   5.041   0.580  0.6442 -0.2324 -0.5924
 7040TIP3    H142679   3.359   4.949   0.592  1.6236 -0.2868  1.0372
 7040TIP3    H242680   3.345   5.085   0.657 -0.0295  0.8265 -1.4590
 7041TIP3   OH242681   5.167   3.977   2.559  0.1450 -0.1230  0.7172
 7041TIP3    H142682   5.212   4.012   2.483 -1.6280  1.5353  0.3239
 7041TIP3    H242683   5.126   4.054   2.599  0.9704 -0.9402  3.3403
 7042TIP3   OH242684   4.247   1.481   1.409 -0.4098 -0.1551 -0.3895
 7042TIP3    H142685   4.238   1.419   1.482  1.6159  0.8580  0.8055
 7042TIP3    H242686   4.287   1.429   1.339 -1.5880 -0.9297 -0.5166
 7043TIP3   OH242687   2.018   3.297   1.335  0.1798  0.3926  0.6114
 7043TIP3    H142688   2.007   3.306   1.429 -0.2060  2.0887  0.4390
 7043TIP3    H242689   2.086   3.361   1.313  0.1578  0.1189 -0.2800
 7044TIP3   OH242690   4.201   5.269   1.497  0.4846 -0.1144  0.2508
 7044TIP3    H142691   4.141   5.251   1.424  2.2042  0.6010 -1.4261
 7044TIP3    H242692   4.243   5.185   1.516  0.4395 -0.1841  0.0394
 7045TIP3   OH242693   4.833   3.458   7.888  0.3871 -0.2777  0.1606
 7045TIP3    H142694   4.772   3.423   7.953  0.3714 -0.9460 -0.2008
 7045TIP3    H242695   4.803   3.548   7.873 -0.1987 -0.4336  0.3705
 7046TIP3   OH242696   4.766   3.963   1.721 -0.1668  0.2179  0.6575
 7046TIP3    H142697   4.840   4.020   1.698 -1.0115  0.1490 -2.8426
 7046TIP3    H242698   4.689   4.017   1.707 -0.8785 -0.7826  0.6317
 7047TIP3   OH242699   5.530   0.831   2.759  0.2567  0.0125 -0.5318
 7047TIP3    H142700   5.506   0.920   2.733  2.5749  0.8886  0.0489
 7047TIP3    H242701   5.483   0.816   2.841  2.1600  1.9968  1.0466
 7048TIP3   OH242702   6.573   0.647   7.927  0.0669  0.2373  1.1700
 7048TIP3    H142703   6.479   0.665   7.919  0.5040  2.0466 -1.0631
 7048TIP3    H242704   6.584   0.558   7.893 -0.6573  0.7932 -0.6763
 7049TIP3   OH242705   4.770   4.275   3.010  0.4049 -0.2108  0.9616
 7049TIP3    H142706   4.853   4.322   3.001  1.3475 -2.0783 -1.0764
 7049TIP3    H242707   4.717   4.330   3.068  2.2548  2.1263  0.5787
 7050TIP3   OH242708   4.169   5.359   1.847  0.1404 -0.4251  0.4119
 7050TIP3    H142709   4.132   5.272   1.863  1.0843 -1.2161 -1.3310
 7050TIP3    H242710   4.262   5.350   1.868  0.4231 -0.1217 -0.6284
 7051TIP3   OH242711   4.774   2.892   7.341 -0.1571  0.2738  0.4553
 7051TIP3    H142712   4.809   2.848   7.418 -0.9159 -0.1497  0.5710
 7051TIP3    H242713   4.851   2.929   7.297  0.4489 -0.7808  0.6012
 7052TIP3   OH242714   6.433   3.093   0.831 -0.3589  0.1853  0.1356
 7052TIP3    H142715   6.415   3.001   0.812 -1.1463  0.3037  0.2700
 7052TIP3    H242716   6.368   3.141   0.779  0.2302  0.6791 -0.1575
 7053TIP3   OH242717   2.273   1.688   8.227 -0.2954  0.5645 -0.1015
 7053TIP3    H142718   2.268   1.593   8.232 -0.1895  0.5321 -0.5490
 7053TIP3    H242719   2.288   1.717   8.317  0.5025  0.1075 -0.0817
 7054TIP3   OH242720   1.175   1.850   2.339 -0.3687 -0.5192 -0.3921
 7054TIP3    H142721   1.201   1.884   2.424  0.4069 -1.4216 -0.2486
 7054TIP3    H242722   1.256   1.815   2.301 -0.3357  1.3275 -2.2373
 7055TIP3   OH242723   3.897   5.182   8.814 -0.1850 -0.4945  0.1001
 7055TIP3    H142724   3.854   5.183   8.729  0.8355 -1.0978 -0.4401
 7055TIP3    H242725   3.851   5.249   8.865 -0.1115  0.6385 -1.2687
 7056TIP3   OH242726   5.694   1.939   0.731  0.1582  0.2259 -0.1855
 7056TIP3    H142727   5.729   1.998   0.664  0.9033 -0.7968 -0.7253
 7056TIP3    H242728   5.616   1.984   0.764 -0.9313  0.2274 -2.5734
 7057TIP3   OH242729   5.955   3.560   2.134 -0.1288  0.2488  0.6076
 7057TIP3    H142730   6.045   3.587   2.115 -0.1522 -0.5086 -0.6839
 7057TIP3    H242731   5.963   3.504   2.212  0.8579 -1.5778 -0.7204
 7058TIP3   OH242732   0.829   5.910   7.360 -0.2934  0.1146 -0.0866
 7058TIP3    H142733   0.766   5.971   7.323  0.0766  0.9938  0.7148
 7058TIP3    H242734   0.788   5.879   7.441 -0.0643  0.0346  0.0003
 7059TIP3   OH242735   0.641   6.141   2.808 -0.9857  0.0386 -0.2495
 7059TIP3    H142736   0.722   6.108   2.770 -1.2290 -0.9845  0.0726
 7059TIP3    H242737   0.664   6.163   2.898 -1.2982 -1.3856  0.2154
 7060TIP3   OH242738   5.925   5.804   0.926 -0.3249 -0.7509 -0.1948
 7060TIP3    H142739   5.982   5.873   0.962 -1.3565 -1.1344  2.4014
 7060TIP3    H242740   5.869   5.850   0.863  1.3697  0.0214 -1.2257
 7061TIP3   OH242741   4.700   1.323   1.166  0.2052 -0.0758 -0.2456
 7061TIP3    H142742   4.697   1.273   1.248  3.0825  1.3412  0.8809
 7061TIP3    H242743   4.645   1.400   1.183  1.3823  0.5910  0.7109
 7062TIP3   OH242744   2.663   2.762   2.418 -0.1551 -0.7639  0.4080
 7062TIP3    H142745   2.750   2.726   2.438 -0.3841 -1.3499  0.3626
 7062TIP3    H242746   2.658   2.843   2.470  0.9826  0.0492 -0.7094
 7063TIP3   OH242747   6.433   3.978   7.845 -0.0626  0.1562 -0.1020
 7063TIP3    H142748   6.486   3.982   7.765 -0.6268 -0.8057 -0.5555
 7063TIP3    H242749   6.347   4.009   7.818 -0.4880 -0.9562 -0.1064
 7064LIG     O142750   3.507   2.435   2.649  0.5784  0.2004 -0.7703
 7064LIG     O242751   3.573   2.337   2.209 -0.5736  0.8493 -0.2265
 7064LIG     N142752   3.528   2.152   2.346  0.2537 -0.2049  0.7557
 7064LIG     N242753   3.472   2.138   2.700  0.3953 -0.3574  0.9512
 7064LIG     N342754   3.532   2.379   2.431 -0.2098  0.0129  0.2600
 7064LIG     N442755   3.479   1.990   2.526  0.0510  0.3747 -0.1983
 7064LIG     C142756   3.500   2.212   2.587  0.5426  0.2525 -0.2017
 7064LIG     C242757   3.507   2.118   2.477  0.1395 -0.7764 -0.5571
 7064LIG     C342758   3.507   2.347   2.566 -0.0386 -0.2908 -0.2320
 7064LIG     C442759   3.539   2.291   2.320 -1.0991 -0.2226  0.3688
 7064LIG     C542760   3.462   2.006   2.657 -0.8860  0.0699  0.3744
 7064LIG     C642761   3.552   2.057   2.231  0.4678  0.1737 -0.3119
 7064LIG     C742762   3.445   2.191   2.828  0.0728  0.5440 -0.9696
 7064LIG     C842763   3.547   2.521   2.408 -0.4803 -0.2814  0.4065
 7064LIG     H142764   3.422   1.928   2.722 -1.0538  0.3794  0.6454
 7064LIG     H242765   3.583   1.956   2.267  3.6053  1.3822  0.7260
 7064LIG     H342766   3.634   2.096   2.167  1.7433  2.5239  2.5566
 7064LIG     H442767   3.457   2.038   2.176  0.9902 -2.8023 -0.3558
 7064LIG     H542768   3.535   2.227   2.882  0.3766 -0.6695 -0.6485
 7064LIG     H642769   3.380   2.120   2.885 -0.9492  1.1061 -1.4084
 7064LIG     H742770   3.386   2.285   2.838  0.7914  0.7597  2.7238
 7064LIG     H842771   3.553   2.548   2.300  0.1395 -0.3339  0.4266
 7064LIG     H942772   3.640   2.558   2.455 -1.8397  1.3741  1.9531
 7064LIG    H1042773   3.474   2.588   2.458  1.1305  2.0672 -0.2080
   6.73089   6.73089   9.10674
