Title
42773
    1SAPS     N    1   4.208   4.263   6.371
    1SAPS   HN1    2   4.133   4.332   6.393
    1SAPS   HN2    3   4.287   4.292   6.431
    1SAPS   HN3    4   4.246   4.282   6.276
    1SAPS   C12    5   4.156   4.128   6.393
    1SAPS  H12A    6   4.086   4.109   6.313
    1SAPS   C13    7   4.265   4.013   6.389
    1SAPS  O13A    8   4.390   4.037   6.384
    1SAPS  O13B    9   4.218   3.901   6.412
    1SAPS   C11   10   4.078   4.113   6.533
    1SAPS  H11A   11   4.156   4.091   6.609
    1SAPS  H11B   12   4.020   4.020   6.515
    1SAPS     P   13   3.839   4.241   6.553
    1SAPS   O13   14   3.787   4.172   6.675
    1SAPS   O14   15   3.807   4.383   6.538
    1SAPS   O12   16   3.991   4.228   6.562
    1SAPS   O11   17   3.812   4.163   6.418
    1SAPS    C1   18   3.800   4.245   6.301
    1SAPS    HA   19   3.706   4.305   6.295
    1SAPS    HB   20   3.886   4.314   6.290
    1SAPS    C2   21   3.806   4.146   6.176
    1SAPS    HS   22   3.900   4.087   6.186
    1SAPS   O21   23   3.824   4.222   6.052
    1SAPS   C21   24   3.934   4.287   6.023
    1SAPS   O22   25   4.037   4.281   6.093
    1SAPS   C22   26   3.926   4.364   5.898
    1SAPS   H2R   27   3.922   4.286   5.818
    1SAPS   H2S   28   3.829   4.417   5.885
    1SAPS    C3   29   3.687   4.047   6.159
    1SAPS    HX   30   3.596   4.111   6.158
    1SAPS    HY   31   3.666   3.985   6.249
    1SAPS   O31   32   3.702   3.961   6.044
    1SAPS   C31   33   3.588   3.946   5.967
    1SAPS   O32   34   3.480   4.003   5.989
    1SAPS   C32   35   3.619   3.850   5.855
    1SAPS   H2X   36   3.526   3.795   5.830
    1SAPS   H2Y   37   3.691   3.775   5.894
    1SAPS   C23   38   4.055   4.443   5.864
    1SAPS   H3R   39   4.129   4.373   5.819
    1SAPS   H3S   40   4.093   4.489   5.958
    1SAPS   C24   41   4.024   4.556   5.770
    1SAPS   H4R   42   4.125   4.587   5.734
    1SAPS   H4S   43   3.971   4.634   5.829
    1SAPS   C25   44   3.943   4.522   5.650
    1SAPS   H5R   45   3.837   4.507   5.674
    1SAPS   C26   46   3.982   4.498   5.521
    1SAPS   H6R   47   3.908   4.455   5.451
    1SAPS   C27   48   4.125   4.500   5.468
    1SAPS   H7R   49   4.177   4.582   5.523
    1SAPS   H7S   50   4.124   4.532   5.361
    1SAPS   C28   51   4.201   4.373   5.479
    1SAPS   H8R   52   4.257   4.368   5.574
    1SAPS   C29   53   4.216   4.278   5.385
    1SAPS   H9R   54   4.298   4.205   5.398
    1SAPS  C210   55   4.166   4.281   5.243
    1SAPS  H10R   56   4.122   4.380   5.220
    1SAPS  H10S   57   4.095   4.196   5.241
    1SAPS  C211   58   4.282   4.254   5.151
    1SAPS  H11R   59   4.333   4.161   5.178
    1SAPS  C212   60   4.333   4.334   5.053
    1SAPS  H12R   61   4.412   4.298   4.986
    1SAPS  C213   62   4.279   4.470   5.009
    1SAPS  H13R   63   4.368   4.535   4.990
    1SAPS  H13S   64   4.230   4.519   5.095
    1SAPS  C214   65   4.175   4.466   4.901
    1SAPS  H14R   66   4.075   4.473   4.947
    1SAPS  C215   67   4.199   4.453   4.768
    1SAPS  H15R   68   4.114   4.464   4.699
    1SAPS  C216   69   4.335   4.439   4.705
    1SAPS  H16R   70   4.396   4.361   4.754
    1SAPS  H16S   71   4.381   4.539   4.723
    1SAPS  C217   72   4.338   4.406   4.552
    1SAPS  H17R   73   4.284   4.485   4.496
    1SAPS  H17S   74   4.283   4.312   4.529
    1SAPS  C218   75   4.478   4.401   4.489
    1SAPS  H18R   76   4.526   4.501   4.494
    1SAPS  H18S   77   4.454   4.374   4.384
    1SAPS  C219   78   4.569   4.292   4.557
    1SAPS  H19R   79   4.520   4.193   4.544
    1SAPS  H19S   80   4.575   4.304   4.668
    1SAPS  C220   81   4.708   4.287   4.496
    1SAPS  H20R   82   4.707   4.230   4.400
    1SAPS  H20S   83   4.777   4.242   4.570
    1SAPS  H20T   84   4.748   4.390   4.486
    1SAPS   C33   85   3.670   3.923   5.726
    1SAPS   H3X   86   3.669   3.855   5.638
    1SAPS   H3Y   87   3.775   3.956   5.737
    1SAPS   C34   88   3.593   4.043   5.680
    1SAPS   H4X   89   3.606   4.131   5.746
    1SAPS   H4Y   90   3.484   4.022   5.673
    1SAPS   C35   91   3.632   4.082   5.535
    1SAPS   H5X   92   3.583   4.175   5.499
    1SAPS   H5Y   93   3.578   4.013   5.467
    1SAPS   C36   94   3.782   4.085   5.492
    1SAPS   H6X   95   3.808   3.977   5.491
    1SAPS   H6Y   96   3.839   4.140   5.570
    1SAPS   C37   97   3.792   4.145   5.354
    1SAPS   H7X   98   3.901   4.152   5.333
    1SAPS   H7Y   99   3.747   4.246   5.341
    1SAPS   C38  100   3.731   4.046   5.255
    1SAPS   H8X  101   3.622   4.034   5.272
    1SAPS   H8Y  102   3.776   3.945   5.268
    1SAPS   C39  103   3.761   4.077   5.104
    1SAPS   H9X  104   3.747   4.185   5.086
    1SAPS   H9Y  105   3.692   4.015   5.042
    1SAPS  C310  106   3.906   4.054   5.064
    1SAPS  H10X  107   3.910   3.949   5.030
    1SAPS  H10Y  108   3.980   4.060   5.148
    1SAPS  C311  109   3.958   4.140   4.947
    1SAPS  H11X  110   4.063   4.109   4.928
    1SAPS  H11Y  111   3.954   4.245   4.984
    1SAPS  C312  112   3.873   4.129   4.817
    1SAPS  H12X  113   3.779   4.186   4.832
    1SAPS  H12Y  114   3.850   4.029   4.774
    1SAPS  C313  115   3.926   4.210   4.695
    1SAPS  H13X  116   4.032   4.185   4.674
    1SAPS  H13Y  117   3.920   4.319   4.714
    1SAPS  C314  118   3.839   4.184   4.573
    1SAPS  H14X  119   3.735   4.217   4.594
    1SAPS  H14Y  120   3.827   4.076   4.551
    1SAPS  C315  121   3.888   4.247   4.433
    1SAPS  H15X  122   3.808   4.228   4.358
    1SAPS  H15Y  123   3.979   4.188   4.408
    1SAPS  C316  124   3.924   4.399   4.445
    1SAPS  H16X  125   3.996   4.414   4.528
    1SAPS  H16Y  126   3.831   4.457   4.465
    1SAPS  C317  127   3.985   4.456   4.316
    1SAPS  H17X  128   3.923   4.430   4.228
    1SAPS  H17Y  129   4.088   4.413   4.315
    1SAPS  C318  130   3.992   4.618   4.317
    1SAPS  H18X  131   4.036   4.660   4.224
    1SAPS  H18Y  132   4.059   4.657   4.396
    1SAPS  H18Z  133   3.887   4.650   4.329
    2SAPS     N  134   3.757   6.514   6.559
    2SAPS   HN1  135   3.656   6.489   6.569
    2SAPS   HN2  136   3.774   6.594   6.624
    2SAPS   HN3  137   3.776   6.536   6.459
    2SAPS   C12  138   3.831   6.391   6.609
    2SAPS  H12A  139   3.934   6.421   6.619
    2SAPS   C13  140   3.776   6.327   6.741
    2SAPS  O13A  141   3.675   6.393   6.789
    2SAPS  O13B  142   3.819   6.221   6.788
    2SAPS   C11  143   3.833   6.286   6.490
    2SAPS  H11A  144   3.737   6.292   6.436
    2SAPS  H11B  145   3.841   6.180   6.523
    2SAPS     P  146   4.076   6.256   6.414
    2SAPS   O13  147   4.132   6.270   6.552
    2SAPS   O14  148   4.064   6.118   6.366
    2SAPS   O12  149   3.938   6.331   6.404
    2SAPS   O11  150   4.158   6.337   6.315
    2SAPS    C1  151   4.097   6.370   6.185
    2SAPS    HA  152   4.059   6.279   6.134
    2SAPS    HB  153   4.016   6.444   6.199
    2SAPS    C2  154   4.208   6.413   6.086
    2SAPS    HS  155   4.297   6.347   6.100
    2SAPS   O21  156   4.226   6.560   6.103
    2SAPS   C21  157   4.356   6.598   6.076
    2SAPS   O22  158   4.454   6.532   6.082
    2SAPS   C22  159   4.352   6.744   6.028
    2SAPS   H2R  160   4.297   6.740   5.931
    2SAPS   H2S  161   4.298   6.802   6.106
    2SAPS    C3  162   4.151   6.391   5.941
    2SAPS    HX  163   4.055   6.443   5.961
    2SAPS    HY  164   4.130   6.285   5.916
    2SAPS   O31  165   4.226   6.460   5.840
    2SAPS   C31  166   4.339   6.402   5.815
    2SAPS   O32  167   4.366   6.285   5.833
    2SAPS   C32  168   4.438   6.506   5.763
    2SAPS   H2X  169   4.540   6.483   5.800
    2SAPS   H2Y  170   4.408   6.606   5.802
    2SAPS   C23  171   4.500   6.803   6.007
    2SAPS   H3R  172   4.556   6.727   5.948
    2SAPS   H3S  173   4.550   6.816   6.105
    2SAPS   C24  174   4.494   6.926   5.919
    2SAPS   H4R  175   4.443   7.011   5.968
    2SAPS   H4S  176   4.437   6.901   5.827
    2SAPS   C25  177   4.633   6.961   5.877
    2SAPS   H5R  178   4.702   6.950   5.962
    2SAPS   C26  179   4.678   7.016   5.758
    2SAPS   H6R  180   4.784   7.036   5.736
    2SAPS   C27  181   4.592   7.048   5.638
    2SAPS   H7R  182   4.488   7.069   5.670
    2SAPS   H7S  183   4.602   6.964   5.566
    2SAPS   C28  184   4.644   7.170   5.569
    2SAPS   H8R  185   4.694   7.245   5.632
    2SAPS   C29  186   4.611   7.217   5.444
    2SAPS   H9R  187   4.672   7.295   5.397
    2SAPS  C210  188   4.512   7.162   5.353
    2SAPS  H10R  189   4.450   7.093   5.414
    2SAPS  H10S  190   4.568   7.118   5.267
    2SAPS  C211  191   4.418   7.266   5.301
    2SAPS  H11R  192   4.389   7.343   5.375
    2SAPS  C212  193   4.383   7.295   5.175
    2SAPS  H12R  194   4.304   7.368   5.153
    2SAPS  C213  195   4.423   7.215   5.051
    2SAPS  H13R  196   4.342   7.218   4.974
    2SAPS  H13S  197   4.421   7.107   5.076
    2SAPS  C214  198   4.546   7.254   4.979
    2SAPS  H14R  199   4.617   7.311   5.039
    2SAPS  C215  200   4.584   7.242   4.852
    2SAPS  H15R  201   4.675   7.291   4.814
    2SAPS  C216  202   4.501   7.169   4.747
    2SAPS  H16R  203   4.440   7.095   4.804
    2SAPS  H16S  204   4.574   7.118   4.681
    2SAPS  C217  205   4.422   7.254   4.644
    2SAPS  H17R  206   4.376   7.185   4.570
    2SAPS  H17S  207   4.503   7.317   4.600
    2SAPS  C218  208   4.307   7.336   4.712
    2SAPS  H18R  209   4.348   7.406   4.788
    2SAPS  H18S  210   4.248   7.261   4.769
    2SAPS  C219  211   4.216   7.401   4.601
    2SAPS  H19R  212   4.138   7.457   4.655
    2SAPS  H19S  213   4.160   7.326   4.542
    2SAPS  C220  214   4.302   7.487   4.506
    2SAPS  H20R  215   4.227   7.539   4.443
    2SAPS  H20S  216   4.368   7.426   4.440
    2SAPS  H20T  217   4.356   7.568   4.559
    2SAPS   C33  218   4.447   6.517   5.607
    2SAPS   H3X  219   4.432   6.413   5.570
    2SAPS   H3Y  220   4.547   6.551   5.574
    2SAPS   C34  221   4.342   6.609   5.544
    2SAPS   H4X  222   4.381   6.713   5.546
    2SAPS   H4Y  223   4.248   6.620   5.602
    2SAPS   C35  224   4.301   6.584   5.399
    2SAPS   H5X  225   4.270   6.477   5.397
    2SAPS   H5Y  226   4.396   6.578   5.342
    2SAPS   C36  227   4.207   6.681   5.341
    2SAPS   H6X  228   4.230   6.788   5.355
    2SAPS   H6Y  229   4.106   6.670   5.385
    2SAPS   C37  230   4.176   6.672   5.191
    2SAPS   H7X  231   4.120   6.761   5.156
    2SAPS   H7Y  232   4.114   6.579   5.184
    2SAPS   C38  233   4.301   6.647   5.101
    2SAPS   H8X  234   4.364   6.564   5.138
    2SAPS   H8Y  235   4.357   6.743   5.099
    2SAPS   C39  236   4.261   6.601   4.955
    2SAPS   H9X  237   4.194   6.513   4.952
    2SAPS   H9Y  238   4.362   6.568   4.922
    2SAPS  C310  239   4.220   6.717   4.862
    2SAPS  H10X  240   4.293   6.801   4.860
    2SAPS  H10Y  241   4.123   6.754   4.902
    2SAPS  C311  242   4.197   6.678   4.707
    2SAPS  H11X  243   4.142   6.759   4.655
    2SAPS  H11Y  244   4.134   6.587   4.692
    2SAPS  C312  245   4.322   6.684   4.621
    2SAPS  H12X  246   4.398   6.619   4.668
    2SAPS  H12Y  247   4.360   6.789   4.625
    2SAPS  C313  248   4.319   6.643   4.476
    2SAPS  H13X  249   4.217   6.661   4.436
    2SAPS  H13Y  250   4.321   6.532   4.470
    2SAPS  C314  251   4.428   6.702   4.386
    2SAPS  H14X  252   4.395   6.673   4.284
    2SAPS  H14Y  253   4.528   6.661   4.412
    2SAPS  C315  254   4.441   6.856   4.382
    2SAPS  H15X  255   4.538   6.874   4.331
    2SAPS  H15Y  256   4.457   6.896   4.484
    2SAPS  C316  257   4.331   6.916   4.306
    2SAPS  H16X  258   4.237   6.885   4.356
    2SAPS  H16Y  259   4.328   6.867   4.206
    2SAPS  C317  260   4.336   7.066   4.280
    2SAPS  H17X  261   4.356   7.117   4.377
    2SAPS  H17Y  262   4.227   7.087   4.273
    2SAPS  C318  263   4.401   7.117   4.152
    2SAPS  H18X  264   4.372   7.064   4.058
    2SAPS  H18Y  265   4.511   7.111   4.160
    2SAPS  H18Z  266   4.380   7.226   4.145
    3SAPS     N  267   4.286   5.144   6.484
    3SAPS   HN1  268   4.196   5.172   6.528
    3SAPS   HN2  269   4.347   5.212   6.435
    3SAPS   HN3  270   4.276   5.059   6.425
    3SAPS   C12  271   4.371   5.107   6.606
    3SAPS  H12A  272   4.405   5.203   6.641
    3SAPS   C13  273   4.294   5.044   6.727
    3SAPS  O13A  274   4.166   5.026   6.719
    3SAPS  O13B  275   4.357   5.047   6.837
    3SAPS   C11  276   4.481   5.017   6.569
    3SAPS  H11A  277   4.438   4.919   6.540
    3SAPS  H11B  278   4.548   4.993   6.655
    3SAPS     P  279   4.692   5.138   6.471
    3SAPS   O13  280   4.671   5.264   6.544
    3SAPS   O14  281   4.803   5.052   6.521
    3SAPS   O12  282   4.556   5.058   6.456
    3SAPS   O11  283   4.708   5.177   6.315
    3SAPS    C1  284   4.700   5.065   6.224
    3SAPS    HA  285   4.598   5.022   6.224
    3SAPS    HB  286   4.712   5.108   6.122
    3SAPS    C2  287   4.807   4.954   6.219
    3SAPS    HS  288   4.780   4.888   6.304
    3SAPS   O21  289   4.932   5.015   6.257
    3SAPS   C21  290   5.017   4.927   6.306
    3SAPS   O22  291   5.004   4.808   6.295
    3SAPS   C22  292   5.148   4.997   6.335
    3SAPS   H2R  293   5.124   5.105   6.350
    3SAPS   H2S  294   5.199   4.971   6.430
    3SAPS    C3  295   4.809   4.872   6.089
    3SAPS    HX  296   4.706   4.830   6.081
    3SAPS    HY  297   4.883   4.791   6.101
    3SAPS   O31  298   4.850   4.939   5.970
    3SAPS   C31  299   4.760   4.949   5.873
    3SAPS   O32  300   4.641   4.923   5.878
    3SAPS   C32  301   4.819   5.009   5.747
    3SAPS   H2X  302   4.929   5.022   5.744
    3SAPS   H2Y  303   4.773   5.110   5.748
    3SAPS   C23  304   5.239   4.971   6.221
    3SAPS   H3R  305   5.264   4.864   6.204
    3SAPS   H3S  306   5.327   5.037   6.237
    3SAPS   C24  307   5.187   5.012   6.077
    3SAPS   H4R  308   5.181   5.122   6.063
    3SAPS   H4S  309   5.086   4.968   6.063
    3SAPS   C25  310   5.280   4.954   5.973
    3SAPS   H5R  311   5.334   4.863   6.005
    3SAPS   C26  312   5.297   4.995   5.847
    3SAPS   H6R  313   5.368   4.942   5.782
    3SAPS   C27  314   5.221   5.113   5.784
    3SAPS   H7R  315   5.261   5.210   5.821
    3SAPS   H7S  316   5.114   5.111   5.815
    3SAPS   C28  317   5.229   5.109   5.632
    3SAPS   H8R  318   5.291   5.031   5.585
    3SAPS   C29  319   5.160   5.181   5.541
    3SAPS   H9R  320   5.187   5.171   5.435
    3SAPS  C210  321   5.054   5.280   5.584
    3SAPS  H10R  322   5.095   5.384   5.587
    3SAPS  H10S  323   5.019   5.277   5.689
    3SAPS  C211  324   4.932   5.272   5.489
    3SAPS  H11R  325   4.843   5.237   5.543
    3SAPS  C212  326   4.930   5.301   5.359
    3SAPS  H12R  327   4.834   5.279   5.309
    3SAPS  C213  328   5.045   5.352   5.272
    3SAPS  H13R  329   5.124   5.389   5.341
    3SAPS  H13S  330   5.009   5.443   5.218
    3SAPS  C214  331   5.096   5.246   5.185
    3SAPS  H14R  332   5.188   5.195   5.216
    3SAPS  C215  333   5.039   5.214   5.061
    3SAPS  H15R  334   5.079   5.136   4.994
    3SAPS  C216  335   4.917   5.279   4.999
    3SAPS  H16R  336   4.918   5.277   4.887
    3SAPS  H16S  337   4.906   5.388   5.015
    3SAPS  C217  338   4.792   5.203   5.044
    3SAPS  H17R  339   4.807   5.151   5.141
    3SAPS  H17S  340   4.770   5.120   4.973
    3SAPS  C218  341   4.677   5.300   5.047
    3SAPS  H18R  342   4.651   5.326   4.942
    3SAPS  H18S  343   4.703   5.384   5.115
    3SAPS  C219  344   4.545   5.246   5.106
    3SAPS  H19R  345   4.471   5.325   5.087
    3SAPS  H19S  346   4.521   5.153   5.050
    3SAPS  C220  347   4.547   5.214   5.253
    3SAPS  H20R  348   4.447   5.174   5.280
    3SAPS  H20S  349   4.574   5.304   5.313
    3SAPS  H20T  350   4.625   5.142   5.285
    3SAPS   C33  351   4.773   4.946   5.612
    3SAPS   H3X  352   4.716   5.016   5.548
    3SAPS   H3Y  353   4.725   4.847   5.628
    3SAPS   C34  354   4.895   4.922   5.518
    3SAPS   H4X  355   4.959   4.844   5.565
    3SAPS   H4Y  356   4.952   5.017   5.504
    3SAPS   C35  357   4.854   4.870   5.382
    3SAPS   H5X  358   4.779   4.789   5.398
    3SAPS   H5Y  359   4.804   4.950   5.323
    3SAPS   C36  360   4.977   4.805   5.308
    3SAPS   H6X  361   5.008   4.719   5.370
    3SAPS   H6Y  362   5.063   4.874   5.292
    3SAPS   C37  363   4.948   4.742   5.170
    3SAPS   H7X  364   4.860   4.675   5.181
    3SAPS   H7Y  365   5.032   4.681   5.130
    3SAPS   C38  366   4.911   4.848   5.068
    3SAPS   H8X  367   4.982   4.932   5.083
    3SAPS   H8Y  368   4.808   4.888   5.082
    3SAPS   C39  369   4.925   4.796   4.928
    3SAPS   H9X  370   4.862   4.704   4.921
    3SAPS   H9Y  371   5.033   4.775   4.912
    3SAPS  C310  372   4.883   4.893   4.817
    3SAPS  H10X  373   4.895   4.998   4.853
    3SAPS  H10Y  374   4.774   4.872   4.807
    3SAPS  C311  375   4.974   4.883   4.697
    3SAPS  H11X  376   4.982   4.776   4.667
    3SAPS  H11Y  377   5.074   4.911   4.737
    3SAPS  C312  378   4.924   4.965   4.584
    3SAPS  H12X  379   4.994   4.998   4.504
    3SAPS  H12Y  380   4.882   5.062   4.616
    3SAPS  C313  381   4.809   4.899   4.517
    3SAPS  H13X  382   4.727   4.869   4.585
    3SAPS  H13Y  383   4.847   4.808   4.466
    3SAPS  C314  384   4.756   4.989   4.407
    3SAPS  H14X  385   4.842   5.025   4.346
    3SAPS  H14Y  386   4.717   5.081   4.455
    3SAPS  C315  387   4.664   4.918   4.311
    3SAPS  H15X  388   4.602   4.841   4.360
    3SAPS  H15Y  389   4.723   4.865   4.233
    3SAPS  C316  390   4.560   5.009   4.249
    3SAPS  H16X  391   4.508   5.052   4.337
    3SAPS  H16Y  392   4.480   4.952   4.199
    3SAPS  C317  393   4.623   5.135   4.174
    3SAPS  H17X  394   4.710   5.173   4.232
    3SAPS  H17Y  395   4.539   5.207   4.171
    3SAPS  C318  396   4.680   5.108   4.038
    3SAPS  H18X  397   4.711   5.201   3.985
    3SAPS  H18Y  398   4.596   5.077   3.972
    3SAPS  H18Z  399   4.757   5.028   4.032
    4SAPS     N  400   3.242   3.353   6.428
    4SAPS   HN1  401   3.279   3.260   6.456
    4SAPS   HN2  402   3.219   3.352   6.327
    4SAPS   HN3  403   3.324   3.416   6.434
    4SAPS   C12  404   3.136   3.407   6.519
    4SAPS  H12A  405   3.183   3.419   6.615
    4SAPS   C13  406   3.072   3.544   6.488
    4SAPS  O13A  407   3.105   3.596   6.386
    4SAPS  O13B  408   2.976   3.581   6.559
    4SAPS   C11  409   3.026   3.296   6.520
    4SAPS  H11A  410   2.965   3.283   6.428
    4SAPS  H11B  411   2.948   3.335   6.589
    4SAPS     P  412   2.972   3.052   6.598
    4SAPS   O13  413   3.058   2.935   6.631
    4SAPS   O14  414   2.861   3.094   6.686
    4SAPS   O12  415   3.076   3.171   6.570
    4SAPS   O11  416   2.912   3.023   6.452
    4SAPS    C1  417   2.996   3.023   6.339
    4SAPS    HA  418   3.070   3.107   6.339
    4SAPS    HB  419   3.043   2.923   6.334
    4SAPS    C2  420   2.918   3.051   6.204
    4SAPS    HS  421   2.873   3.153   6.205
    4SAPS   O21  422   2.819   2.955   6.191
    4SAPS   C21  423   2.713   2.994   6.124
    4SAPS   O22  424   2.684   3.109   6.098
    4SAPS   C22  425   2.640   2.872   6.075
    4SAPS   H2R  426   2.703   2.836   5.991
    4SAPS   H2S  427   2.629   2.805   6.162
    4SAPS    C3  428   3.020   3.043   6.082
    4SAPS    HX  429   3.079   2.949   6.094
    4SAPS    HY  430   3.091   3.128   6.098
    4SAPS   O31  431   2.962   3.043   5.945
    4SAPS   C31  432   2.915   3.161   5.897
    4SAPS   O32  433   2.924   3.272   5.948
    4SAPS   C32  434   2.851   3.153   5.765
    4SAPS   H2X  435   2.752   3.202   5.763
    4SAPS   H2Y  436   2.829   3.046   5.746
    4SAPS   C23  437   2.500   2.926   6.029
    4SAPS   H3R  438   2.495   2.953   5.921
    4SAPS   H3S  439   2.470   3.017   6.086
    4SAPS   C24  440   2.392   2.815   6.039
    4SAPS   H4R  441   2.301   2.862   5.998
    4SAPS   H4S  442   2.366   2.787   6.143
    4SAPS   C25  443   2.411   2.674   5.969
    4SAPS   H5R  444   2.463   2.603   6.035
    4SAPS   C26  445   2.364   2.646   5.845
    4SAPS   H6R  446   2.386   2.546   5.804
    4SAPS   C27  447   2.276   2.737   5.757
    4SAPS   H7R  448   2.344   2.810   5.709
    4SAPS   H7S  449   2.209   2.791   5.827
    4SAPS   C28  450   2.189   2.658   5.662
    4SAPS   H8R  451   2.089   2.625   5.694
    4SAPS   C29  452   2.221   2.650   5.530
    4SAPS   H9R  453   2.155   2.598   5.460
    4SAPS  C210  454   2.348   2.703   5.463
    4SAPS  H10R  455   2.403   2.764   5.537
    4SAPS  H10S  456   2.325   2.767   5.375
    4SAPS  C211  457   2.428   2.581   5.426
    4SAPS  H11R  458   2.436   2.502   5.502
    4SAPS  C212  459   2.482   2.553   5.311
    4SAPS  H12R  460   2.533   2.457   5.293
    4SAPS  C213  461   2.482   2.642   5.189
    4SAPS  H13R  462   2.571   2.640   5.122
    4SAPS  H13S  463   2.475   2.748   5.222
    4SAPS  C214  464   2.349   2.614   5.115
    4SAPS  H14R  465   2.258   2.619   5.177
    4SAPS  C215  466   2.326   2.583   4.984
    4SAPS  H15R  467   2.220   2.579   4.956
    4SAPS  C216  468   2.428   2.576   4.871
    4SAPS  H16R  469   2.453   2.468   4.869
    4SAPS  H16S  470   2.514   2.645   4.883
    4SAPS  C217  471   2.367   2.610   4.729
    4SAPS  H17R  472   2.449   2.582   4.659
    4SAPS  H17S  473   2.352   2.720   4.726
    4SAPS  C218  474   2.234   2.534   4.691
    4SAPS  H18R  475   2.149   2.574   4.750
    4SAPS  H18S  476   2.256   2.428   4.717
    4SAPS  C219  477   2.184   2.540   4.543
    4SAPS  H19R  478   2.160   2.643   4.510
    4SAPS  H19S  479   2.092   2.477   4.541
    4SAPS  C220  480   2.291   2.482   4.448
    4SAPS  H20R  481   2.241   2.452   4.353
    4SAPS  H20S  482   2.340   2.387   4.479
    4SAPS  H20T  483   2.367   2.558   4.419
    4SAPS   C33  484   2.942   3.201   5.651
    4SAPS   H3X  485   3.047   3.165   5.655
    4SAPS   H3Y  486   2.949   3.311   5.665
    4SAPS   C34  487   2.874   3.195   5.513
    4SAPS   H4X  488   2.782   3.256   5.507
    4SAPS   H4Y  489   2.845   3.088   5.501
    4SAPS   C35  490   2.968   3.238   5.405
    4SAPS   H5X  491   3.067   3.191   5.424
    4SAPS   H5Y  492   2.984   3.348   5.406
    4SAPS   C36  493   2.935   3.213   5.257
    4SAPS   H6X  494   2.867   3.294   5.224
    4SAPS   H6Y  495   2.879   3.120   5.233
    4SAPS   C37  496   3.072   3.212   5.173
    4SAPS   H7X  497   3.122   3.113   5.176
    4SAPS   H7Y  498   3.143   3.290   5.210
    4SAPS   C38  499   3.028   3.256   5.032
    4SAPS   H8X  500   2.974   3.353   5.039
    4SAPS   H8Y  501   2.954   3.182   4.996
    4SAPS   C39  502   3.131   3.255   4.920
    4SAPS   H9X  503   3.165   3.152   4.896
    4SAPS   H9Y  504   3.218   3.318   4.947
    4SAPS  C310  505   3.079   3.327   4.785
    4SAPS  H10X  506   3.158   3.317   4.708
    4SAPS  H10Y  507   3.076   3.437   4.801
    4SAPS  C311  508   2.946   3.271   4.747
    4SAPS  H11X  509   2.861   3.301   4.812
    4SAPS  H11Y  510   2.951   3.160   4.750
    4SAPS  C312  511   2.895   3.303   4.604
    4SAPS  H12X  512   2.977   3.289   4.530
    4SAPS  H12Y  513   2.855   3.407   4.607
    4SAPS  C313  514   2.778   3.213   4.549
    4SAPS  H13X  515   2.700   3.205   4.627
    4SAPS  H13Y  516   2.830   3.115   4.538
    4SAPS  C314  517   2.727   3.247   4.411
    4SAPS  H14X  518   2.657   3.173   4.368
    4SAPS  H14Y  519   2.816   3.263   4.346
    4SAPS  C315  520   2.642   3.383   4.413
    4SAPS  H15X  521   2.697   3.475   4.386
    4SAPS  H15Y  522   2.605   3.401   4.516
    4SAPS  C316  523   2.527   3.374   4.320
    4SAPS  H16X  524   2.461   3.289   4.348
    4SAPS  H16Y  525   2.570   3.371   4.218
    4SAPS  C317  526   2.431   3.496   4.322
    4SAPS  H17X  527   2.342   3.478   4.257
    4SAPS  H17Y  528   2.495   3.580   4.286
    4SAPS  C318  529   2.389   3.529   4.470
    4SAPS  H18X  530   2.341   3.439   4.516
    4SAPS  H18Y  531   2.309   3.604   4.487
    4SAPS  H18Z  532   2.471   3.558   4.539
    5SAPS     N  533   4.641   5.518   6.425
    5SAPS   HN1  534   4.720   5.565   6.474
    5SAPS   HN2  535   4.647   5.418   6.453
    5SAPS   HN3  536   4.638   5.539   6.323
    5SAPS   C12  537   4.504   5.567   6.477
    5SAPS  H12A  538   4.486   5.670   6.448
    5SAPS   C13  539   4.380   5.492   6.429
    5SAPS  O13A  540   4.387   5.371   6.394
    5SAPS  O13B  541   4.272   5.549   6.463
    5SAPS   C11  542   4.518   5.569   6.630
    5SAPS  H11A  543   4.555   5.470   6.663
    5SAPS  H11B  544   4.419   5.586   6.677
    5SAPS     P  545   4.724   5.669   6.767
    5SAPS   O13  546   4.763   5.805   6.812
    5SAPS   O14  547   4.701   5.562   6.870
    5SAPS   O12  548   4.600   5.680   6.667
    5SAPS   O11  549   4.831   5.616   6.667
    5SAPS    C1  550   4.888   5.488   6.685
    5SAPS    HA  551   4.932   5.479   6.786
    5SAPS    HB  552   4.817   5.404   6.673
    5SAPS    C2  553   4.998   5.451   6.580
    5SAPS    HS  554   5.066   5.539   6.582
    5SAPS   O21  555   4.929   5.438   6.453
    5SAPS   C21  556   5.009   5.447   6.349
    5SAPS   O22  557   5.119   5.498   6.345
    5SAPS   C22  558   4.938   5.395   6.229
    5SAPS   H2R  559   4.891   5.300   6.265
    5SAPS   H2S  560   4.861   5.473   6.208
    5SAPS    C3  561   5.073   5.321   6.631
    5SAPS    HX  562   4.991   5.247   6.631
    5SAPS    HY  563   5.112   5.334   6.734
    5SAPS   O31  564   5.178   5.277   6.542
    5SAPS   C31  565   5.291   5.340   6.545
    5SAPS   O32  566   5.315   5.441   6.605
    5SAPS   C32  567   5.393   5.248   6.483
    5SAPS   H2X  568   5.338   5.205   6.397
    5SAPS   H2Y  569   5.417   5.169   6.557
    5SAPS   C23  570   5.028   5.372   6.104
    5SAPS   H3R  571   5.123   5.328   6.142
    5SAPS   H3S  572   5.060   5.465   6.052
    5SAPS   C24  573   4.950   5.292   5.995
    5SAPS   H4R  574   4.937   5.194   6.046
    5SAPS   H4S  575   5.012   5.289   5.903
    5SAPS   C25  576   4.811   5.338   5.958
    5SAPS   H5R  577   4.725   5.296   6.012
    5SAPS   C26  578   4.781   5.433   5.870
    5SAPS   H6R  579   4.673   5.454   5.865
    5SAPS   C27  580   4.872   5.522   5.779
    5SAPS   H7R  581   4.860   5.492   5.673
    5SAPS   H7S  582   4.980   5.508   5.798
    5SAPS   C28  583   4.836   5.672   5.808
    5SAPS   H8R  584   4.891   5.713   5.894
    5SAPS   C29  585   4.750   5.751   5.735
    5SAPS   H9R  586   4.744   5.856   5.767
    5SAPS  C210  587   4.683   5.725   5.605
    5SAPS  H10R  588   4.645   5.823   5.568
    5SAPS  H10S  589   4.593   5.665   5.630
    5SAPS  C211  590   4.750   5.652   5.493
    5SAPS  H11R  591   4.850   5.612   5.512
    5SAPS  C212  592   4.691   5.631   5.371
    5SAPS  H12R  593   4.761   5.595   5.293
    5SAPS  C213  594   4.542   5.657   5.345
    5SAPS  H13R  595   4.529   5.765   5.327
    5SAPS  H13S  596   4.471   5.626   5.424
    5SAPS  C214  597   4.486   5.582   5.227
    5SAPS  H14R  598   4.432   5.490   5.251
    5SAPS  C215  599   4.471   5.633   5.105
    5SAPS  H15R  600   4.416   5.579   5.026
    5SAPS  C216  601   4.519   5.767   5.049
    5SAPS  H16R  602   4.541   5.836   5.133
    5SAPS  H16S  603   4.437   5.825   5.002
    5SAPS  C217  604   4.621   5.751   4.937
    5SAPS  H17R  605   4.698   5.674   4.960
    5SAPS  H17S  606   4.688   5.840   4.934
    5SAPS  C218  607   4.567   5.719   4.799
    5SAPS  H18R  608   4.505   5.810   4.783
    5SAPS  H18S  609   4.503   5.629   4.806
    5SAPS  C219  610   4.666   5.698   4.687
    5SAPS  H19R  611   4.724   5.604   4.693
    5SAPS  H19S  612   4.739   5.781   4.697
    5SAPS  C220  613   4.600   5.726   4.557
    5SAPS  H20R  614   4.522   5.655   4.521
    5SAPS  H20S  615   4.675   5.734   4.476
    5SAPS  H20T  616   4.544   5.821   4.569
    5SAPS   C33  617   5.519   5.332   6.441
    5SAPS   H3X  618   5.605   5.266   6.420
    5SAPS   H3Y  619   5.554   5.397   6.524
    5SAPS   C34  620   5.508   5.416   6.312
    5SAPS   H4X  621   5.600   5.478   6.305
    5SAPS   H4Y  622   5.412   5.471   6.308
    5SAPS   C35  623   5.511   5.334   6.185
    5SAPS   H5X  624   5.450   5.242   6.193
    5SAPS   H5Y  625   5.613   5.295   6.167
    5SAPS   C36  626   5.456   5.413   6.060
    5SAPS   H6X  627   5.491   5.518   6.057
    5SAPS   H6Y  628   5.346   5.404   6.064
    5SAPS   C37  629   5.507   5.349   5.927
    5SAPS   H7X  630   5.462   5.252   5.896
    5SAPS   H7Y  631   5.617   5.353   5.908
    5SAPS   C38  632   5.454   5.421   5.802
    5SAPS   H8X  633   5.490   5.525   5.790
    5SAPS   H8Y  634   5.343   5.417   5.801
    5SAPS   C39  635   5.497   5.359   5.673
    5SAPS   H9X  636   5.469   5.253   5.657
    5SAPS   H9Y  637   5.607   5.349   5.658
    5SAPS  C310  638   5.462   5.434   5.546
    5SAPS  H10X  639   5.500   5.539   5.550
    5SAPS  H10Y  640   5.352   5.446   5.553
    5SAPS  C311  641   5.497   5.362   5.411
    5SAPS  H11X  642   5.478   5.253   5.421
    5SAPS  H11Y  643   5.606   5.376   5.397
    5SAPS  C312  644   5.428   5.415   5.298
    5SAPS  H12X  645   5.423   5.526   5.303
    5SAPS  H12Y  646   5.326   5.370   5.295
    5SAPS  C313  647   5.487   5.370   5.161
    5SAPS  H13X  648   5.481   5.259   5.148
    5SAPS  H13Y  649   5.597   5.385   5.160
    5SAPS  C314  650   5.418   5.454   5.049
    5SAPS  H14X  651   5.416   5.563   5.071
    5SAPS  H14Y  652   5.309   5.433   5.043
    5SAPS  C315  653   5.476   5.444   4.911
    5SAPS  H15X  654   5.477   5.337   4.881
    5SAPS  H15Y  655   5.582   5.475   4.913
    5SAPS  C316  656   5.391   5.527   4.811
    5SAPS  H16X  657   5.388   5.636   4.832
    5SAPS  H16Y  658   5.290   5.483   4.825
    5SAPS  C317  659   5.433   5.499   4.669
    5SAPS  H17X  660   5.397   5.398   4.640
    5SAPS  H17Y  661   5.543   5.503   4.657
    5SAPS  C318  662   5.361   5.597   4.574
    5SAPS  H18X  663   5.250   5.599   4.574
    5SAPS  H18Y  664   5.401   5.589   4.471
    5SAPS  H18Z  665   5.384   5.701   4.605
    6SAPS     N  666   2.045   5.211   6.749
    6SAPS   HN1  667   2.058   5.313   6.759
    6SAPS   HN2  668   2.128   5.166   6.705
    6SAPS   HN3  669   1.957   5.189   6.698
    6SAPS   C12  670   2.029   5.166   6.889
    6SAPS  H12A  671   2.117   5.210   6.933
    6SAPS   C13  672   1.902   5.220   6.963
    6SAPS  O13A  673   1.831   5.305   6.905
    6SAPS  O13B  674   1.879   5.183   7.082
    6SAPS   C11  675   2.045   5.012   6.891
    6SAPS  H11A  676   2.074   4.986   6.994
    6SAPS  H11B  677   2.137   4.988   6.833
    6SAPS     P  678   1.923   4.790   6.870
    6SAPS   O13  679   2.053   4.717   6.876
    6SAPS   O14  680   1.840   4.782   6.993
    6SAPS   O12  681   1.935   4.941   6.837
    6SAPS   O11  682   1.843   4.735   6.748
    6SAPS    C1  683   1.785   4.811   6.647
    6SAPS    HA  684   1.709   4.744   6.602
    6SAPS    HB  685   1.724   4.890   6.695
    6SAPS    C2  686   1.878   4.854   6.532
    6SAPS    HS  687   1.978   4.893   6.562
    6SAPS   O21  688   1.797   4.945   6.447
    6SAPS   C21  689   1.805   5.071   6.485
    6SAPS   O22  690   1.855   5.121   6.583
    6SAPS   C22  691   1.724   5.145   6.379
    6SAPS   H2R  692   1.760   5.123   6.276
    6SAPS   H2S  693   1.623   5.099   6.377
    6SAPS    C3  694   1.915   4.720   6.450
    6SAPS    HX  695   1.816   4.674   6.426
    6SAPS    HY  696   1.966   4.643   6.511
    6SAPS   O31  697   1.984   4.749   6.326
    6SAPS   C31  698   2.112   4.784   6.331
    6SAPS   O32  699   2.180   4.813   6.423
    6SAPS   C32  700   2.158   4.784   6.183
    6SAPS   H2X  701   2.168   4.676   6.156
    6SAPS   H2Y  702   2.262   4.822   6.184
    6SAPS   C23  703   1.716   5.297   6.410
    6SAPS   H3R  704   1.820   5.336   6.408
    6SAPS   H3S  705   1.673   5.306   6.512
    6SAPS   C24  706   1.634   5.374   6.305
    6SAPS   H4R  707   1.526   5.369   6.330
    6SAPS   H4S  708   1.643   5.335   6.201
    6SAPS   C25  709   1.669   5.522   6.313
    6SAPS   H5R  710   1.688   5.569   6.410
    6SAPS   C26  711   1.704   5.595   6.208
    6SAPS   H6R  712   1.724   5.703   6.213
    6SAPS   C27  713   1.695   5.546   6.069
    6SAPS   H7R  714   1.683   5.638   6.008
    6SAPS   H7S  715   1.607   5.482   6.047
    6SAPS   C28  716   1.803   5.461   6.008
    6SAPS   H8R  717   1.822   5.374   6.072
    6SAPS   C29  718   1.848   5.452   5.881
    6SAPS   H9R  719   1.925   5.374   5.867
    6SAPS  C210  720   1.827   5.539   5.755
    6SAPS  H10R  721   1.922   5.539   5.698
    6SAPS  H10S  722   1.816   5.643   5.794
    6SAPS  C211  723   1.719   5.497   5.659
    6SAPS  H11R  724   1.630   5.454   5.708
    6SAPS  C212  725   1.719   5.508   5.524
    6SAPS  H12R  726   1.632   5.477   5.465
    6SAPS  C213  727   1.836   5.549   5.432
    6SAPS  H13R  728   1.848   5.475   5.351
    6SAPS  H13S  729   1.925   5.532   5.497
    6SAPS  C214  730   1.837   5.692   5.380
    6SAPS  H14R  731   1.804   5.774   5.446
    6SAPS  C215  732   1.868   5.732   5.253
    6SAPS  H15R  733   1.855   5.839   5.229
    6SAPS  C216  734   1.907   5.646   5.136
    6SAPS  H16R  735   1.916   5.541   5.171
    6SAPS  H16S  736   2.009   5.685   5.116
    6SAPS  C217  737   1.822   5.648   4.998
    6SAPS  H17R  738   1.713   5.649   5.019
    6SAPS  H17S  739   1.831   5.547   4.952
    6SAPS  C218  740   1.842   5.773   4.912
    6SAPS  H18R  741   1.944   5.819   4.913
    6SAPS  H18S  742   1.787   5.858   4.958
    6SAPS  C219  743   1.798   5.757   4.768
    6SAPS  H19R  744   1.694   5.720   4.776
    6SAPS  H19S  745   1.857   5.676   4.720
    6SAPS  C220  746   1.804   5.884   4.689
    6SAPS  H20R  747   1.909   5.921   4.685
    6SAPS  H20S  748   1.740   5.962   4.737
    6SAPS  H20T  749   1.770   5.856   4.587
    6SAPS   C33  750   2.066   4.849   6.074
    6SAPS   H3X  751   1.973   4.789   6.081
    6SAPS   H3Y  752   2.122   4.826   5.981
    6SAPS   C34  753   2.061   5.003   6.080
    6SAPS   H4X  754   2.165   5.041   6.076
    6SAPS   H4Y  755   2.026   5.040   6.178
    6SAPS   C35  756   1.987   5.065   5.959
    6SAPS   H5X  757   1.980   5.171   5.991
    6SAPS   H5Y  758   1.885   5.020   5.947
    6SAPS   C36  759   2.054   5.060   5.818
    6SAPS   H6X  760   2.095   4.957   5.815
    6SAPS   H6Y  761   2.143   5.126   5.821
    6SAPS   C37  762   1.957   5.094   5.703
    6SAPS   H7X  763   1.891   5.181   5.722
    6SAPS   H7Y  764   1.890   5.008   5.686
    6SAPS   C38  765   2.035   5.104   5.571
    6SAPS   H8X  766   2.103   5.018   5.553
    6SAPS   H8Y  767   2.100   5.194   5.573
    6SAPS   C39  768   1.946   5.134   5.447
    6SAPS   H9X  769   1.879   5.218   5.475
    6SAPS   H9Y  770   1.879   5.046   5.437
    6SAPS  C310  771   2.033   5.156   5.323
    6SAPS  H10X  772   2.085   5.062   5.298
    6SAPS  H10Y  773   2.108   5.232   5.354
    6SAPS  C311  774   1.957   5.212   5.204
    6SAPS  H11X  775   1.904   5.307   5.225
    6SAPS  H11Y  776   1.879   5.138   5.176
    6SAPS  C312  777   2.049   5.207   5.089
    6SAPS  H12X  778   2.070   5.105   5.052
    6SAPS  H12Y  779   2.144   5.257   5.117
    6SAPS  C313  780   1.988   5.282   4.969
    6SAPS  H13X  781   1.992   5.391   4.990
    6SAPS  H13Y  782   1.879   5.260   4.958
    6SAPS  C314  783   2.071   5.257   4.842
    6SAPS  H14X  784   2.059   5.151   4.811
    6SAPS  H14Y  785   2.179   5.279   4.860
    6SAPS  C315  786   2.043   5.346   4.717
    6SAPS  H15X  787   2.056   5.448   4.757
    6SAPS  H15Y  788   1.936   5.342   4.687
    6SAPS  C316  789   2.124   5.313   4.586
    6SAPS  H16X  790   2.119   5.204   4.566
    6SAPS  H16Y  791   2.229   5.332   4.615
    6SAPS  C317  792   2.086   5.403   4.470
    6SAPS  H17X  793   2.081   5.510   4.499
    6SAPS  H17Y  794   1.983   5.371   4.445
    6SAPS  C318  795   2.169   5.377   4.339
    6SAPS  H18X  796   2.158   5.269   4.317
    6SAPS  H18Y  797   2.275   5.399   4.360
    6SAPS  H18Z  798   2.127   5.440   4.258
    7SAPS     N  799   3.629   6.605   6.922
    7SAPS   HN1  800   3.689   6.682   6.886
    7SAPS   HN2  801   3.653   6.582   7.020
    7SAPS   HN3  802   3.646   6.517   6.869
    7SAPS   C12  803   3.486   6.650   6.917
    7SAPS  H12A  804   3.424   6.563   6.898
    7SAPS   C13  805   3.437   6.711   7.049
    7SAPS  O13A  806   3.518   6.716   7.148
    7SAPS  O13B  807   3.323   6.761   7.050
    7SAPS   C11  808   3.478   6.751   6.799
    7SAPS  H11A  809   3.374   6.791   6.790
    7SAPS  H11B  810   3.489   6.690   6.707
    7SAPS     P  811   3.709   6.852   6.719
    7SAPS   O13  812   3.787   6.965   6.766
    7SAPS   O14  813   3.767   6.715   6.734
    7SAPS   O12  814   3.579   6.854   6.806
    7SAPS   O11  815   3.657   6.876   6.568
    7SAPS    C1  816   3.533   6.943   6.540
    7SAPS    HA  817   3.443   6.886   6.574
    7SAPS    HB  818   3.527   7.048   6.578
    7SAPS    C2  819   3.513   6.951   6.383
    7SAPS    HS  820   3.408   6.985   6.372
    7SAPS   O21  821   3.542   6.834   6.304
    7SAPS   C21  822   3.454   6.738   6.320
    7SAPS   O22  823   3.347   6.754   6.377
    7SAPS   C22  824   3.492   6.614   6.241
    7SAPS   H2R  825   3.600   6.614   6.213
    7SAPS   H2S  826   3.473   6.518   6.294
    7SAPS    C3  827   3.603   7.065   6.321
    7SAPS    HX  828   3.708   7.032   6.306
    7SAPS    HY  829   3.602   7.155   6.387
    7SAPS   O31  830   3.544   7.108   6.199
    7SAPS   C31  831   3.619   7.096   6.088
    7SAPS   O32  832   3.733   7.060   6.078
    7SAPS   C32  833   3.526   7.123   5.973
    7SAPS   H2X  834   3.486   7.227   5.980
    7SAPS   H2Y  835   3.439   7.053   5.973
    7SAPS   C23  836   3.399   6.596   6.114
    7SAPS   H3R  837   3.399   6.696   6.064
    7SAPS   H3S  838   3.299   6.574   6.158
    7SAPS   C24  839   3.447   6.492   6.020
    7SAPS   H4R  840   3.546   6.512   5.974
    7SAPS   H4S  841   3.381   6.469   5.934
    7SAPS   C25  842   3.451   6.359   6.091
    7SAPS   H5R  843   3.347   6.332   6.113
    7SAPS   C26  844   3.559   6.279   6.123
    7SAPS   H6R  845   3.532   6.194   6.187
    7SAPS   C27  846   3.705   6.306   6.099
    7SAPS   H7R  847   3.752   6.340   6.194
    7SAPS   H7S  848   3.715   6.384   6.021
    7SAPS   C28  849   3.794   6.198   6.055
    7SAPS   H8R  850   3.805   6.122   6.134
    7SAPS   C29  851   3.849   6.168   5.932
    7SAPS   H9R  852   3.907   6.076   5.919
    7SAPS  C210  853   3.841   6.244   5.799
    7SAPS  H10R  854   3.922   6.213   5.730
    7SAPS  H10S  855   3.857   6.352   5.821
    7SAPS  C211  856   3.709   6.236   5.732
    7SAPS  H11R  857   3.621   6.221   5.796
    7SAPS  C212  858   3.678   6.273   5.609
    7SAPS  H12R  859   3.574   6.274   5.573
    7SAPS  C213  860   3.778   6.327   5.507
    7SAPS  H13R  861   3.845   6.399   5.558
    7SAPS  H13S  862   3.723   6.386   5.431
    7SAPS  C214  863   3.864   6.221   5.441
    7SAPS  H14R  864   3.854   6.128   5.498
    7SAPS  C215  865   3.945   6.233   5.328
    7SAPS  H15R  866   3.998   6.143   5.293
    7SAPS  C216  867   3.962   6.353   5.248
    7SAPS  H16R  868   4.067   6.381   5.273
    7SAPS  H16S  869   3.896   6.441   5.265
    7SAPS  C217  870   3.964   6.342   5.091
    7SAPS  H17R  871   4.051   6.278   5.066
    7SAPS  H17S  872   3.982   6.445   5.051
    7SAPS  C218  873   3.837   6.274   5.034
    7SAPS  H18R  874   3.751   6.335   5.070
    7SAPS  H18S  875   3.818   6.174   5.076
    7SAPS  C219  876   3.842   6.254   4.879
    7SAPS  H19R  877   3.871   6.349   4.829
    7SAPS  H19S  878   3.739   6.221   4.852
    7SAPS  C220  879   3.944   6.145   4.834
    7SAPS  H20R  880   3.892   6.069   4.772
    7SAPS  H20S  881   3.986   6.095   4.924
    7SAPS  H20T  882   4.032   6.195   4.789
    7SAPS   C33  883   3.597   7.103   5.836
    7SAPS   H3X  884   3.655   7.008   5.831
    7SAPS   H3Y  885   3.665   7.187   5.812
    7SAPS   C34  886   3.506   7.113   5.712
    7SAPS   H4X  887   3.440   7.202   5.722
    7SAPS   H4Y  888   3.426   7.038   5.730
    7SAPS   C35  889   3.585   7.097   5.585
    7SAPS   H5X  890   3.644   7.004   5.574
    7SAPS   H5Y  891   3.649   7.187   5.574
    7SAPS   C36  892   3.488   7.084   5.467
    7SAPS   H6X  893   3.405   7.158   5.464
    7SAPS   H6Y  894   3.433   6.988   5.467
    7SAPS   C37  895   3.552   7.087   5.327
    7SAPS   H7X  896   3.649   7.033   5.335
    7SAPS   H7Y  897   3.581   7.192   5.305
    7SAPS   C38  898   3.448   7.039   5.227
    7SAPS   H8X  899   3.352   7.093   5.241
    7SAPS   H8Y  900   3.434   6.930   5.245
    7SAPS   C39  901   3.496   7.046   5.079
    7SAPS   H9X  902   3.593   6.995   5.066
    7SAPS   H9Y  903   3.515   7.151   5.046
    7SAPS  C310  904   3.401   6.973   4.982
    7SAPS  H10X  905   3.298   7.012   4.997
    7SAPS  H10Y  906   3.406   6.866   5.013
    7SAPS  C311  907   3.444   6.992   4.832
    7SAPS  H11X  908   3.420   6.909   4.762
    7SAPS  H11Y  909   3.554   7.007   4.830
    7SAPS  C312  910   3.371   7.116   4.771
    7SAPS  H12X  911   3.362   7.198   4.846
    7SAPS  H12Y  912   3.263   7.097   4.751
    7SAPS  C313  913   3.416   7.173   4.632
    7SAPS  H13X  914   3.513   7.223   4.649
    7SAPS  H13Y  915   3.338   7.246   4.599
    7SAPS  C314  916   3.431   7.060   4.526
    7SAPS  H14X  917   3.343   6.993   4.532
    7SAPS  H14Y  918   3.524   7.006   4.553
    7SAPS  C315  919   3.451   7.121   4.388
    7SAPS  H15X  920   3.551   7.170   4.393
    7SAPS  H15Y  921   3.373   7.196   4.362
    7SAPS  C316  922   3.459   7.014   4.275
    7SAPS  H16X  923   3.364   6.957   4.277
    7SAPS  H16Y  924   3.541   6.945   4.304
    7SAPS  C317  925   3.495   7.065   4.139
    7SAPS  H17X  926   3.477   6.982   4.067
    7SAPS  H17Y  927   3.597   7.107   4.135
    7SAPS  C318  928   3.405   7.178   4.093
    7SAPS  H18X  929   3.430   7.192   3.986
    7SAPS  H18Y  930   3.414   7.275   4.147
    7SAPS  H18Z  931   3.300   7.144   4.107
    8SAPS     N  932   2.612   0.531   6.752
    8SAPS   HN1  933   2.625   0.547   6.854
    8SAPS   HN2  934   2.542   0.454   6.744
    8SAPS   HN3  935   2.702   0.518   6.701
    8SAPS   C12  936   2.543   0.649   6.695
    8SAPS  H12A  937   2.445   0.651   6.742
    8SAPS   C13  938   2.600   0.784   6.746
    8SAPS  O13A  939   2.691   0.793   6.832
    8SAPS  O13B  940   2.569   0.886   6.676
    8SAPS   C11  941   2.526   0.629   6.540
    8SAPS  H11A  942   2.623   0.623   6.485
    8SAPS  H11B  943   2.472   0.717   6.500
    8SAPS     P  944   2.292   0.495   6.510
    8SAPS   O13  945   2.268   0.350   6.496
    8SAPS   O14  946   2.227   0.553   6.632
    8SAPS   O12  947   2.445   0.513   6.523
    8SAPS   O11  948   2.239   0.570   6.382
    8SAPS    C1  949   2.307   0.571   6.255
    8SAPS    HA  950   2.370   0.663   6.251
    8SAPS    HB  951   2.376   0.485   6.238
    8SAPS    C2  952   2.197   0.576   6.139
    8SAPS    HS  953   2.113   0.505   6.157
    8SAPS   O21  954   2.274   0.555   6.023
    8SAPS   C21  955   2.296   0.434   5.984
    8SAPS   O22  956   2.246   0.331   6.032
    8SAPS   C22  957   2.389   0.429   5.869
    8SAPS   H2R  958   2.337   0.475   5.782
    8SAPS   H2S  959   2.477   0.495   5.878
    8SAPS    C3  960   2.135   0.721   6.141
    8SAPS    HX  961   2.206   0.806   6.153
    8SAPS    HY  962   2.065   0.729   6.227
    8SAPS   O31  963   2.054   0.736   6.022
    8SAPS   C31  964   2.104   0.805   5.923
    8SAPS   O32  965   2.216   0.850   5.928
    8SAPS   C32  966   1.993   0.831   5.815
    8SAPS   H2X  967   1.932   0.917   5.850
    8SAPS   H2Y  968   1.928   0.741   5.806
    8SAPS   C23  969   2.451   0.288   5.846
    8SAPS   H3R  970   2.372   0.226   5.798
    8SAPS   H3S  971   2.471   0.238   5.944
    8SAPS   C24  972   2.578   0.282   5.750
    8SAPS   H4R  973   2.646   0.365   5.781
    8SAPS   H4S  974   2.545   0.309   5.648
    8SAPS   C25  975   2.651   0.145   5.755
    8SAPS   H5R  976   2.666   0.114   5.859
    8SAPS   C26  977   2.708   0.068   5.661
    8SAPS   H6R  978   2.765  -0.022   5.690
    8SAPS   C27  979   2.706   0.092   5.512
    8SAPS   H7R  980   2.729  -0.010   5.473
    8SAPS   H7S  981   2.785   0.165   5.486
    8SAPS   C28  982   2.568   0.115   5.460
    8SAPS   H8R  983   2.478   0.092   5.519
    8SAPS   C29  984   2.523   0.164   5.337
    8SAPS   H9R  985   2.417   0.165   5.309
    8SAPS  C210  986   2.620   0.210   5.232
    8SAPS  H10R  987   2.645   0.117   5.176
    8SAPS  H10S  988   2.709   0.256   5.280
    8SAPS  C211  989   2.564   0.314   5.142
    8SAPS  H11R  990   2.533   0.399   5.205
    8SAPS  C212  991   2.556   0.307   5.009
    8SAPS  H12R  992   2.493   0.384   4.963
    8SAPS  C213  993   2.605   0.195   4.919
    8SAPS  H13R  994   2.690   0.139   4.964
    8SAPS  H13S  995   2.657   0.244   4.834
    8SAPS  C214  996   2.495   0.109   4.863
    8SAPS  H14R  997   2.436   0.065   4.945
    8SAPS  C215  998   2.447   0.096   4.740
    8SAPS  H15R  999   2.368   0.022   4.724
    8SAPS  C216 1000   2.517   0.151   4.613
    8SAPS  H16R 1001   2.622   0.179   4.635
    8SAPS  H16S 1002   2.457   0.232   4.568
    8SAPS  C217 1003   2.549   0.054   4.495
    8SAPS  H17R 1004   2.613   0.113   4.426
    8SAPS  H17S 1005   2.452   0.032   4.446
    8SAPS  C218 1006   2.633  -0.072   4.534
    8SAPS  H18R 1007   2.575  -0.144   4.596
    8SAPS  H18S 1008   2.714  -0.046   4.605
    8SAPS  C219 1009   2.693  -0.149   4.414
    8SAPS  H19R 1010   2.740  -0.075   4.347
    8SAPS  H19S 1011   2.620  -0.207   4.354
    8SAPS  C220 1012   2.801  -0.246   4.458
    8SAPS  H20R 1013   2.901  -0.202   4.476
    8SAPS  H20S 1014   2.815  -0.322   4.379
    8SAPS  H20T 1015   2.778  -0.306   4.549
    8SAPS   C33 1016   2.060   0.889   5.688
    8SAPS   H3X 1017   2.133   0.968   5.716
    8SAPS   H3Y 1018   1.988   0.941   5.622
    8SAPS   C34 1019   2.130   0.784   5.601
    8SAPS   H4X 1020   2.051   0.707   5.585
    8SAPS   H4Y 1021   2.214   0.744   5.661
    8SAPS   C35 1022   2.173   0.836   5.460
    8SAPS   H5X 1023   2.201   0.943   5.474
    8SAPS   H5Y 1024   2.081   0.832   5.398
    8SAPS   C36 1025   2.282   0.753   5.395
    8SAPS   H6X 1026   2.252   0.646   5.393
    8SAPS   H6Y 1027   2.378   0.771   5.447
    8SAPS   C37 1028   2.326   0.796   5.254
    8SAPS   H7X 1029   2.417   0.744   5.217
    8SAPS   H7Y 1030   2.350   0.903   5.270
    8SAPS   C38 1031   2.214   0.788   5.143
    8SAPS   H8X 1032   2.114   0.825   5.176
    8SAPS   H8Y 1033   2.211   0.681   5.115
    8SAPS   C39 1034   2.251   0.863   5.015
    8SAPS   H9X 1035   2.214   0.802   4.930
    8SAPS   H9Y 1036   2.362   0.872   5.014
    8SAPS  C310 1037   2.178   1.000   5.015
    8SAPS  H10X 1038   2.225   1.068   5.090
    8SAPS  H10Y 1039   2.070   1.003   5.037
    8SAPS  C311 1040   2.173   1.054   4.870
    8SAPS  H11X 1041   2.271   1.026   4.827
    8SAPS  H11Y 1042   2.163   1.165   4.867
    8SAPS  C312 1043   2.056   0.988   4.791
    8SAPS  H12X 1044   1.979   0.960   4.865
    8SAPS  H12Y 1045   2.095   0.897   4.740
    8SAPS  C313 1046   1.995   1.082   4.674
    8SAPS  H13X 1047   2.078   1.114   4.608
    8SAPS  H13Y 1048   1.950   1.175   4.714
    8SAPS  C314 1049   1.886   1.011   4.595
    8SAPS  H14X 1050   1.797   0.990   4.657
    8SAPS  H14Y 1051   1.926   0.909   4.577
    8SAPS  C315 1052   1.816   1.086   4.474
    8SAPS  H15X 1053   1.745   1.004   4.451
    8SAPS  H15Y 1054   1.893   1.114   4.399
    8SAPS  C316 1055   1.741   1.212   4.507
    8SAPS  H16X 1056   1.810   1.283   4.558
    8SAPS  H16Y 1057   1.666   1.191   4.587
    8SAPS  C317 1058   1.674   1.272   4.383
    8SAPS  H17X 1059   1.603   1.194   4.349
    8SAPS  H17Y 1060   1.745   1.298   4.302
    8SAPS  C318 1061   1.588   1.403   4.412
    8SAPS  H18X 1062   1.654   1.478   4.459
    8SAPS  H18Y 1063   1.518   1.386   4.496
    8SAPS  H18Z 1064   1.545   1.450   4.321
    9SAPS     N 1065   0.299   5.867   6.550
    9SAPS   HN1 1066   0.274   5.780   6.602
    9SAPS   HN2 1067   0.282   5.845   6.450
    9SAPS   HN3 1068   0.400   5.886   6.563
    9SAPS   C12 1069   0.204   5.978   6.584
    9SAPS  H12A 1070   0.175   6.023   6.490
    9SAPS   C13 1071   0.066   5.936   6.645
    9SAPS  O13A 1072   0.021   5.818   6.650
    9SAPS  O13B 1073   0.000   6.028   6.698
    9SAPS   C11 1074   0.277   6.092   6.661
    9SAPS  H11A 1075   0.301   6.054   6.762
    9SAPS  H11B 1076   0.212   6.182   6.649
    9SAPS     P 1077   0.529   6.171   6.656
    9SAPS   O13 1078   0.499   6.216   6.790
    9SAPS   O14 1079   0.639   6.071   6.645
    9SAPS   O12 1080   0.397   6.119   6.583
    9SAPS   O11 1081   0.581   6.303   6.574
    9SAPS    C1 1082   0.496   6.360   6.477
    9SAPS    HA 1083   0.391   6.324   6.474
    9SAPS    HB 1084   0.473   6.463   6.511
    9SAPS    C2 1085   0.557   6.361   6.327
    9SAPS    HS 1086   0.520   6.446   6.265
    9SAPS   O21 1087   0.547   6.240   6.258
    9SAPS   C21 1088   0.424   6.206   6.226
    9SAPS   O22 1089   0.325   6.277   6.229
    9SAPS   C22 1090   0.419   6.062   6.184
    9SAPS   H2R 1091   0.509   6.041   6.123
    9SAPS   H2S 1092   0.416   6.000   6.277
    9SAPS    C3 1093   0.708   6.410   6.337
    9SAPS    HX 1094   0.765   6.332   6.392
    9SAPS    HY 1095   0.714   6.499   6.404
    9SAPS   O31 1096   0.784   6.435   6.216
    9SAPS   C31 1097   0.744   6.543   6.150
    9SAPS   O32 1098   0.645   6.609   6.186
    9SAPS   C32 1099   0.838   6.570   6.037
    9SAPS   H2X 1100   0.899   6.478   6.027
    9SAPS   H2Y 1101   0.903   6.654   6.070
    9SAPS   C23 1102   0.309   6.033   6.081
    9SAPS   H3R 1103   0.210   6.054   6.126
    9SAPS   H3S 1104   0.312   5.925   6.052
    9SAPS   C24 1105   0.320   6.114   5.956
    9SAPS   H4R 1106   0.292   6.222   5.957
    9SAPS   H4S 1107   0.241   6.080   5.885
    9SAPS   C25 1108   0.454   6.114   5.878
    9SAPS   H5R 1109   0.527   6.044   5.921
    9SAPS   C26 1110   0.488   6.174   5.760
    9SAPS   H6R 1111   0.587   6.160   5.713
    9SAPS   C27 1112   0.386   6.260   5.686
    9SAPS   H7R 1113   0.442   6.347   5.645
    9SAPS   H7S 1114   0.319   6.318   5.753
    9SAPS   C28 1115   0.299   6.174   5.591
    9SAPS   H8R 1116   0.249   6.088   5.637
    9SAPS   C29 1117   0.293   6.189   5.460
    9SAPS   H9R 1118   0.226   6.120   5.408
    9SAPS  C210 1119   0.367   6.288   5.375
    9SAPS  H10R 1120   0.466   6.313   5.419
    9SAPS  H10S 1121   0.317   6.387   5.383
    9SAPS  C211 1122   0.382   6.238   5.232
    9SAPS  H11R 1123   0.454   6.155   5.219
    9SAPS  C212 1124   0.313   6.285   5.122
    9SAPS  H12R 1125   0.317   6.219   5.034
    9SAPS  C213 1126   0.226   6.403   5.114
    9SAPS  H13R 1127   0.283   6.488   5.070
    9SAPS  H13S 1128   0.199   6.429   5.218
    9SAPS  C214 1129   0.100   6.385   5.030
    9SAPS  H14R 1130   0.005   6.369   5.082
    9SAPS  C215 1131   0.100   6.363   4.897
    9SAPS  H15R 1132   0.002   6.345   4.852
    9SAPS  C216 1133   0.216   6.366   4.798
    9SAPS  H16R 1134   0.295   6.434   4.834
    9SAPS  H16S 1135   0.180   6.420   4.708
    9SAPS  C217 1136   0.270   6.234   4.744
    9SAPS  H17R 1137   0.186   6.175   4.704
    9SAPS  H17S 1138   0.328   6.176   4.819
    9SAPS  C218 1139   0.359   6.251   4.621
    9SAPS  H18R 1140   0.295   6.297   4.543
    9SAPS  H18S 1141   0.388   6.148   4.591
    9SAPS  C219 1142   0.479   6.332   4.652
    9SAPS  H19R 1143   0.527   6.306   4.749
    9SAPS  H19S 1144   0.444   6.437   4.658
    9SAPS  C220 1145   0.582   6.330   4.538
    9SAPS  H20R 1146   0.666   6.402   4.529
    9SAPS  H20S 1147   0.529   6.342   4.441
    9SAPS  H20T 1148   0.632   6.230   4.535
    9SAPS   C33 1149   0.760   6.590   5.913
    9SAPS   H3X 1150   0.674   6.659   5.930
    9SAPS   H3Y 1151   0.713   6.493   5.887
    9SAPS   C34 1152   0.842   6.638   5.792
    9SAPS   H4X 1153   0.910   6.552   5.773
    9SAPS   H4Y 1154   0.896   6.732   5.814
    9SAPS   C35 1155   0.766   6.653   5.663
    9SAPS   H5X 1156   0.843   6.684   5.588
    9SAPS   H5Y 1157   0.691   6.734   5.669
    9SAPS   C36 1158   0.679   6.530   5.605
    9SAPS   H6X 1159   0.597   6.505   5.675
    9SAPS   H6Y 1160   0.739   6.437   5.603
    9SAPS   C37 1161   0.617   6.558   5.470
    9SAPS   H7X 1162   0.618   6.668   5.453
    9SAPS   H7Y 1163   0.514   6.518   5.463
    9SAPS   C38 1164   0.698   6.502   5.351
    9SAPS   H8X 1165   0.742   6.403   5.374
    9SAPS   H8Y 1166   0.786   6.568   5.334
    9SAPS   C39 1167   0.633   6.494   5.217
    9SAPS   H9X 1168   0.528   6.459   5.219
    9SAPS   H9Y 1169   0.678   6.409   5.161
    9SAPS  C310 1170   0.631   6.626   5.149
    9SAPS  H10X 1171   0.736   6.662   5.142
    9SAPS  H10Y 1172   0.577   6.704   5.206
    9SAPS  C311 1173   0.565   6.629   5.009
    9SAPS  H11X 1174   0.466   6.578   5.014
    9SAPS  H11Y 1175   0.623   6.567   4.939
    9SAPS  C312 1176   0.555   6.782   4.964
    9SAPS  H12X 1177   0.659   6.821   4.959
    9SAPS  H12Y 1178   0.503   6.834   5.047
    9SAPS  C313 1179   0.483   6.799   4.831
    9SAPS  H13X 1180   0.444   6.902   4.816
    9SAPS  H13Y 1181   0.389   6.741   4.829
    9SAPS  C314 1182   0.566   6.755   4.717
    9SAPS  H14X 1183   0.549   6.648   4.694
    9SAPS  H14Y 1184   0.674   6.776   4.728
    9SAPS  C315 1185   0.504   6.823   4.597
    9SAPS  H15X 1186   0.532   6.930   4.590
    9SAPS  H15Y 1187   0.394   6.822   4.609
    9SAPS  C316 1188   0.548   6.760   4.472
    9SAPS  H16X 1189   0.578   6.656   4.499
    9SAPS  H16Y 1190   0.632   6.812   4.422
    9SAPS  C317 1191   0.434   6.742   4.368
    9SAPS  H17X 1192   0.346   6.725   4.432
    9SAPS  H17Y 1193   0.446   6.649   4.308
    9SAPS  C318 1194   0.410   6.859   4.270
    9SAPS  H18X 1195   0.495   6.891   4.206
    9SAPS  H18Y 1196   0.386   6.947   4.333
    9SAPS  H18Z 1197   0.320   6.844   4.207
   10SAPS     N 1198   1.659   5.447   6.746
   10SAPS   HN1 1199   1.709   5.516   6.686
   10SAPS   HN2 1200   1.720   5.413   6.822
   10SAPS   HN3 1201   1.635   5.353   6.709
   10SAPS   C12 1202   1.540   5.524   6.800
   10SAPS  H12A 1203   1.461   5.463   6.842
   10SAPS   C13 1204   1.586   5.637   6.890
   10SAPS  O13A 1205   1.714   5.659   6.900
   10SAPS  O13B 1206   1.506   5.720   6.939
   10SAPS   C11 1207   1.457   5.579   6.680
   10SAPS  H11A 1208   1.528   5.637   6.617
   10SAPS  H11B 1209   1.380   5.647   6.722
   10SAPS     P 1210   1.253   5.422   6.634
   10SAPS   O13 1211   1.258   5.273   6.603
   10SAPS   O14 1212   1.214   5.466   6.769
   10SAPS   O12 1213   1.394   5.485   6.594
   10SAPS   O11 1214   1.150   5.483   6.537
   10SAPS    C1 1215   1.139   5.622   6.501
   10SAPS    HA 1216   1.037   5.654   6.533
   10SAPS    HB 1217   1.211   5.693   6.547
   10SAPS    C2 1218   1.146   5.634   6.344
   10SAPS    HS 1219   1.109   5.736   6.324
   10SAPS   O21 1220   1.082   5.533   6.269
   10SAPS   C21 1221   0.954   5.566   6.247
   10SAPS   O22 1222   0.907   5.673   6.274
   10SAPS   C22 1223   0.876   5.446   6.187
   10SAPS   H2R 1224   0.957   5.380   6.149
   10SAPS   H2S 1225   0.823   5.405   6.276
   10SAPS    C3 1226   1.296   5.636   6.298
   10SAPS    HX 1227   1.358   5.548   6.327
   10SAPS    HY 1228   1.342   5.722   6.352
   10SAPS   O31 1229   1.301   5.650   6.156
   10SAPS   C31 1230   1.321   5.534   6.089
   10SAPS   O32 1231   1.307   5.422   6.134
   10SAPS   C32 1232   1.342   5.573   5.942
   10SAPS   H2X 1233   1.448   5.589   5.912
   10SAPS   H2Y 1234   1.275   5.658   5.918
   10SAPS   C23 1235   0.776   5.486   6.078
   10SAPS   H3R 1236   0.716   5.571   6.117
   10SAPS   H3S 1237   0.711   5.399   6.055
   10SAPS   C24 1238   0.826   5.525   5.938
   10SAPS   H4R 1239   0.871   5.432   5.896
   10SAPS   H4S 1240   0.906   5.601   5.952
   10SAPS   C25 1241   0.710   5.561   5.845
   10SAPS   H5R 1242   0.606   5.552   5.879
   10SAPS   C26 1243   0.712   5.617   5.727
   10SAPS   H6R 1244   0.617   5.653   5.685
   10SAPS   C27 1245   0.834   5.640   5.640
   10SAPS   H7R 1246   0.883   5.541   5.636
   10SAPS   H7S 1247   0.903   5.705   5.698
   10SAPS   C28 1248   0.805   5.678   5.497
   10SAPS   H8R 1249   0.762   5.591   5.446
   10SAPS   C29 1250   0.800   5.801   5.447
   10SAPS   H9R 1251   0.776   5.798   5.339
   10SAPS  C210 1252   0.816   5.939   5.511
   10SAPS  H10R 1253   0.923   5.967   5.492
   10SAPS  H10S 1254   0.803   5.936   5.621
   10SAPS  C211 1255   0.729   6.042   5.442
   10SAPS  H11R 1256   0.636   6.062   5.499
   10SAPS  C212 1257   0.743   6.102   5.321
   10SAPS  H12R 1258   0.666   6.164   5.272
   10SAPS  C213 1259   0.869   6.075   5.234
   10SAPS  H13R 1260   0.845   6.007   5.149
   10SAPS  H13S 1261   0.952   6.021   5.283
   10SAPS  C214 1262   0.927   6.204   5.183
   10SAPS  H14R 1263   0.998   6.253   5.250
   10SAPS  C215 1264   0.912   6.255   5.061
   10SAPS  H15R 1265   0.952   6.355   5.044
   10SAPS  C216 1266   0.854   6.195   4.936
   10SAPS  H16R 1267   0.780   6.263   4.889
   10SAPS  H16S 1268   0.797   6.102   4.953
   10SAPS  C217 1269   0.950   6.167   4.824
   10SAPS  H17R 1270   1.020   6.086   4.854
   10SAPS  H17S 1271   1.016   6.251   4.793
   10SAPS  C218 1272   0.883   6.128   4.692
   10SAPS  H18R 1273   0.788   6.185   4.677
   10SAPS  H18S 1274   0.848   6.024   4.709
   10SAPS  C219 1275   0.977   6.127   4.577
   10SAPS  H19R 1276   1.086   6.124   4.599
   10SAPS  H19S 1277   0.967   6.225   4.525
   10SAPS  C220 1278   0.944   6.014   4.486
   10SAPS  H20R 1279   0.999   6.017   4.389
   10SAPS  H20S 1280   0.835   5.997   4.473
   10SAPS  H20T 1281   0.984   5.923   4.536
   10SAPS   C33 1282   1.281   5.469   5.853
   10SAPS   H3X 1283   1.179   5.438   5.887
   10SAPS   H3Y 1284   1.332   5.372   5.868
   10SAPS   C34 1285   1.275   5.507   5.701
   10SAPS   H4X 1286   1.375   5.508   5.652
   10SAPS   H4Y 1287   1.232   5.608   5.685
   10SAPS   C35 1288   1.177   5.408   5.634
   10SAPS   H5X 1289   1.086   5.394   5.697
   10SAPS   H5Y 1290   1.233   5.312   5.629
   10SAPS   C36 1291   1.138   5.451   5.495
   10SAPS   H6X 1292   1.087   5.550   5.504
   10SAPS   H6Y 1293   1.067   5.380   5.448
   10SAPS   C37 1294   1.255   5.468   5.399
   10SAPS   H7X 1295   1.307   5.370   5.410
   10SAPS   H7Y 1296   1.321   5.543   5.447
   10SAPS   C38 1297   1.230   5.489   5.249
   10SAPS   H8X 1298   1.188   5.591   5.239
   10SAPS   H8Y 1299   1.159   5.413   5.210
   10SAPS   C39 1300   1.359   5.483   5.176
   10SAPS   H9X 1301   1.385   5.375   5.174
   10SAPS   H9Y 1302   1.432   5.539   5.239
   10SAPS  C310 1303   1.337   5.539   5.031
   10SAPS  H10X 1304   1.294   5.641   5.041
   10SAPS  H10Y 1305   1.264   5.475   4.977
   10SAPS  C311 1306   1.466   5.541   4.953
   10SAPS  H11X 1307   1.536   5.589   5.025
   10SAPS  H11Y 1308   1.437   5.601   4.864
   10SAPS  C312 1309   1.517   5.403   4.903
   10SAPS  H12X 1310   1.554   5.368   5.002
   10SAPS  H12Y 1311   1.609   5.410   4.841
   10SAPS  C313 1312   1.411   5.303   4.851
   10SAPS  H13X 1313   1.321   5.293   4.916
   10SAPS  H13Y 1314   1.462   5.204   4.849
   10SAPS  C314 1315   1.374   5.331   4.705
   10SAPS  H14X 1316   1.467   5.348   4.648
   10SAPS  H14Y 1317   1.316   5.426   4.706
   10SAPS  C315 1318   1.284   5.228   4.627
   10SAPS  H15X 1319   1.216   5.195   4.708
   10SAPS  H15Y 1320   1.353   5.142   4.611
   10SAPS  C316 1321   1.222   5.289   4.511
   10SAPS  H16X 1322   1.153   5.370   4.542
   10SAPS  H16Y 1323   1.149   5.225   4.458
   10SAPS  C317 1324   1.314   5.346   4.406
   10SAPS  H17X 1325   1.368   5.260   4.363
   10SAPS  H17Y 1326   1.397   5.400   4.456
   10SAPS  C318 1327   1.242   5.423   4.296
   10SAPS  H18X 1328   1.320   5.465   4.229
   10SAPS  H18Y 1329   1.182   5.512   4.324
   10SAPS  H18Z 1330   1.174   5.356   4.239
   11SAPS     N 1331   2.323   4.398   1.835
   11SAPS   HN1 1332   2.330   4.492   1.793
   11SAPS   HN2 1333   2.315   4.319   1.768
   11SAPS   HN3 1334   2.237   4.398   1.894
   11SAPS   C12 1335   2.439   4.360   1.930
   11SAPS  H12A 1336   2.424   4.262   1.972
   11SAPS   C13 1337   2.584   4.339   1.878
   11SAPS  O13A 1338   2.600   4.337   1.754
   11SAPS  O13B 1339   2.658   4.264   1.950
   11SAPS   C11 1340   2.426   4.448   2.049
   11SAPS  H11A 1341   2.439   4.555   2.020
   11SAPS  H11B 1342   2.517   4.439   2.113
   11SAPS     P 1343   2.268   4.496   2.254
   11SAPS   O13 1344   2.320   4.631   2.235
   11SAPS   O14 1345   2.121   4.481   2.280
   11SAPS   O12 1346   2.306   4.412   2.121
   11SAPS   O11 1347   2.365   4.423   2.354
   11SAPS    C1 1348   2.346   4.287   2.392
   11SAPS    HA 1349   2.245   4.247   2.367
   11SAPS    HB 1350   2.412   4.222   2.330
   11SAPS    C2 1351   2.361   4.252   2.542
   11SAPS    HS 1352   2.372   4.142   2.556
   11SAPS   O21 1353   2.251   4.311   2.620
   11SAPS   C21 1354   2.148   4.233   2.633
   11SAPS   O22 1355   2.137   4.117   2.594
   11SAPS   C22 1356   2.041   4.301   2.711
   11SAPS   H2R 1357   2.062   4.409   2.725
   11SAPS   H2S 1358   1.949   4.287   2.651
   11SAPS    C3 1359   2.493   4.312   2.596
   11SAPS    HX 1360   2.481   4.423   2.596
   11SAPS    HY 1361   2.574   4.300   2.521
   11SAPS   O31 1362   2.531   4.259   2.726
   11SAPS   C31 1363   2.589   4.142   2.715
   11SAPS   O32 1364   2.615   4.086   2.609
   11SAPS   C32 1365   2.600   4.074   2.856
   11SAPS   H2X 1366   2.706   4.071   2.890
   11SAPS   H2Y 1367   2.571   3.969   2.832
   11SAPS   C23 1368   2.029   4.228   2.853
   11SAPS   H3R 1369   2.020   4.120   2.830
   11SAPS   H3S 1370   1.932   4.265   2.894
   11SAPS   C24 1371   2.146   4.243   2.952
   11SAPS   H4R 1372   2.145   4.349   2.988
   11SAPS   H4S 1373   2.241   4.245   2.895
   11SAPS   C25 1374   2.155   4.134   3.050
   11SAPS   H5R 1375   2.164   4.029   3.018
   11SAPS   C26 1376   2.153   4.162   3.186
   11SAPS   H6R 1377   2.142   4.077   3.255
   11SAPS   C27 1378   2.131   4.298   3.239
   11SAPS   H7R 1379   2.174   4.381   3.180
   11SAPS   H7S 1380   2.188   4.299   3.335
   11SAPS   C28 1381   1.989   4.336   3.254
   11SAPS   H8R 1382   1.941   4.356   3.157
   11SAPS   C29 1383   1.913   4.323   3.363
   11SAPS   H9R 1384   1.806   4.339   3.345
   11SAPS  C210 1385   1.949   4.268   3.497
   11SAPS  H10R 1386   2.053   4.231   3.493
   11SAPS  H10S 1387   1.889   4.174   3.494
   11SAPS  C211 1388   1.911   4.358   3.611
   11SAPS  H11R 1389   1.806   4.382   3.636
   11SAPS  C212 1390   2.001   4.419   3.694
   11SAPS  H12R 1391   1.952   4.489   3.764
   11SAPS  C213 1392   2.151   4.424   3.686
   11SAPS  H13R 1393   2.188   4.527   3.667
   11SAPS  H13S 1394   2.173   4.367   3.594
   11SAPS  C214 1395   2.196   4.371   3.823
   11SAPS  H14R 1396   2.146   4.412   3.911
   11SAPS  C215 1397   2.283   4.280   3.838
   11SAPS  H15R 1398   2.312   4.266   3.943
   11SAPS  C216 1399   2.354   4.198   3.732
   11SAPS  H16R 1400   2.441   4.144   3.776
   11SAPS  H16S 1401   2.399   4.266   3.656
   11SAPS  C217 1402   2.276   4.081   3.673
   11SAPS  H17R 1403   2.180   4.127   3.640
   11SAPS  H17S 1404   2.255   4.009   3.756
   11SAPS  C218 1405   2.355   4.005   3.564
   11SAPS  H18R 1406   2.448   3.970   3.613
   11SAPS  H18S 1407   2.368   4.070   3.475
   11SAPS  C219 1408   2.263   3.889   3.517
   11SAPS  H19R 1409   2.163   3.914   3.476
   11SAPS  H19S 1410   2.244   3.827   3.607
   11SAPS  C220 1411   2.328   3.799   3.414
   11SAPS  H20R 1412   2.429   3.774   3.454
   11SAPS  H20S 1413   2.351   3.852   3.319
   11SAPS  H20T 1414   2.254   3.718   3.397
   11SAPS   C33 1415   2.528   4.155   2.971
   11SAPS   H3X 1416   2.418   4.150   2.956
   11SAPS   H3Y 1417   2.556   4.262   2.971
   11SAPS   C34 1418   2.568   4.102   3.113
   11SAPS   H4X 1419   2.676   4.077   3.121
   11SAPS   H4Y 1420   2.501   4.023   3.153
   11SAPS   C35 1421   2.558   4.214   3.218
   11SAPS   H5X 1422   2.453   4.251   3.223
   11SAPS   H5Y 1423   2.615   4.305   3.191
   11SAPS   C36 1424   2.622   4.179   3.354
   11SAPS   H6X 1425   2.731   4.161   3.343
   11SAPS   H6Y 1426   2.572   4.091   3.400
   11SAPS   C37 1427   2.618   4.301   3.451
   11SAPS   H7X 1428   2.512   4.332   3.466
   11SAPS   H7Y 1429   2.669   4.383   3.396
   11SAPS   C38 1430   2.702   4.277   3.579
   11SAPS   H8X 1431   2.809   4.263   3.550
   11SAPS   H8Y 1432   2.661   4.180   3.615
   11SAPS   C39 1433   2.692   4.389   3.675
   11SAPS   H9X 1434   2.585   4.418   3.674
   11SAPS   H9Y 1435   2.755   4.475   3.644
   11SAPS  C310 1436   2.728   4.348   3.818
   11SAPS  H10X 1437   2.663   4.260   3.838
   11SAPS  H10Y 1438   2.700   4.436   3.880
   11SAPS  C311 1439   2.878   4.308   3.840
   11SAPS  H11X 1440   2.944   4.369   3.774
   11SAPS  H11Y 1441   2.878   4.200   3.817
   11SAPS  C312 1442   2.924   4.336   3.990
   11SAPS  H12X 1443   2.837   4.304   4.050
   11SAPS  H12Y 1444   2.953   4.442   4.012
   11SAPS  C313 1445   3.028   4.237   4.041
   11SAPS  H13X 1446   3.122   4.244   3.982
   11SAPS  H13Y 1447   2.978   4.138   4.029
   11SAPS  C314 1448   3.094   4.255   4.179
   11SAPS  H14X 1449   3.026   4.214   4.257
   11SAPS  H14Y 1450   3.104   4.358   4.221
   11SAPS  C315 1451   3.226   4.180   4.193
   11SAPS  H15X 1452   3.299   4.233   4.128
   11SAPS  H15Y 1453   3.214   4.074   4.163
   11SAPS  C316 1454   3.270   4.196   4.344
   11SAPS  H16X 1455   3.257   4.304   4.364
   11SAPS  H16Y 1456   3.380   4.179   4.335
   11SAPS  C317 1457   3.205   4.089   4.434
   11SAPS  H17X 1458   3.211   3.990   4.385
   11SAPS  H17Y 1459   3.101   4.125   4.446
   11SAPS  C318 1460   3.278   4.082   4.576
   11SAPS  H18X 1461   3.278   4.188   4.609
   11SAPS  H18Y 1462   3.388   4.063   4.571
   11SAPS  H18Z 1463   3.223   4.015   4.646
   12SAPS     N 1464   2.757   2.678   1.987
   12SAPS   HN1 1465   2.803   2.723   2.069
   12SAPS   HN2 1466   2.660   2.717   1.984
   12SAPS   HN3 1467   2.730   2.577   1.985
   12SAPS   C12 1468   2.826   2.722   1.857
   12SAPS  H12A 1469   2.920   2.669   1.854
   12SAPS   C13 1470   2.755   2.671   1.728
   12SAPS  O13A 1471   2.649   2.604   1.735
   12SAPS  O13B 1472   2.815   2.688   1.621
   12SAPS   C11 1473   2.846   2.879   1.847
   12SAPS  H11A 1474   2.894   2.914   1.753
   12SAPS  H11B 1475   2.912   2.898   1.934
   12SAPS     P 1476   2.696   3.086   1.869
   12SAPS   O13 1477   2.740   3.139   1.737
   12SAPS   O14 1478   2.560   3.116   1.916
   12SAPS   O12 1479   2.719   2.928   1.866
   12SAPS   O11 1480   2.800   3.135   1.969
   12SAPS    C1 1481   2.819   3.075   2.099
   12SAPS    HA 1482   2.761   2.981   2.109
   12SAPS    HB 1483   2.925   3.042   2.100
   12SAPS    C2 1484   2.806   3.170   2.223
   12SAPS    HS 1485   2.824   3.111   2.315
   12SAPS   O21 1486   2.670   3.225   2.219
   12SAPS   C21 1487   2.563   3.153   2.258
   12SAPS   O22 1488   2.569   3.041   2.308
   12SAPS   C22 1489   2.429   3.227   2.243
   12SAPS   H2R 1490   2.418   3.266   2.140
   12SAPS   H2S 1491   2.342   3.160   2.261
   12SAPS    C3 1492   2.915   3.278   2.217
   12SAPS    HX 1493   2.897   3.337   2.125
   12SAPS    HY 1494   3.016   3.234   2.203
   12SAPS   O31 1495   2.917   3.368   2.332
   12SAPS   C31 1496   2.892   3.499   2.308
   12SAPS   O32 1497   2.886   3.552   2.198
   12SAPS   C32 1498   2.871   3.574   2.441
   12SAPS   H2X 1499   2.797   3.653   2.414
   12SAPS   H2Y 1500   2.965   3.623   2.474
   12SAPS   C23 1501   2.422   3.342   2.347
   12SAPS   H3R 1502   2.340   3.416   2.339
   12SAPS   H3S 1503   2.514   3.405   2.343
   12SAPS   C24 1504   2.411   3.278   2.490
   12SAPS   H4R 1505   2.488   3.201   2.512
   12SAPS   H4S 1506   2.309   3.235   2.486
   12SAPS   C25 1507   2.398   3.385   2.600
   12SAPS   H5R 1508   2.480   3.453   2.629
   12SAPS   C26 1509   2.292   3.399   2.682
   12SAPS   H6R 1510   2.301   3.469   2.766
   12SAPS   C27 1511   2.170   3.309   2.689
   12SAPS   H7R 1512   2.185   3.200   2.700
   12SAPS   H7S 1513   2.099   3.334   2.607
   12SAPS   C28 1514   2.084   3.342   2.811
   12SAPS   H8R 1515   1.976   3.345   2.789
   12SAPS   C29 1516   2.115   3.325   2.939
   12SAPS   H9R 1517   2.046   3.368   3.014
   12SAPS  C210 1518   2.237   3.274   3.005
   12SAPS  H10R 1519   2.278   3.359   3.065
   12SAPS  H10S 1520   2.315   3.244   2.932
   12SAPS  C211 1521   2.222   3.159   3.094
   12SAPS  H11R 1522   2.241   3.065   3.040
   12SAPS  C212 1523   2.180   3.153   3.221
   12SAPS  H12R 1524   2.137   3.060   3.260
   12SAPS  C213 1525   2.138   3.275   3.303
   12SAPS  H13R 1526   2.029   3.265   3.320
   12SAPS  H13S 1527   2.155   3.373   3.253
   12SAPS  C214 1528   2.206   3.272   3.443
   12SAPS  H14R 1529   2.311   3.305   3.435
   12SAPS  C215 1530   2.140   3.257   3.559
   12SAPS  H15R 1531   2.202   3.264   3.649
   12SAPS  C216 1532   1.993   3.243   3.585
   12SAPS  H16R 1533   1.959   3.144   3.622
   12SAPS  H16S 1534   1.935   3.263   3.492
   12SAPS  C217 1535   1.938   3.354   3.681
   12SAPS  H17R 1536   1.950   3.455   3.636
   12SAPS  H17S 1537   1.998   3.352   3.774
   12SAPS  C218 1538   1.791   3.342   3.701
   12SAPS  H18R 1539   1.749   3.334   3.598
   12SAPS  H18S 1540   1.751   3.430   3.755
   12SAPS  C219 1541   1.759   3.215   3.784
   12SAPS  H19R 1542   1.849   3.204   3.848
   12SAPS  H19S 1543   1.742   3.130   3.715
   12SAPS  C220 1544   1.637   3.248   3.871
   12SAPS  H20R 1545   1.652   3.338   3.934
   12SAPS  H20S 1546   1.618   3.166   3.943
   12SAPS  H20T 1547   1.546   3.261   3.808
   12SAPS   C33 1548   2.814   3.491   2.557
   12SAPS   H3X 1549   2.893   3.425   2.599
   12SAPS   H3Y 1550   2.739   3.420   2.515
   12SAPS   C34 1551   2.759   3.581   2.674
   12SAPS   H4X 1552   2.709   3.515   2.748
   12SAPS   H4Y 1553   2.672   3.640   2.638
   12SAPS   C35 1554   2.865   3.664   2.751
   12SAPS   H5X 1555   2.888   3.746   2.680
   12SAPS   H5Y 1556   2.959   3.610   2.773
   12SAPS   C36 1557   2.796   3.704   2.886
   12SAPS   H6X 1558   2.758   3.607   2.927
   12SAPS   H6Y 1559   2.712   3.775   2.879
   12SAPS   C37 1560   2.896   3.770   2.980
   12SAPS   H7X 1561   2.938   3.866   2.944
   12SAPS   H7Y 1562   2.988   3.708   2.982
   12SAPS   C38 1563   2.832   3.781   3.118
   12SAPS   H8X 1564   2.799   3.677   3.136
   12SAPS   H8Y 1565   2.741   3.843   3.103
   12SAPS   C39 1566   2.929   3.834   3.225
   12SAPS   H9X 1567   2.921   3.943   3.207
   12SAPS   H9Y 1568   3.038   3.813   3.216
   12SAPS  C310 1569   2.885   3.803   3.370
   12SAPS  H10X 1570   2.891   3.694   3.387
   12SAPS  H10Y 1571   2.779   3.837   3.373
   12SAPS  C311 1572   2.978   3.874   3.469
   12SAPS  H11X 1573   2.974   3.979   3.436
   12SAPS  H11Y 1574   3.082   3.835   3.462
   12SAPS  C312 1575   2.939   3.859   3.616
   12SAPS  H12X 1576   3.013   3.923   3.668
   12SAPS  H12Y 1577   2.962   3.753   3.640
   12SAPS  C313 1578   2.796   3.897   3.655
   12SAPS  H13X 1579   2.709   3.835   3.624
   12SAPS  H13Y 1580   2.774   4.000   3.621
   12SAPS  C314 1581   2.777   3.895   3.808
   12SAPS  H14X 1582   2.864   3.950   3.849
   12SAPS  H14Y 1583   2.784   3.789   3.841
   12SAPS  C315 1584   2.652   3.954   3.856
   12SAPS  H15X 1585   2.566   3.893   3.821
   12SAPS  H15Y 1586   2.638   4.060   3.824
   12SAPS  C316 1587   2.647   3.960   4.007
   12SAPS  H16X 1588   2.703   4.044   4.055
   12SAPS  H16Y 1589   2.689   3.867   4.051
   12SAPS  C317 1590   2.508   3.980   4.057
   12SAPS  H17X 1591   2.442   3.891   4.058
   12SAPS  H17Y 1592   2.468   4.050   3.982
   12SAPS  C318 1593   2.492   4.050   4.194
   12SAPS  H18X 1594   2.540   4.149   4.207
   12SAPS  H18Y 1595   2.535   3.981   4.270
   12SAPS  H18Z 1596   2.389   4.067   4.232
   13SAPS     N 1597   4.246   2.794   1.760
   13SAPS   HN1 1598   4.191   2.861   1.818
   13SAPS   HN2 1599   4.323   2.760   1.822
   13SAPS   HN3 1600   4.289   2.852   1.685
   13SAPS   C12 1601   4.178   2.664   1.719
   13SAPS  H12A 1602   4.105   2.707   1.653
   13SAPS   C13 1603   4.279   2.567   1.653
   13SAPS  O13A 1604   4.386   2.612   1.612
   13SAPS  O13B 1605   4.235   2.456   1.616
   13SAPS   C11 1606   4.116   2.599   1.853
   13SAPS  H11A 1607   4.191   2.571   1.930
   13SAPS  H11B 1608   4.076   2.502   1.816
   13SAPS     P 1609   3.864   2.702   1.856
   13SAPS   O13 1610   3.890   2.789   1.738
   13SAPS   O14 1611   3.793   2.576   1.832
   13SAPS   O12 1612   4.008   2.669   1.917
   13SAPS   O11 1613   3.790   2.789   1.968
   13SAPS    C1 1614   3.873   2.846   2.081
   13SAPS    HA 1615   3.981   2.850   2.057
   13SAPS    HB 1616   3.832   2.949   2.087
   13SAPS    C2 1617   3.834   2.789   2.218
   13SAPS    HS 1618   3.881   2.838   2.306
   13SAPS   O21 1619   3.867   2.652   2.232
   13SAPS   C21 1620   3.998   2.626   2.226
   13SAPS   O22 1621   4.076   2.716   2.255
   13SAPS   C22 1622   4.020   2.476   2.192
   13SAPS   H2R 1623   3.926   2.426   2.221
   13SAPS   H2S 1624   4.030   2.450   2.084
   13SAPS    C3 1625   3.685   2.812   2.237
   13SAPS    HX 1626   3.630   2.736   2.178
   13SAPS    HY 1627   3.652   2.913   2.205
   13SAPS   O31 1628   3.647   2.783   2.376
   13SAPS   C31 1629   3.663   2.893   2.451
   13SAPS   O32 1630   3.705   2.999   2.416
   13SAPS   C32 1631   3.621   2.855   2.594
   13SAPS   H2X 1632   3.667   2.758   2.624
   13SAPS   H2Y 1633   3.510   2.854   2.593
   13SAPS   C23 1634   4.136   2.409   2.264
   13SAPS   H3R 1635   4.223   2.472   2.233
   13SAPS   H3S 1636   4.137   2.305   2.226
   13SAPS   C24 1637   4.125   2.409   2.419
   13SAPS   H4R 1638   4.115   2.516   2.447
   13SAPS   H4S 1639   4.226   2.376   2.451
   13SAPS   C25 1640   4.024   2.315   2.480
   13SAPS   H5R 1641   4.012   2.220   2.427
   13SAPS   C26 1642   3.912   2.350   2.549
   13SAPS   H6R 1643   3.848   2.276   2.600
   13SAPS   C27 1644   3.861   2.492   2.564
   13SAPS   H7R 1645   3.753   2.495   2.539
   13SAPS   H7S 1646   3.892   2.551   2.475
   13SAPS   C28 1647   3.898   2.582   2.678
   13SAPS   H8R 1648   3.932   2.682   2.647
   13SAPS   C29 1649   3.878   2.553   2.807
   13SAPS   H9R 1650   3.922   2.619   2.883
   13SAPS  C210 1651   3.841   2.417   2.858
   13SAPS  H10R 1652   3.889   2.407   2.957
   13SAPS  H10S 1653   3.892   2.339   2.796
   13SAPS  C211 1654   3.690   2.394   2.856
   13SAPS  H11R 1655   3.653   2.351   2.761
   13SAPS  C212 1656   3.616   2.401   2.965
   13SAPS  H12R 1657   3.509   2.383   2.948
   13SAPS  C213 1658   3.660   2.461   3.094
   13SAPS  H13R 1659   3.745   2.405   3.139
   13SAPS  H13S 1660   3.573   2.439   3.160
   13SAPS  C214 1661   3.681   2.615   3.104
   13SAPS  H14R 1662   3.670   2.675   3.012
   13SAPS  C215 1663   3.719   2.678   3.210
   13SAPS  H15R 1664   3.747   2.784   3.203
   13SAPS  C216 1665   3.750   2.623   3.348
   13SAPS  H16R 1666   3.850   2.654   3.386
   13SAPS  H16S 1667   3.775   2.515   3.336
   13SAPS  C217 1668   3.630   2.645   3.438
   13SAPS  H17R 1669   3.545   2.585   3.400
   13SAPS  H17S 1670   3.590   2.749   3.431
   13SAPS  C218 1671   3.665   2.627   3.578
   13SAPS  H18R 1672   3.748   2.694   3.608
   13SAPS  H18S 1673   3.693   2.520   3.590
   13SAPS  C219 1674   3.552   2.662   3.674
   13SAPS  H19R 1675   3.459   2.612   3.639
   13SAPS  H19S 1676   3.543   2.772   3.669
   13SAPS  C220 1677   3.583   2.615   3.820
   13SAPS  H20R 1678   3.680   2.649   3.863
   13SAPS  H20S 1679   3.562   2.509   3.845
   13SAPS  H20T 1680   3.511   2.671   3.883
   13SAPS   C33 1681   3.662   2.961   2.695
   13SAPS   H3X 1682   3.643   3.062   2.653
   13SAPS   H3Y 1683   3.770   2.956   2.721
   13SAPS   C34 1684   3.592   2.946   2.830
   13SAPS   H4X 1685   3.615   2.848   2.876
   13SAPS   H4Y 1686   3.485   2.960   2.801
   13SAPS   C35 1687   3.619   3.052   2.936
   13SAPS   H5X 1688   3.623   3.153   2.890
   13SAPS   H5Y 1689   3.720   3.027   2.977
   13SAPS   C36 1690   3.509   3.059   3.042
   13SAPS   H6X 1691   3.490   2.953   3.067
   13SAPS   H6Y 1692   3.419   3.116   3.012
   13SAPS   C37 1693   3.564   3.135   3.159
   13SAPS   H7X 1694   3.577   3.240   3.123
   13SAPS   H7Y 1695   3.658   3.085   3.192
   13SAPS   C38 1696   3.460   3.125   3.269
   13SAPS   H8X 1697   3.431   3.019   3.280
   13SAPS   H8Y 1698   3.375   3.190   3.237
   13SAPS   C39 1699   3.499   3.185   3.403
   13SAPS   H9X 1700   3.408   3.188   3.466
   13SAPS   H9Y 1701   3.537   3.286   3.379
   13SAPS  C310 1702   3.615   3.113   3.472
   13SAPS  H10X 1703   3.720   3.123   3.438
   13SAPS  H10Y 1704   3.593   3.005   3.457
   13SAPS  C311 1705   3.604   3.139   3.625
   13SAPS  H11X 1706   3.498   3.112   3.642
   13SAPS  H11Y 1707   3.620   3.248   3.644
   13SAPS  C312 1708   3.698   3.046   3.701
   13SAPS  H12X 1709   3.803   3.069   3.671
   13SAPS  H12Y 1710   3.677   2.943   3.665
   13SAPS  C313 1711   3.695   3.038   3.859
   13SAPS  H13X 1712   3.740   2.944   3.898
   13SAPS  H13Y 1713   3.586   3.036   3.882
   13SAPS  C314 1714   3.777   3.153   3.927
   13SAPS  H14X 1715   3.752   3.252   3.884
   13SAPS  H14Y 1716   3.886   3.134   3.915
   13SAPS  C315 1717   3.726   3.158   4.068
   13SAPS  H15X 1718   3.710   3.055   4.108
   13SAPS  H15Y 1719   3.625   3.202   4.075
   13SAPS  C316 1720   3.818   3.229   4.165
   13SAPS  H16X 1721   3.826   3.333   4.127
   13SAPS  H16Y 1722   3.921   3.190   4.151
   13SAPS  C317 1723   3.778   3.231   4.309
   13SAPS  H17X 1724   3.849   3.291   4.371
   13SAPS  H17Y 1725   3.764   3.128   4.349
   13SAPS  C318 1726   3.638   3.287   4.328
   13SAPS  H18X 1727   3.607   3.289   4.434
   13SAPS  H18Y 1728   3.564   3.221   4.277
   13SAPS  H18Z 1729   3.635   3.394   4.298
   14SAPS     N 1730   4.506   3.147   1.797
   14SAPS   HN1 1731   4.540   3.050   1.785
   14SAPS   HN2 1732   4.586   3.207   1.824
   14SAPS   HN3 1733   4.438   3.145   1.876
   14SAPS   C12 1734   4.435   3.199   1.671
   14SAPS  H12A 1735   4.507   3.251   1.610
   14SAPS   C13 1736   4.389   3.081   1.582
   14SAPS  O13A 1737   4.393   2.965   1.626
   14SAPS  O13B 1738   4.354   3.101   1.464
   14SAPS   C11 1739   4.312   3.280   1.717
   14SAPS  H11A 1740   4.231   3.281   1.641
   14SAPS  H11B 1741   4.351   3.384   1.722
   14SAPS     P 1742   4.123   3.151   1.844
   14SAPS   O13 1743   4.057   3.152   1.715
   14SAPS   O14 1744   4.163   3.015   1.896
   14SAPS   O12 1745   4.255   3.241   1.841
   14SAPS   O11 1746   4.032   3.222   1.953
   14SAPS    C1 1747   4.048   3.361   1.998
   14SAPS    HA 1748   4.089   3.421   1.914
   14SAPS    HB 1749   3.947   3.400   2.026
   14SAPS    C2 1750   4.140   3.370   2.124
   14SAPS    HS 1751   4.245   3.358   2.091
   14SAPS   O21 1752   4.098   3.268   2.215
   14SAPS   C21 1753   4.184   3.226   2.306
   14SAPS   O22 1754   4.303   3.254   2.313
   14SAPS   C22 1755   4.099   3.141   2.399
   14SAPS   H2R 1756   4.017   3.211   2.427
   14SAPS   H2S 1757   4.043   3.065   2.340
   14SAPS    C3 1758   4.129   3.515   2.182
   14SAPS    HX 1759   4.026   3.555   2.187
   14SAPS    HY 1760   4.187   3.571   2.105
   14SAPS   O31 1761   4.178   3.543   2.314
   14SAPS   C31 1762   4.308   3.571   2.328
   14SAPS   O32 1763   4.394   3.597   2.248
   14SAPS   C32 1764   4.337   3.565   2.477
   14SAPS   H2X 1765   4.310   3.461   2.505
   14SAPS   H2Y 1766   4.271   3.637   2.531
   14SAPS   C23 1767   4.172   3.088   2.518
   14SAPS   H3R 1768   4.245   3.019   2.472
   14SAPS   H3S 1769   4.099   3.027   2.575
   14SAPS   C24 1770   4.238   3.188   2.612
   14SAPS   H4R 1771   4.319   3.245   2.562
   14SAPS   H4S 1772   4.292   3.115   2.677
   14SAPS   C25 1773   4.137   3.275   2.691
   14SAPS   H5R 1774   4.093   3.354   2.628
   14SAPS   C26 1775   4.114   3.265   2.820
   14SAPS   H6R 1776   4.030   3.325   2.857
   14SAPS   C27 1777   4.154   3.156   2.906
   14SAPS   H7R 1778   4.109   3.183   3.004
   14SAPS   H7S 1779   4.263   3.153   2.930
   14SAPS   C28 1780   4.095   3.024   2.874
   14SAPS   H8R 1781   4.069   3.015   2.767
   14SAPS   C29 1782   4.057   2.928   2.960
   14SAPS   H9R 1783   3.996   2.844   2.923
   14SAPS  C210 1784   4.081   2.934   3.107
   14SAPS  H10R 1785   4.191   2.947   3.115
   14SAPS  H10S 1786   4.055   2.831   3.141
   14SAPS  C211 1787   4.009   3.035   3.190
   14SAPS  H11R 1788   3.970   3.118   3.129
   14SAPS  C212 1789   3.991   3.039   3.323
   14SAPS  H12R 1790   3.933   3.124   3.361
   14SAPS  C213 1791   4.047   2.945   3.420
   14SAPS  H13R 1792   4.129   3.000   3.470
   14SAPS  H13S 1793   4.102   2.860   3.373
   14SAPS  C214 1794   3.959   2.878   3.528
   14SAPS  H14R 1795   3.854   2.860   3.502
   14SAPS  C215 1796   3.993   2.838   3.651
   14SAPS  H15R 1797   3.917   2.795   3.718
   14SAPS  C216 1798   4.131   2.842   3.718
   14SAPS  H16R 1799   4.215   2.862   3.647
   14SAPS  H16S 1800   4.152   2.735   3.739
   14SAPS  C217 1801   4.129   2.928   3.841
   14SAPS  H17R 1802   4.052   2.897   3.915
   14SAPS  H17S 1803   4.106   3.029   3.801
   14SAPS  C218 1804   4.259   2.941   3.918
   14SAPS  H18R 1805   4.330   2.978   3.841
   14SAPS  H18S 1806   4.298   2.841   3.944
   14SAPS  C219 1807   4.236   3.026   4.047
   14SAPS  H19R 1808   4.173   3.116   4.028
   14SAPS  H19S 1809   4.333   3.068   4.080
   14SAPS  C220 1810   4.165   2.959   4.168
   14SAPS  H20R 1811   4.174   3.011   4.266
   14SAPS  H20S 1812   4.205   2.856   4.175
   14SAPS  H20T 1813   4.057   2.955   4.144
   14SAPS   C33 1814   4.480   3.597   2.516
   14SAPS   H3X 1815   4.521   3.686   2.463
   14SAPS   H3Y 1816   4.537   3.504   2.496
   14SAPS   C34 1817   4.490   3.640   2.663
   14SAPS   H4X 1818   4.407   3.711   2.685
   14SAPS   H4Y 1819   4.587   3.688   2.688
   14SAPS   C35 1820   4.472   3.527   2.766
   14SAPS   H5X 1821   4.516   3.435   2.723
   14SAPS   H5Y 1822   4.363   3.508   2.770
   14SAPS   C36 1823   4.526   3.566   2.907
   14SAPS   H6X 1824   4.490   3.668   2.931
   14SAPS   H6Y 1825   4.636   3.571   2.920
   14SAPS   C37 1826   4.457   3.464   3.001
   14SAPS   H7X 1827   4.465   3.359   2.965
   14SAPS   H7Y 1828   4.348   3.484   2.997
   14SAPS   C38 1829   4.507   3.466   3.150
   14SAPS   H8X 1830   4.608   3.511   3.142
   14SAPS   H8Y 1831   4.526   3.360   3.178
   14SAPS   C39 1832   4.406   3.522   3.251
   14SAPS   H9X 1833   4.312   3.462   3.253
   14SAPS   H9Y 1834   4.383   3.625   3.216
   14SAPS  C310 1835   4.472   3.539   3.396
   14SAPS  H10X 1836   4.578   3.552   3.363
   14SAPS  H10Y 1837   4.468   3.447   3.459
   14SAPS  C311 1838   4.413   3.662   3.476
   14SAPS  H11X 1839   4.303   3.653   3.486
   14SAPS  H11Y 1840   4.439   3.749   3.413
   14SAPS  C312 1841   4.468   3.674   3.614
   14SAPS  H12X 1842   4.573   3.705   3.598
   14SAPS  H12Y 1843   4.450   3.582   3.673
   14SAPS  C313 1844   4.411   3.795   3.687
   14SAPS  H13X 1845   4.308   3.773   3.722
   14SAPS  H13Y 1846   4.416   3.877   3.612
   14SAPS  C314 1847   4.489   3.846   3.816
   14SAPS  H14X 1848   4.440   3.939   3.853
   14SAPS  H14Y 1849   4.596   3.859   3.791
   14SAPS  C315 1850   4.487   3.734   3.917
   14SAPS  H15X 1851   4.547   3.656   3.867
   14SAPS  H15Y 1852   4.386   3.693   3.939
   14SAPS  C316 1853   4.568   3.774   4.041
   14SAPS  H16X 1854   4.671   3.808   4.016
   14SAPS  H16Y 1855   4.583   3.693   4.116
   14SAPS  C317 1856   4.498   3.887   4.120
   14SAPS  H17X 1857   4.390   3.877   4.143
   14SAPS  H17Y 1858   4.511   3.991   4.084
   14SAPS  C318 1859   4.573   3.903   4.256
   14SAPS  H18X 1860   4.552   4.006   4.292
   14SAPS  H18Y 1861   4.683   3.890   4.245
   14SAPS  H18Z 1862   4.540   3.832   4.335
   15SAPS     N 1863   2.710   4.600   1.665
   15SAPS   HN1 1864   2.684   4.503   1.691
   15SAPS   HN2 1865   2.637   4.626   1.596
   15SAPS   HN3 1866   2.806   4.598   1.626
   15SAPS   C12 1867   2.693   4.692   1.788
   15SAPS  H12A 1868   2.739   4.788   1.774
   15SAPS   C13 1869   2.543   4.716   1.816
   15SAPS  O13A 1870   2.456   4.640   1.771
   15SAPS  O13B 1871   2.518   4.790   1.917
   15SAPS   C11 1872   2.765   4.634   1.910
   15SAPS  H11A 1873   2.703   4.556   1.960
   15SAPS  H11B 1874   2.772   4.715   1.985
   15SAPS     P 1875   3.035   4.638   1.946
   15SAPS   O13 1876   3.138   4.536   1.936
   15SAPS   O14 1877   3.052   4.765   1.877
   15SAPS   O12 1878   2.893   4.576   1.894
   15SAPS   O11 1879   3.011   4.677   2.098
   15SAPS    C1 1880   2.933   4.599   2.194
   15SAPS    HA 1881   2.847   4.661   2.229
   15SAPS    HB 1882   2.903   4.494   2.173
   15SAPS    C2 1883   3.022   4.560   2.315
   15SAPS    HS 1884   2.956   4.515   2.392
   15SAPS   O21 1885   3.108   4.672   2.363
   15SAPS   C21 1886   3.058   4.740   2.463
   15SAPS   O22 1887   2.950   4.734   2.508
   15SAPS   C22 1888   3.178   4.824   2.508
   15SAPS   H2R 1889   3.274   4.768   2.496
   15SAPS   H2S 1890   3.199   4.912   2.443
   15SAPS    C3 1891   3.110   4.440   2.279
   15SAPS    HX 1892   3.151   4.454   2.176
   15SAPS    HY 1893   3.037   4.357   2.276
   15SAPS   O31 1894   3.202   4.413   2.387
   15SAPS   C31 1895   3.330   4.418   2.371
   15SAPS   O32 1896   3.389   4.446   2.267
   15SAPS   C32 1897   3.393   4.387   2.507
   15SAPS   H2X 1898   3.366   4.281   2.527
   15SAPS   H2Y 1899   3.352   4.460   2.580
   15SAPS   C23 1900   3.169   4.867   2.650
   15SAPS   H3R 1901   3.076   4.917   2.685
   15SAPS   H3S 1902   3.238   4.953   2.652
   15SAPS   C24 1903   3.202   4.761   2.752
   15SAPS   H4R 1904   3.255   4.805   2.840
   15SAPS   H4S 1905   3.281   4.691   2.717
   15SAPS   C25 1906   3.084   4.681   2.803
   15SAPS   H5R 1907   3.049   4.615   2.722
   15SAPS   C26 1908   3.040   4.664   2.928
   15SAPS   H6R 1909   2.948   4.605   2.938
   15SAPS   C27 1910   3.087   4.751   3.045
   15SAPS   H7R 1911   2.989   4.789   3.084
   15SAPS   H7S 1912   3.139   4.843   3.012
   15SAPS   C28 1913   3.164   4.685   3.156
   15SAPS   H8R 1914   3.228   4.602   3.121
   15SAPS   C29 1915   3.156   4.707   3.286
   15SAPS   H9R 1916   3.230   4.656   3.349
   15SAPS  C210 1917   3.055   4.792   3.363
   15SAPS  H10R 1918   2.972   4.818   3.294
   15SAPS  H10S 1919   3.098   4.890   3.392
   15SAPS  C211 1920   3.002   4.720   3.481
   15SAPS  H11R 1921   2.947   4.627   3.462
   15SAPS  C212 1922   3.024   4.759   3.612
   15SAPS  H12R 1923   2.985   4.699   3.696
   15SAPS  C213 1924   3.105   4.886   3.656
   15SAPS  H13R 1925   3.179   4.899   3.574
   15SAPS  H13S 1926   3.165   4.867   3.747
   15SAPS  C214 1927   3.009   5.004   3.673
   15SAPS  H14R 1928   3.022   5.075   3.590
   15SAPS  C215 1929   2.932   5.035   3.780
   15SAPS  H15R 1930   2.881   5.132   3.789
   15SAPS  C216 1931   2.917   4.933   3.887
   15SAPS  H16R 1932   2.941   4.829   3.856
   15SAPS  H16S 1933   2.812   4.939   3.922
   15SAPS  C217 1934   3.000   4.977   4.010
   15SAPS  H17R 1935   2.971   5.077   4.050
   15SAPS  H17S 1936   3.108   4.990   3.986
   15SAPS  C218 1937   2.977   4.875   4.127
   15SAPS  H18R 1938   2.872   4.845   4.145
   15SAPS  H18S 1939   3.008   4.927   4.220
   15SAPS  C219 1940   3.059   4.741   4.110
   15SAPS  H19R 1941   3.164   4.774   4.121
   15SAPS  H19S 1942   3.039   4.686   4.016
   15SAPS  C220 1943   3.031   4.640   4.225
   15SAPS  H20R 1944   3.021   4.707   4.313
   15SAPS  H20S 1945   3.111   4.564   4.232
   15SAPS  H20T 1946   2.927   4.600   4.219
   15SAPS   C33 1947   3.548   4.399   2.505
   15SAPS   H3X 1948   3.568   4.498   2.461
   15SAPS   H3Y 1949   3.594   4.323   2.438
   15SAPS   C34 1950   3.598   4.386   2.655
   15SAPS   H4X 1951   3.561   4.293   2.702
   15SAPS   H4Y 1952   3.563   4.475   2.711
   15SAPS   C35 1953   3.752   4.385   2.659
   15SAPS   H5X 1954   3.788   4.462   2.587
   15SAPS   H5Y 1955   3.783   4.287   2.616
   15SAPS   C36 1956   3.819   4.419   2.790
   15SAPS   H6X 1957   3.768   4.492   2.856
   15SAPS   H6Y 1958   3.916   4.469   2.768
   15SAPS   C37 1959   3.846   4.289   2.880
   15SAPS   H7X 1960   3.914   4.226   2.818
   15SAPS   H7Y 1961   3.751   4.232   2.883
   15SAPS   C38 1962   3.909   4.307   3.022
   15SAPS   H8X 1963   4.009   4.356   3.014
   15SAPS   H8Y 1964   3.940   4.205   3.052
   15SAPS   C39 1965   3.818   4.372   3.130
   15SAPS   H9X 1966   3.727   4.309   3.140
   15SAPS   H9Y 1967   3.792   4.477   3.103
   15SAPS  C310 1968   3.884   4.383   3.272
   15SAPS  H10X 1969   3.974   4.448   3.275
   15SAPS  H10Y 1970   3.909   4.276   3.290
   15SAPS  C311 1971   3.792   4.432   3.377
   15SAPS  H11X 1972   3.692   4.397   3.345
   15SAPS  H11Y 1973   3.790   4.543   3.383
   15SAPS  C312 1974   3.803   4.375   3.519
   15SAPS  H12X 1975   3.835   4.269   3.509
   15SAPS  H12Y 1976   3.705   4.365   3.571
   15SAPS  C313 1977   3.911   4.444   3.610
   15SAPS  H13X 1978   3.864   4.525   3.670
   15SAPS  H13Y 1979   3.997   4.480   3.550
   15SAPS  C314 1980   3.973   4.340   3.707
   15SAPS  H14X 1981   4.054   4.379   3.772
   15SAPS  H14Y 1982   4.030   4.271   3.641
   15SAPS  C315 1983   3.873   4.277   3.803
   15SAPS  H15X 1984   3.918   4.219   3.886
   15SAPS  H15Y 1985   3.814   4.208   3.739
   15SAPS  C316 1986   3.789   4.378   3.873
   15SAPS  H16X 1987   3.728   4.437   3.801
   15SAPS  H16Y 1988   3.842   4.445   3.944
   15SAPS  C317 1989   3.674   4.314   3.959
   15SAPS  H17X 1990   3.593   4.286   3.887
   15SAPS  H17Y 1991   3.643   4.394   4.029
   15SAPS  C318 1992   3.708   4.177   4.034
   15SAPS  H18X 1993   3.619   4.118   4.062
   15SAPS  H18Y 1994   3.765   4.197   4.127
   15SAPS  H18Z 1995   3.771   4.117   3.965
   16SAPS     N 1996   4.409   4.144   1.428
   16SAPS   HN1 1997   4.443   4.070   1.363
   16SAPS   HN2 1998   4.341   4.204   1.377
   16SAPS   HN3 1999   4.492   4.205   1.442
   16SAPS   C12 2000   4.369   4.077   1.559
   16SAPS  H12A 2001   4.264   4.101   1.569
   16SAPS   C13 2002   4.382   3.922   1.574
   16SAPS  O13A 2003   4.444   3.860   1.482
   16SAPS  O13B 2004   4.383   3.882   1.692
   16SAPS   C11 2005   4.445   4.147   1.674
   16SAPS  H11A 2006   4.554   4.133   1.658
   16SAPS  H11B 2007   4.406   4.109   1.770
   16SAPS     P 2008   4.374   4.382   1.785
   16SAPS   O13 2009   4.429   4.519   1.783
   16SAPS   O14 2010   4.226   4.365   1.782
   16SAPS   O12 2011   4.430   4.289   1.663
   16SAPS   O11 2012   4.423   4.311   1.914
   16SAPS    C1 2013   4.563   4.275   1.938
   16SAPS    HA 2014   4.578   4.166   1.948
   16SAPS    HB 2015   4.632   4.309   1.858
   16SAPS    C2 2016   4.616   4.342   2.070
   16SAPS    HS 2017   4.714   4.292   2.085
   16SAPS   O21 2018   4.529   4.312   2.176
   16SAPS   C21 2019   4.552   4.188   2.223
   16SAPS   O22 2020   4.637   4.112   2.183
   16SAPS   C22 2021   4.466   4.166   2.344
   16SAPS   H2R 2022   4.506   4.224   2.430
   16SAPS   H2S 2023   4.367   4.215   2.329
   16SAPS    C3 2024   4.630   4.497   2.039
   16SAPS    HX 2025   4.528   4.522   2.005
   16SAPS    HY 2026   4.697   4.524   1.955
   16SAPS   O31 2027   4.666   4.575   2.155
   16SAPS   C31 2028   4.562   4.608   2.234
   16SAPS   O32 2029   4.446   4.586   2.211
   16SAPS   C32 2030   4.619   4.672   2.364
   16SAPS   H2X 2031   4.648   4.777   2.343
   16SAPS   H2Y 2032   4.715   4.619   2.386
   16SAPS   C23 2033   4.454   4.015   2.371
   16SAPS   H3R 2034   4.547   3.990   2.426
   16SAPS   H3S 2035   4.437   3.954   2.280
   16SAPS   C24 2036   4.332   3.989   2.464
   16SAPS   H4R 2037   4.317   4.071   2.537
   16SAPS   H4S 2038   4.358   3.897   2.520
   16SAPS   C25 2039   4.206   3.975   2.386
   16SAPS   H5R 2040   4.209   4.004   2.280
   16SAPS   C26 2041   4.077   3.959   2.439
   16SAPS   H6R 2042   3.988   3.955   2.375
   16SAPS   C27 2043   4.049   3.953   2.591
   16SAPS   H7R 2044   3.945   3.990   2.597
   16SAPS   H7S 2045   4.102   4.019   2.664
   16SAPS   C28 2046   4.057   3.809   2.640
   16SAPS   H8R 2047   4.048   3.734   2.560
   16SAPS   C29 2048   4.088   3.768   2.765
   16SAPS   H9R 2049   4.090   3.659   2.772
   16SAPS  C210 2050   4.116   3.857   2.886
   16SAPS  H10R 2051   4.018   3.871   2.938
   16SAPS  H10S 2052   4.135   3.961   2.855
   16SAPS  C211 2053   4.236   3.813   2.977
   16SAPS  H11R 2054   4.299   3.739   2.925
   16SAPS  C212 2055   4.256   3.864   3.098
   16SAPS  H12R 2056   4.339   3.812   3.150
   16SAPS  C213 2057   4.162   3.962   3.155
   16SAPS  H13R 2058   4.060   3.918   3.157
   16SAPS  H13S 2059   4.147   4.060   3.104
   16SAPS  C214 2060   4.196   4.003   3.296
   16SAPS  H14R 2061   4.292   4.053   3.315
   16SAPS  C215 2062   4.127   3.968   3.404
   16SAPS  H15R 2063   4.166   4.013   3.497
   16SAPS  C216 2064   4.000   3.891   3.401
   16SAPS  H16R 2065   3.994   3.825   3.491
   16SAPS  H16S 2066   3.992   3.825   3.312
   16SAPS  C217 2067   3.866   3.972   3.396
   16SAPS  H17R 2068   3.880   4.066   3.453
   16SAPS  H17S 2069   3.774   3.928   3.442
   16SAPS  C218 2070   3.833   4.025   3.254
   16SAPS  H18R 2071   3.924   4.058   3.201
   16SAPS  H18S 2072   3.768   4.113   3.279
   16SAPS  C219 2073   3.748   3.931   3.165
   16SAPS  H19R 2074   3.666   3.891   3.229
   16SAPS  H19S 2075   3.809   3.844   3.132
   16SAPS  C220 2076   3.702   3.991   3.029
   16SAPS  H20R 2077   3.658   3.906   2.972
   16SAPS  H20S 2078   3.779   4.034   2.962
   16SAPS  H20T 2079   3.626   4.069   3.051
   16SAPS   C33 2080   4.526   4.687   2.488
   16SAPS   H3X 2081   4.468   4.593   2.502
   16SAPS   H3Y 2082   4.450   4.761   2.454
   16SAPS   C34 2083   4.587   4.724   2.619
   16SAPS   H4X 2084   4.655   4.812   2.611
   16SAPS   H4Y 2085   4.641   4.639   2.666
   16SAPS   C35 2086   4.495   4.777   2.726
   16SAPS   H5X 2087   4.396   4.733   2.702
   16SAPS   H5Y 2088   4.481   4.887   2.719
   16SAPS   C36 2089   4.511   4.733   2.875
   16SAPS   H6X 2090   4.513   4.622   2.880
   16SAPS   H6Y 2091   4.421   4.769   2.928
   16SAPS   C37 2092   4.632   4.797   2.949
   16SAPS   H7X 2093   4.648   4.899   2.907
   16SAPS   H7Y 2094   4.719   4.742   2.910
   16SAPS   C38 2095   4.642   4.763   3.095
   16SAPS   H8X 2096   4.740   4.796   3.136
   16SAPS   H8Y 2097   4.627   4.656   3.120
   16SAPS   C39 2098   4.548   4.839   3.178
   16SAPS   H9X 2099   4.439   4.817   3.171
   16SAPS   H9Y 2100   4.559   4.948   3.161
   16SAPS  C310 2101   4.580   4.814   3.331
   16SAPS  H10X 2102   4.683   4.844   3.359
   16SAPS  H10Y 2103   4.577   4.703   3.341
   16SAPS  C311 2104   4.476   4.886   3.408
   16SAPS  H11X 2105   4.380   4.852   3.364
   16SAPS  H11Y 2106   4.472   4.992   3.375
   16SAPS  C312 2107   4.484   4.880   3.561
   16SAPS  H12X 2108   4.402   4.950   3.590
   16SAPS  H12Y 2109   4.579   4.924   3.599
   16SAPS  C313 2110   4.465   4.735   3.617
   16SAPS  H13X 2111   4.550   4.674   3.580
   16SAPS  H13Y 2112   4.369   4.692   3.583
   16SAPS  C314 2113   4.480   4.729   3.766
   16SAPS  H14X 2114   4.580   4.768   3.794
   16SAPS  H14Y 2115   4.475   4.627   3.809
   16SAPS  C315 2116   4.373   4.816   3.839
   16SAPS  H15X 2117   4.270   4.819   3.798
   16SAPS  H15Y 2118   4.418   4.917   3.833
   16SAPS  C316 2119   4.371   4.779   3.988
   16SAPS  H16X 2120   4.318   4.859   4.045
   16SAPS  H16Y 2121   4.472   4.772   4.033
   16SAPS  C317 2122   4.286   4.645   4.020
   16SAPS  H17X 2123   4.295   4.623   4.129
   16SAPS  H17Y 2124   4.344   4.567   3.966
   16SAPS  C318 2125   4.135   4.646   3.981
   16SAPS  H18X 2126   4.091   4.743   4.012
   16SAPS  H18Y 2127   4.081   4.565   4.034
   16SAPS  H18Z 2128   4.138   4.629   3.871
   17SAPS     N 2129   0.443   4.596   1.998
   17SAPS   HN1 2130   0.417   4.697   2.003
   17SAPS   HN2 2131   0.381   4.544   1.934
   17SAPS   HN3 2132   0.443   4.547   2.089
   17SAPS   C12 2133   0.582   4.598   1.954
   17SAPS  H12A 2134   0.585   4.548   1.858
   17SAPS   C13 2135   0.628   4.749   1.933
   17SAPS  O13A 2136   0.547   4.844   1.955
   17SAPS  O13B 2137   0.749   4.770   1.903
   17SAPS   C11 2138   0.681   4.520   2.056
   17SAPS  H11A 2139   0.682   4.562   2.159
   17SAPS  H11B 2140   0.780   4.552   2.017
   17SAPS     P 2141   0.794   4.288   2.078
   17SAPS   O13 2142   0.747   4.155   2.120
   17SAPS   O14 2143   0.875   4.294   1.957
   17SAPS   O12 2144   0.658   4.377   2.058
   17SAPS   O11 2145   0.876   4.355   2.196
   17SAPS    C1 2146   0.831   4.338   2.329
   17SAPS    HA 2147   0.722   4.357   2.340
   17SAPS    HB 2148   0.851   4.235   2.366
   17SAPS    C2 2149   0.902   4.434   2.423
   17SAPS    HS 2150   1.004   4.394   2.439
   17SAPS   O21 2151   0.827   4.445   2.550
   17SAPS   C21 2152   0.842   4.346   2.635
   17SAPS   O22 2153   0.895   4.236   2.618
   17SAPS   C22 2154   0.788   4.394   2.771
   17SAPS   H2R 2155   0.837   4.489   2.802
   17SAPS   H2S 2156   0.680   4.408   2.753
   17SAPS    C3 2157   0.904   4.576   2.359
   17SAPS    HX 2158   0.801   4.610   2.334
   17SAPS    HY 2159   0.969   4.559   2.271
   17SAPS   O31 2160   0.977   4.659   2.453
   17SAPS   C31 2161   0.960   4.785   2.438
   17SAPS   O32 2162   0.902   4.845   2.348
   17SAPS   C32 2163   1.049   4.861   2.547
   17SAPS   H2X 2164   1.155   4.867   2.516
   17SAPS   H2Y 2165   1.048   4.801   2.641
   17SAPS   C23 2166   0.802   4.285   2.879
   17SAPS   H3R 2167   0.907   4.251   2.885
   17SAPS   H3S 2168   0.749   4.194   2.844
   17SAPS   C24 2169   0.755   4.321   3.020
   17SAPS   H4R 2170   0.767   4.238   3.092
   17SAPS   H4S 2171   0.645   4.329   3.020
   17SAPS   C25 2172   0.816   4.454   3.069
   17SAPS   H5R 2173   0.912   4.478   3.020
   17SAPS   C26 2174   0.782   4.514   3.185
   17SAPS   H6R 2175   0.832   4.607   3.217
   17SAPS   C27 2176   0.665   4.472   3.276
   17SAPS   H7R 2177   0.692   4.372   3.315
   17SAPS   H7S 2178   0.577   4.460   3.208
   17SAPS   C28 2179   0.634   4.560   3.393
   17SAPS   H8R 2180   0.652   4.669   3.386
   17SAPS   C29 2181   0.619   4.522   3.521
   17SAPS   H9R 2182   0.615   4.599   3.599
   17SAPS  C210 2183   0.618   4.381   3.571
   17SAPS  H10R 2184   0.719   4.337   3.558
   17SAPS  H10S 2185   0.554   4.317   3.506
   17SAPS  C211 2186   0.564   4.368   3.717
   17SAPS  H11R 2187   0.543   4.462   3.770
   17SAPS  C212 2188   0.547   4.250   3.780
   17SAPS  H12R 2189   0.505   4.248   3.882
   17SAPS  C213 2190   0.544   4.105   3.719
   17SAPS  H13R 2191   0.641   4.061   3.749
   17SAPS  H13S 2192   0.542   4.115   3.608
   17SAPS  C214 2193   0.418   4.022   3.753
   17SAPS  H14R 2194   0.319   4.050   3.715
   17SAPS  C215 2195   0.416   3.924   3.847
   17SAPS  H15R 2196   0.324   3.867   3.869
   17SAPS  C216 2197   0.532   3.877   3.928
   17SAPS  H16R 2198   0.514   3.845   4.032
   17SAPS  H16S 2199   0.611   3.955   3.931
   17SAPS  C217 2200   0.595   3.746   3.867
   17SAPS  H17R 2201   0.640   3.762   3.767
   17SAPS  H17S 2202   0.519   3.666   3.850
   17SAPS  C218 2203   0.697   3.685   3.965
   17SAPS  H18R 2204   0.663   3.666   4.069
   17SAPS  H18S 2205   0.776   3.763   3.979
   17SAPS  C219 2206   0.758   3.560   3.904
   17SAPS  H19R 2207   0.787   3.589   3.800
   17SAPS  H19S 2208   0.680   3.481   3.897
   17SAPS  C220 2209   0.879   3.501   3.969
   17SAPS  H20R 2210   0.874   3.470   4.076
   17SAPS  H20S 2211   0.968   3.567   3.960
   17SAPS  H20T 2212   0.906   3.409   3.913
   17SAPS   C33 2213   1.004   5.012   2.556
   17SAPS   H3X 2214   0.894   5.022   2.562
   17SAPS   H3Y 2215   1.036   5.068   2.466
   17SAPS   C34 2216   1.052   5.077   2.692
   17SAPS   H4X 2217   1.036   5.186   2.674
   17SAPS   H4Y 2218   1.156   5.049   2.718
   17SAPS   C35 2219   0.959   5.041   2.813
   17SAPS   H5X 2220   0.982   4.935   2.838
   17SAPS   H5Y 2221   0.850   5.038   2.793
   17SAPS   C36 2222   0.988   5.118   2.941
   17SAPS   H6X 2223   0.948   5.222   2.935
   17SAPS   H6Y 2224   1.097   5.117   2.959
   17SAPS   C37 2225   0.925   5.060   3.070
   17SAPS   H7X 2226   0.941   5.143   3.143
   17SAPS   H7Y 2227   0.982   4.978   3.117
   17SAPS   C38 2228   0.778   5.033   3.067
   17SAPS   H8X 2229   0.741   4.945   3.009
   17SAPS   H8Y 2230   0.732   5.124   3.023
   17SAPS   C39 2231   0.723   5.032   3.211
   17SAPS   H9X 2232   0.771   5.123   3.254
   17SAPS   H9Y 2233   0.764   4.950   3.273
   17SAPS  C310 2234   0.573   5.029   3.223
   17SAPS  H10X 2235   0.534   4.925   3.215
   17SAPS  H10Y 2236   0.536   5.094   3.141
   17SAPS  C311 2237   0.522   5.081   3.355
   17SAPS  H11X 2238   0.418   5.118   3.343
   17SAPS  H11Y 2239   0.596   5.160   3.383
   17SAPS  C312 2240   0.537   4.977   3.468
   17SAPS  H12X 2241   0.639   4.936   3.448
   17SAPS  H12Y 2242   0.462   4.896   3.452
   17SAPS  C313 2243   0.504   5.033   3.610
   17SAPS  H13X 2244   0.400   5.073   3.608
   17SAPS  H13Y 2245   0.567   5.122   3.632
   17SAPS  C314 2246   0.523   4.935   3.728
   17SAPS  H14X 2247   0.452   4.855   3.701
   17SAPS  H14Y 2248   0.492   4.972   3.828
   17SAPS  C315 2249   0.665   4.881   3.732
   17SAPS  H15X 2250   0.732   4.967   3.752
   17SAPS  H15Y 2251   0.693   4.846   3.630
   17SAPS  C316 2252   0.684   4.765   3.833
   17SAPS  H16X 2253   0.779   4.709   3.828
   17SAPS  H16Y 2254   0.601   4.694   3.813
   17SAPS  C317 2255   0.672   4.816   3.978
   17SAPS  H17X 2256   0.581   4.876   3.997
   17SAPS  H17Y 2257   0.761   4.882   3.988
   17SAPS  C318 2258   0.686   4.699   4.071
   17SAPS  H18X 2259   0.702   4.731   4.176
   17SAPS  H18Y 2260   0.765   4.628   4.041
   17SAPS  H18Z 2261   0.596   4.634   4.065
   18SAPS     N 2262   4.549   2.905   2.204
   18SAPS   HN1 2263   4.606   2.967   2.143
   18SAPS   HN2 2264   4.457   2.952   2.213
   18SAPS   HN3 2265   4.587   2.897   2.300
   18SAPS   C12 2266   4.525   2.772   2.146
   18SAPS  H12A 2267   4.450   2.716   2.199
   18SAPS   C13 2268   4.473   2.783   1.998
   18SAPS  O13A 2269   4.474   2.895   1.936
   18SAPS  O13B 2270   4.425   2.680   1.939
   18SAPS   C11 2271   4.662   2.686   2.161
   18SAPS  H11A 2272   4.741   2.742   2.108
   18SAPS  H11B 2273   4.644   2.591   2.106
   18SAPS     P 2274   4.813   2.545   2.323
   18SAPS   O13 2275   4.745   2.415   2.306
   18SAPS   O14 2276   4.923   2.576   2.234
   18SAPS   O12 2277   4.699   2.656   2.294
   18SAPS   O11 2278   4.851   2.573   2.476
   18SAPS    C1 2279   4.781   2.664   2.562
   18SAPS    HA 2280   4.859   2.700   2.633
   18SAPS    HB 2281   4.734   2.752   2.512
   18SAPS    C2 2282   4.656   2.602   2.635
   18SAPS    HS 2283   4.623   2.684   2.702
   18SAPS   O21 2284   4.685   2.480   2.704
   18SAPS   C21 2285   4.727   2.503   2.834
   18SAPS   O22 2286   4.732   2.611   2.881
   18SAPS   C22 2287   4.719   2.374   2.914
   18SAPS   H2R 2288   4.616   2.338   2.893
   18SAPS   H2S 2289   4.784   2.301   2.861
   18SAPS    C3 2290   4.531   2.571   2.551
   18SAPS    HX 2291   4.555   2.491   2.477
   18SAPS    HY 2292   4.510   2.664   2.494
   18SAPS   O31 2293   4.421   2.529   2.634
   18SAPS   C31 2294   4.350   2.630   2.688
   18SAPS   O32 2295   4.372   2.747   2.676
   18SAPS   C32 2296   4.251   2.575   2.777
   18SAPS   H2X 2297   4.188   2.495   2.731
   18SAPS   H2Y 2298   4.177   2.646   2.819
   18SAPS   C23 2299   4.750   2.388   3.062
   18SAPS   H3R 2300   4.665   2.450   3.096
   18SAPS   H3S 2301   4.844   2.445   3.079
   18SAPS   C24 2302   4.756   2.255   3.133
   18SAPS   H4R 2303   4.820   2.181   3.080
   18SAPS   H4S 2304   4.652   2.217   3.128
   18SAPS   C25 2305   4.814   2.268   3.271
   18SAPS   H5R 2306   4.909   2.323   3.279
   18SAPS   C26 2307   4.768   2.203   3.382
   18SAPS   H6R 2308   4.833   2.226   3.467
   18SAPS   C27 2309   4.666   2.091   3.381
   18SAPS   H7R 2310   4.702   2.006   3.443
   18SAPS   H7S 2311   4.646   2.048   3.280
   18SAPS   C28 2312   4.536   2.158   3.420
   18SAPS   H8R 2313   4.503   2.221   3.337
   18SAPS   C29 2314   4.470   2.164   3.535
   18SAPS   H9R 2315   4.375   2.219   3.534
   18SAPS  C210 2316   4.511   2.109   3.668
   18SAPS  H10R 2317   4.616   2.132   3.697
   18SAPS  H10S 2318   4.516   1.999   3.655
   18SAPS  C211 2319   4.437   2.148   3.789
   18SAPS  H11R 2320   4.367   2.232   3.775
   18SAPS  C212 2321   4.466   2.106   3.921
   18SAPS  H12R 2322   4.401   2.135   4.005
   18SAPS  C213 2323   4.570   2.002   3.960
   18SAPS  H13R 2324   4.603   1.954   3.865
   18SAPS  H13S 2325   4.534   1.924   4.031
   18SAPS  C214 2326   4.689   2.064   4.025
   18SAPS  H14R 2327   4.731   2.150   3.971
   18SAPS  C215 2328   4.762   2.027   4.131
   18SAPS  H15R 2329   4.856   2.079   4.155
   18SAPS  C216 2330   4.727   1.903   4.206
   18SAPS  H16R 2331   4.643   1.842   4.166
   18SAPS  H16S 2332   4.696   1.919   4.311
   18SAPS  C217 2333   4.850   1.808   4.187
   18SAPS  H17R 2334   4.833   1.730   4.264
   18SAPS  H17S 2335   4.943   1.866   4.208
   18SAPS  C218 2336   4.853   1.747   4.043
   18SAPS  H18R 2337   4.875   1.821   3.963
   18SAPS  H18S 2338   4.751   1.703   4.035
   18SAPS  C219 2339   4.951   1.631   4.025
   18SAPS  H19R 2340   4.934   1.572   4.118
   18SAPS  H19S 2341   5.053   1.673   4.039
   18SAPS  C220 2342   4.929   1.560   3.884
   18SAPS  H20R 2343   4.822   1.537   3.861
   18SAPS  H20S 2344   4.982   1.463   3.889
   18SAPS  H20T 2345   4.975   1.627   3.808
   18SAPS   C33 2346   4.319   2.511   2.890
   18SAPS   H3X 2347   4.402   2.446   2.855
   18SAPS   H3Y 2348   4.244   2.437   2.925
   18SAPS   C34 2349   4.342   2.602   3.013
   18SAPS   H4X 2350   4.301   2.704   2.999
   18SAPS   H4Y 2351   4.451   2.625   3.010
   18SAPS   C35 2352   4.327   2.538   3.147
   18SAPS   H5X 2353   4.378   2.598   3.225
   18SAPS   H5Y 2354   4.377   2.439   3.148
   18SAPS   C36 2355   4.185   2.514   3.199
   18SAPS   H6X 2356   4.127   2.444   3.135
   18SAPS   H6Y 2357   4.120   2.604   3.194
   18SAPS   C37 2358   4.180   2.456   3.340
   18SAPS   H7X 2359   4.229   2.356   3.347
   18SAPS   H7Y 2360   4.070   2.446   3.348
   18SAPS   C38 2361   4.228   2.554   3.451
   18SAPS   H8X 2362   4.173   2.650   3.445
   18SAPS   H8Y 2363   4.332   2.585   3.427
   18SAPS   C39 2364   4.209   2.486   3.589
   18SAPS   H9X 2365   4.245   2.554   3.670
   18SAPS   H9Y 2366   4.280   2.401   3.595
   18SAPS  C310 2367   4.068   2.441   3.631
   18SAPS  H10X 2368   4.049   2.366   3.552
   18SAPS  H10Y 2369   4.008   2.534   3.621
   18SAPS  C311 2370   4.061   2.393   3.779
   18SAPS  H11X 2371   4.145   2.320   3.787
   18SAPS  H11Y 2372   3.970   2.329   3.776
   18SAPS  C312 2373   4.077   2.497   3.900
   18SAPS  H12X 2374   4.008   2.582   3.881
   18SAPS  H12Y 2375   4.184   2.529   3.901
   18SAPS  C313 2376   4.025   2.429   4.033
   18SAPS  H13X 2377   4.057   2.323   4.044
   18SAPS  H13Y 2378   3.915   2.439   4.046
   18SAPS  C314 2379   4.073   2.501   4.160
   18SAPS  H14X 2380   4.056   2.610   4.154
   18SAPS  H14Y 2381   4.183   2.484   4.161
   18SAPS  C315 2382   4.005   2.447   4.291
   18SAPS  H15X 2383   4.037   2.341   4.291
   18SAPS  H15Y 2384   3.896   2.457   4.305
   18SAPS  C316 2385   4.069   2.509   4.410
   18SAPS  H16X 2386   4.041   2.616   4.423
   18SAPS  H16Y 2387   4.178   2.498   4.388
   18SAPS  C317 2388   4.042   2.442   4.546
   18SAPS  H17X 2389   4.059   2.333   4.534
   18SAPS  H17Y 2390   3.934   2.455   4.569
   18SAPS  C318 2391   4.124   2.490   4.663
   18SAPS  H18X 2392   4.105   2.596   4.689
   18SAPS  H18Y 2393   4.233   2.476   4.649
   18SAPS  H18Z 2394   4.092   2.442   4.758
   19SAPS     N 2395   4.730   0.158   2.178
   19SAPS   HN1 2396   4.815   0.202   2.218
   19SAPS   HN2 2397   4.678   0.130   2.263
   19SAPS   HN3 2398   4.752   0.069   2.128
   19SAPS   C12 2399   4.662   0.261   2.089
   19SAPS  H12A 2400   4.687   0.360   2.126
   19SAPS   C13 2401   4.694   0.265   1.937
   19SAPS  O13A 2402   4.783   0.187   1.894
   19SAPS  O13B 2403   4.656   0.353   1.859
   19SAPS   C11 2404   4.505   0.232   2.098
   19SAPS  H11A 2405   4.471   0.133   2.061
   19SAPS  H11B 2406   4.444   0.297   2.031
   19SAPS     P 2407   4.391   0.373   2.293
   19SAPS   O13 2408   4.484   0.487   2.296
   19SAPS   O14 2409   4.271   0.384   2.214
   19SAPS   O12 2410   4.468   0.243   2.238
   19SAPS   O11 2411   4.357   0.325   2.440
   19SAPS    C1 2412   4.365   0.182   2.465
   19SAPS    HA 2413   4.350   0.111   2.381
   19SAPS    HB 2414   4.465   0.170   2.511
   19SAPS    C2 2415   4.242   0.146   2.555
   19SAPS    HS 2416   4.147   0.156   2.498
   19SAPS   O21 2417   4.239   0.231   2.668
   19SAPS   C21 2418   4.142   0.325   2.671
   19SAPS   O22 2419   4.075   0.354   2.573
   19SAPS   C22 2420   4.128   0.375   2.812
   19SAPS   H2R 2421   4.122   0.283   2.873
   19SAPS   H2S 2422   4.220   0.428   2.842
   19SAPS    C3 2423   4.248  -0.005   2.605
   19SAPS    HX 2424   4.355  -0.034   2.612
   19SAPS    HY 2425   4.205  -0.062   2.520
   19SAPS   O31 2426   4.182  -0.019   2.735
   19SAPS   C31 2427   4.067  -0.077   2.731
   19SAPS   O32 2428   4.011  -0.108   2.628
   19SAPS   C32 2429   4.012  -0.087   2.877
   19SAPS   H2X 2430   4.024   0.016   2.918
   19SAPS   H2Y 2431   4.087  -0.147   2.933
   19SAPS   C23 2432   4.004   0.462   2.842
   19SAPS   H3R 2433   3.919   0.397   2.812
   19SAPS   H3S 2434   4.001   0.556   2.783
   19SAPS   C24 2435   3.999   0.497   2.994
   19SAPS   H4R 2436   3.911   0.563   3.006
   19SAPS   H4S 2437   4.090   0.557   3.012
   19SAPS   C25 2438   3.999   0.376   3.084
   19SAPS   H5R 2439   4.100   0.336   3.099
   19SAPS   C26 2440   3.909   0.320   3.167
   19SAPS   H6R 2441   3.938   0.229   3.222
   19SAPS   C27 2442   3.767   0.367   3.178
   19SAPS   H7R 2443   3.705   0.294   3.234
   19SAPS   H7S 2444   3.713   0.374   3.081
   19SAPS   C28 2445   3.753   0.492   3.257
   19SAPS   H8R 2446   3.730   0.586   3.205
   19SAPS   C29 2447   3.764   0.496   3.393
   19SAPS   H9R 2448   3.749   0.596   3.437
   19SAPS  C210 2449   3.821   0.390   3.484
   19SAPS  H10R 2450   3.897   0.428   3.556
   19SAPS  H10S 2451   3.884   0.312   3.437
   19SAPS  C211 2452   3.711   0.326   3.565
   19SAPS  H11R 2453   3.671   0.229   3.533
   19SAPS  C212 2454   3.648   0.381   3.674
   19SAPS  H12R 2455   3.567   0.331   3.729
   19SAPS  C213 2456   3.692   0.512   3.732
   19SAPS  H13R 2457   3.633   0.600   3.698
   19SAPS  H13S 2458   3.800   0.521   3.709
   19SAPS  C214 2459   3.672   0.532   3.881
   19SAPS  H14R 2460   3.569   0.566   3.897
   19SAPS  C215 2461   3.758   0.521   3.987
   19SAPS  H15R 2462   3.720   0.558   4.083
   19SAPS  C216 2463   3.900   0.469   3.986
   19SAPS  H16R 2464   3.889   0.361   3.962
   19SAPS  H16S 2465   3.928   0.477   4.093
   19SAPS  C217 2466   4.002   0.546   3.901
   19SAPS  H17R 2467   3.984   0.653   3.925
   19SAPS  H17S 2468   3.974   0.534   3.795
   19SAPS  C218 2469   4.152   0.520   3.919
   19SAPS  H18R 2470   4.176   0.414   3.895
   19SAPS  H18S 2471   4.182   0.522   4.026
   19SAPS  C219 2472   4.253   0.620   3.864
   19SAPS  H19R 2473   4.224   0.717   3.907
   19SAPS  H19S 2474   4.248   0.630   3.753
   19SAPS  C220 2475   4.400   0.586   3.899
   19SAPS  H20R 2476   4.427   0.499   3.836
   19SAPS  H20S 2477   4.397   0.574   4.010
   19SAPS  H20T 2478   4.468   0.670   3.874
   19SAPS   C33 2479   3.867  -0.135   2.888
   19SAPS   H3X 2480   3.857  -0.241   2.853
   19SAPS   H3Y 2481   3.801  -0.063   2.835
   19SAPS   C34 2482   3.799  -0.112   3.024
   19SAPS   H4X 2483   3.690  -0.096   3.007
   19SAPS   H4Y 2484   3.848  -0.019   3.062
   19SAPS   C35 2485   3.805  -0.234   3.113
   19SAPS   H5X 2486   3.904  -0.261   3.155
   19SAPS   H5Y 2487   3.769  -0.323   3.057
   19SAPS   C36 2488   3.719  -0.211   3.243
   19SAPS   H6X 2489   3.722  -0.301   3.308
   19SAPS   H6Y 2490   3.619  -0.199   3.197
   19SAPS   C37 2491   3.758  -0.090   3.335
   19SAPS   H7X 2492   3.759   0.007   3.279
   19SAPS   H7Y 2493   3.861  -0.112   3.369
   19SAPS   C38 2494   3.664  -0.075   3.451
   19SAPS   H8X 2495   3.578  -0.144   3.444
   19SAPS   H8Y 2496   3.625   0.029   3.445
   19SAPS   C39 2497   3.736  -0.115   3.576
   19SAPS   H9X 2498   3.819  -0.044   3.594
   19SAPS   H9Y 2499   3.780  -0.215   3.558
   19SAPS  C310 2500   3.651  -0.135   3.699
   19SAPS  H10X 2501   3.599  -0.232   3.686
   19SAPS  H10Y 2502   3.583  -0.047   3.709
   19SAPS  C311 2503   3.736  -0.157   3.822
   19SAPS  H11X 2504   3.785  -0.063   3.854
   19SAPS  H11Y 2505   3.817  -0.222   3.783
   19SAPS  C312 2506   3.668  -0.230   3.943
   19SAPS  H12X 2507   3.640  -0.335   3.918
   19SAPS  H12Y 2508   3.584  -0.162   3.969
   19SAPS  C313 2509   3.769  -0.227   4.063
   19SAPS  H13X 2510   3.722  -0.268   4.155
   19SAPS  H13Y 2511   3.793  -0.124   4.095
   19SAPS  C314 2512   3.887  -0.316   4.034
   19SAPS  H14X 2513   3.949  -0.280   3.949
   19SAPS  H14Y 2514   3.873  -0.422   4.006
   19SAPS  C315 2515   3.983  -0.316   4.151
   19SAPS  H15X 2516   3.992  -0.212   4.189
   19SAPS  H15Y 2517   4.085  -0.343   4.115
   19SAPS  C316 2518   3.932  -0.420   4.254
   19SAPS  H16X 2519   3.914  -0.517   4.203
   19SAPS  H16Y 2520   3.831  -0.380   4.277
   19SAPS  C317 2521   4.020  -0.435   4.373
   19SAPS  H17X 2522   4.006  -0.348   4.441
   19SAPS  H17Y 2523   4.125  -0.431   4.336
   19SAPS  C318 2524   3.995  -0.575   4.443
   19SAPS  H18X 2525   3.887  -0.597   4.448
   19SAPS  H18Y 2526   4.046  -0.561   4.541
   19SAPS  H18Z 2527   4.050  -0.651   4.384
   20SAPS     N 2528   4.906   0.368   1.699
   20SAPS   HN1 2529   4.854   0.299   1.757
   20SAPS   HN2 2530   4.871   0.466   1.701
   20SAPS   HN3 2531   4.898   0.329   1.602
   20SAPS   C12 2532   5.048   0.369   1.750
   20SAPS  H12A 2533   5.085   0.268   1.741
   20SAPS   C13 2534   5.138   0.469   1.677
   20SAPS  O13A 2535   5.095   0.529   1.575
   20SAPS  O13B 2536   5.256   0.480   1.720
   20SAPS   C11 2537   5.050   0.386   1.907
   20SAPS  H11A 2538   5.155   0.364   1.939
   20SAPS  H11B 2539   4.989   0.303   1.949
   20SAPS     P 2540   4.966   0.528   2.113
   20SAPS   O13 2541   5.055   0.615   2.192
   20SAPS   O14 2542   4.824   0.574   2.112
   20SAPS   O12 2543   5.020   0.509   1.967
   20SAPS   O11 2544   4.972   0.388   2.172
   20SAPS    C1 2545   5.090   0.322   2.214
   20SAPS    HA 2546   5.063   0.218   2.188
   20SAPS    HB 2547   5.174   0.354   2.148
   20SAPS    C2 2548   5.128   0.324   2.367
   20SAPS    HS 2549   5.155   0.222   2.400
   20SAPS   O21 2550   5.023   0.363   2.452
   20SAPS   C21 2551   4.911   0.309   2.430
   20SAPS   O22 2552   4.896   0.199   2.385
   20SAPS   C22 2553   4.802   0.417   2.457
   20SAPS   H2R 2554   4.820   0.503   2.390
   20SAPS   H2S 2555   4.706   0.374   2.423
   20SAPS    C3 2556   5.255   0.410   2.389
   20SAPS    HX 2557   5.225   0.513   2.357
   20SAPS    HY 2558   5.324   0.365   2.315
   20SAPS   O31 2559   5.315   0.398   2.516
   20SAPS   C31 2560   5.423   0.457   2.547
   20SAPS   O32 2561   5.499   0.517   2.475
   20SAPS   C32 2562   5.437   0.423   2.701
   20SAPS   H2X 2563   5.423   0.313   2.710
   20SAPS   H2Y 2564   5.363   0.487   2.755
   20SAPS   C23 2565   4.783   0.450   2.600
   20SAPS   H3R 2566   4.865   0.515   2.637
   20SAPS   H3S 2567   4.805   0.364   2.666
   20SAPS   C24 2568   4.642   0.501   2.639
   20SAPS   H4R 2569   4.639   0.506   2.749
   20SAPS   H4S 2570   4.561   0.431   2.609
   20SAPS   C25 2571   4.632   0.638   2.574
   20SAPS   H5R 2572   4.659   0.647   2.468
   20SAPS   C26 2573   4.620   0.749   2.650
   20SAPS   H6R 2574   4.599   0.847   2.605
   20SAPS   C27 2575   4.595   0.757   2.804
   20SAPS   H7R 2576   4.589   0.866   2.823
   20SAPS   H7S 2577   4.693   0.729   2.850
   20SAPS   C28 2578   4.473   0.693   2.862
   20SAPS   H8R 2579   4.386   0.687   2.794
   20SAPS   C29 2580   4.470   0.621   2.978
   20SAPS   H9R 2581   4.376   0.576   3.012
   20SAPS  C210 2582   4.581   0.593   3.073
   20SAPS  H10R 2583   4.671   0.650   3.040
   20SAPS  H10S 2584   4.615   0.488   3.085
   20SAPS  C211 2585   4.559   0.659   3.207
   20SAPS  H11R 2586   4.528   0.597   3.293
   20SAPS  C212 2587   4.564   0.792   3.237
   20SAPS  H12R 2588   4.536   0.825   3.338
   20SAPS  C213 2589   4.599   0.903   3.137
   20SAPS  H13R 2590   4.513   0.939   3.077
   20SAPS  H13S 2591   4.675   0.874   3.062
   20SAPS  C214 2592   4.660   1.020   3.201
   20SAPS  H14R 2593   4.762   1.043   3.166
   20SAPS  C215 2594   4.609   1.106   3.293
   20SAPS  H15R 2595   4.666   1.190   3.333
   20SAPS  C216 2596   4.474   1.099   3.358
   20SAPS  H16R 2597   4.411   1.014   3.323
   20SAPS  H16S 2598   4.415   1.193   3.349
   20SAPS  C217 2599   4.496   1.057   3.503
   20SAPS  H17R 2600   4.532   1.152   3.548
   20SAPS  H17S 2601   4.573   0.978   3.510
   20SAPS  C218 2602   4.374   1.020   3.579
   20SAPS  H18R 2603   4.317   0.933   3.542
   20SAPS  H18S 2604   4.299   1.100   3.561
   20SAPS  C219 2605   4.414   0.998   3.723
   20SAPS  H19R 2606   4.502   1.063   3.744
   20SAPS  H19S 2607   4.458   0.896   3.730
   20SAPS  C220 2608   4.303   1.024   3.831
   20SAPS  H20R 2609   4.341   1.025   3.936
   20SAPS  H20S 2610   4.210   0.972   3.802
   20SAPS  H20T 2611   4.269   1.130   3.822
   20SAPS   C33 2612   5.576   0.443   2.758
   20SAPS   H3X 2613   5.597   0.552   2.755
   20SAPS   H3Y 2614   5.649   0.379   2.703
   20SAPS   C34 2615   5.578   0.401   2.907
   20SAPS   H4X 2616   5.559   0.292   2.917
   20SAPS   H4Y 2617   5.497   0.455   2.961
   20SAPS   C35 2618   5.712   0.431   2.972
   20SAPS   H5X 2619   5.744   0.535   2.946
   20SAPS   H5Y 2620   5.793   0.370   2.926
   20SAPS   C36 2621   5.700   0.402   3.115
   20SAPS   H6X 2622   5.678   0.293   3.113
   20SAPS   H6Y 2623   5.615   0.458   3.159
   20SAPS   C37 2624   5.833   0.435   3.194
   20SAPS   H7X 2625   5.870   0.536   3.169
   20SAPS   H7Y 2626   5.907   0.364   3.151
   20SAPS   C38 2627   5.830   0.403   3.347
   20SAPS   H8X 2628   5.791   0.300   3.358
   20SAPS   H8Y 2629   5.752   0.474   3.383
   20SAPS   C39 2630   5.965   0.409   3.412
   20SAPS   H9X 2631   6.012   0.503   3.375
   20SAPS   H9Y 2632   6.027   0.324   3.377
   20SAPS  C310 2633   5.963   0.408   3.568
   20SAPS  H10X 2634   5.889   0.330   3.599
   20SAPS  H10Y 2635   5.925   0.510   3.589
   20SAPS  C311 2636   6.111   0.388   3.622
   20SAPS  H11X 2637   6.184   0.436   3.554
   20SAPS  H11Y 2638   6.119   0.278   3.610
   20SAPS  C312 2639   6.133   0.444   3.765
   20SAPS  H12X 2640   6.047   0.412   3.827
   20SAPS  H12Y 2641   6.125   0.555   3.755
   20SAPS  C313 2642   6.259   0.408   3.835
   20SAPS  H13X 2643   6.341   0.459   3.782
   20SAPS  H13Y 2644   6.265   0.300   3.809
   20SAPS  C314 2645   6.262   0.434   3.984
   20SAPS  H14X 2646   6.364   0.411   4.021
   20SAPS  H14Y 2647   6.190   0.360   4.026
   20SAPS  C315 2648   6.232   0.578   4.025
   20SAPS  H15X 2649   6.127   0.610   4.007
   20SAPS  H15Y 2650   6.297   0.634   3.956
   20SAPS  C316 2651   6.270   0.581   4.172
   20SAPS  H16X 2652   6.380   0.577   4.186
   20SAPS  H16Y 2653   6.227   0.491   4.221
   20SAPS  C317 2654   6.206   0.690   4.257
   20SAPS  H17X 2655   6.096   0.675   4.256
   20SAPS  H17Y 2656   6.228   0.792   4.218
   20SAPS  C318 2657   6.255   0.701   4.403
   20SAPS  H18X 2658   6.358   0.742   4.396
   20SAPS  H18Y 2659   6.239   0.600   4.446
   20SAPS  H18Z 2660   6.202   0.780   4.461
   21CHL1    C3 2661   1.451   3.684   5.965
   21CHL1    H3 2662   1.533   3.611   5.984
   21CHL1    O3 2663   1.363   3.682   6.078
   21CHL1   H3' 2664   1.426   3.691   6.150
   21CHL1    C4 2665   1.499   3.828   5.947
   21CHL1   H4A 2666   1.409   3.892   5.953
   21CHL1   H4B 2667   1.559   3.836   6.040
   21CHL1    C5 2668   1.568   3.862   5.818
   21CHL1    C6 2669   1.678   3.949   5.815
   21CHL1    H6 2670   1.706   3.984   5.915
   21CHL1    C7 2671   1.757   3.976   5.691
   21CHL1   H7A 2672   1.796   4.080   5.696
   21CHL1   H7B 2673   1.851   3.918   5.685
   21CHL1    C8 2674   1.679   3.931   5.562
   21CHL1    H8 2675   1.596   4.003   5.546
   21CHL1   C14 2676   1.774   3.940   5.443
   21CHL1   H14 2677   1.849   3.858   5.442
   21CHL1   C15 2678   1.861   4.062   5.424
   21CHL1  H15A 2679   1.808   4.159   5.435
   21CHL1  H15B 2680   1.951   4.066   5.490
   21CHL1   C16 2681   1.903   4.051   5.276
   21CHL1  H16A 2682   1.878   4.148   5.226
   21CHL1  H16B 2683   2.014   4.046   5.274
   21CHL1   C17 2684   1.823   3.934   5.211
   21CHL1   H17 2685   1.888   3.844   5.217
   21CHL1   C13 2686   1.699   3.915   5.314
   21CHL1   C18 2687   1.597   4.028   5.284
   21CHL1  H18A 2688   1.647   4.127   5.296
   21CHL1  H18B 2689   1.563   4.018   5.179
   21CHL1  H18C 2690   1.507   4.022   5.350
   21CHL1   C12 2691   1.642   3.771   5.315
   21CHL1  H12A 2692   1.584   3.779   5.221
   21CHL1  H12B 2693   1.721   3.693   5.314
   21CHL1   C11 2694   1.544   3.756   5.437
   21CHL1  H11A 2695   1.453   3.810   5.402
   21CHL1  H11B 2696   1.513   3.649   5.444
   21CHL1    C9 2697   1.606   3.796   5.577
   21CHL1    H9 2698   1.681   3.719   5.603
   21CHL1   C10 2699   1.499   3.794   5.693
   21CHL1   C19 2700   1.378   3.883   5.651
   21CHL1  H19A 2701   1.412   3.986   5.624
   21CHL1  H19B 2702   1.322   3.835   5.568
   21CHL1  H19C 2703   1.303   3.875   5.732
   21CHL1    C1 2704   1.451   3.650   5.722
   21CHL1   H1A 2705   1.395   3.613   5.633
   21CHL1   H1B 2706   1.537   3.580   5.729
   21CHL1    C2 2707   1.366   3.633   5.848
   21CHL1   H2A 2708   1.348   3.526   5.868
   21CHL1   H2B 2709   1.269   3.686   5.835
   21CHL1   C20 2710   1.794   3.964   5.059
   21CHL1   H20 2711   1.722   4.048   5.049
   21CHL1   C21 2712   1.737   3.836   5.002
   21CHL1  H21A 2713   1.807   3.753   5.024
   21CHL1  H21B 2714   1.734   3.853   4.892
   21CHL1  H21C 2715   1.633   3.823   5.039
   21CHL1   C22 2716   1.926   4.003   4.989
   21CHL1  H22A 2717   1.959   4.094   5.042
   21CHL1  H22B 2718   2.002   3.923   5.000
   21CHL1   C23 2719   1.915   4.049   4.847
   21CHL1  H23A 2720   2.006   4.097   4.807
   21CHL1  H23B 2721   1.906   3.951   4.794
   21CHL1   C24 2722   1.788   4.133   4.825
   21CHL1  H24A 2723   1.702   4.066   4.804
   21CHL1  H24B 2724   1.773   4.205   4.908
   21CHL1   C25 2725   1.789   4.214   4.690
   21CHL1   H25 2726   1.687   4.255   4.672
   21CHL1   C26 2727   1.881   4.340   4.704
   21CHL1  H26A 2728   1.853   4.422   4.635
   21CHL1  H26B 2729   1.881   4.384   4.806
   21CHL1  H26C 2730   1.985   4.314   4.675
   21CHL1   C27 2731   1.828   4.132   4.567
   21CHL1  H27A 2732   1.938   4.126   4.553
   21CHL1  H27B 2733   1.790   4.028   4.562
   21CHL1  H27C 2734   1.790   4.187   4.479
   22CHL1    C3 2735   3.328   3.387   5.670
   22CHL1    H3 2736   3.332   3.281   5.636
   22CHL1    O3 2737   3.301   3.383   5.811
   22CHL1   H3' 2738   3.316   3.472   5.843
   22CHL1    C4 2739   3.461   3.453   5.652
   22CHL1   H4A 2740   3.484   3.544   5.711
   22CHL1   H4B 2741   3.536   3.382   5.694
   22CHL1    C5 2742   3.492   3.481   5.505
   22CHL1    C6 2743   3.606   3.443   5.445
   22CHL1    H6 2744   3.667   3.370   5.499
   22CHL1    C7 2745   3.652   3.490   5.310
   22CHL1   H7A 2746   3.757   3.524   5.312
   22CHL1   H7B 2747   3.651   3.403   5.241
   22CHL1    C8 2748   3.555   3.587   5.229
   22CHL1    H8 2749   3.583   3.690   5.261
   22CHL1   C14 2750   3.572   3.567   5.079
   22CHL1   H14 2751   3.538   3.463   5.062
   22CHL1   C15 2752   3.713   3.571   5.005
   22CHL1  H15A 2753   3.774   3.655   5.045
   22CHL1  H15B 2754   3.767   3.475   5.016
   22CHL1   C16 2755   3.669   3.589   4.861
   22CHL1  H16A 2756   3.726   3.674   4.817
   22CHL1  H16B 2757   3.698   3.495   4.810
   22CHL1   C17 2758   3.515   3.611   4.851
   22CHL1   H17 2759   3.469   3.510   4.842
   22CHL1   C13 2760   3.471   3.649   4.995
   22CHL1   C18 2761   3.508   3.803   5.010
   22CHL1  H18A 2762   3.506   3.841   5.114
   22CHL1  H18B 2763   3.603   3.844   4.969
   22CHL1  H18C 2764   3.431   3.867   4.960
   22CHL1   C12 2765   3.327   3.613   5.038
   22CHL1  H12A 2766   3.246   3.667   4.984
   22CHL1  H12B 2767   3.319   3.503   5.021
   22CHL1   C11 2768   3.308   3.631   5.191
   22CHL1  H11A 2769   3.326   3.741   5.202
   22CHL1  H11B 2770   3.202   3.603   5.210
   22CHL1    C9 2771   3.412   3.553   5.274
   22CHL1    H9 2772   3.407   3.449   5.237
   22CHL1   C10 2773   3.382   3.554   5.425
   22CHL1   C19 2774   3.384   3.696   5.483
   22CHL1  H19A 2775   3.488   3.736   5.484
   22CHL1  H19B 2776   3.327   3.765   5.416
   22CHL1  H19C 2777   3.363   3.708   5.591
   22CHL1    C1 2778   3.246   3.479   5.460
   22CHL1   H1A 2779   3.170   3.542   5.407
   22CHL1   H1B 2780   3.245   3.377   5.417
   22CHL1    C2 2781   3.213   3.462   5.603
   22CHL1   H2A 2782   3.117   3.407   5.611
   22CHL1   H2B 2783   3.191   3.555   5.661
   22CHL1   C20 2784   3.477   3.701   4.725
   22CHL1   H20 2785   3.523   3.801   4.734
   22CHL1   C21 2786   3.326   3.727   4.715
   22CHL1  H21A 2787   3.271   3.630   4.716
   22CHL1  H21B 2788   3.300   3.791   4.628
   22CHL1  H21C 2789   3.291   3.769   4.811
   22CHL1   C22 2790   3.533   3.640   4.594
   22CHL1  H22A 2791   3.622   3.575   4.612
   22CHL1  H22B 2792   3.449   3.602   4.533
   22CHL1   C23 2793   3.594   3.750   4.495
   22CHL1  H23A 2794   3.523   3.834   4.482
   22CHL1  H23B 2795   3.693   3.782   4.534
   22CHL1   C24 2796   3.618   3.687   4.361
   22CHL1  H24A 2797   3.700   3.614   4.376
   22CHL1  H24B 2798   3.533   3.619   4.336
   22CHL1   C25 2799   3.640   3.771   4.233
   22CHL1   H25 2800   3.628   3.705   4.144
   22CHL1   C26 2801   3.535   3.878   4.222
   22CHL1  H26A 2802   3.526   3.918   4.119
   22CHL1  H26B 2803   3.436   3.851   4.266
   22CHL1  H26C 2804   3.563   3.967   4.283
   22CHL1   C27 2805   3.779   3.832   4.236
   22CHL1  H27A 2806   3.848   3.746   4.223
   22CHL1  H27B 2807   3.782   3.911   4.158
   22CHL1  H27C 2808   3.801   3.876   4.336
   23CHL1    C3 2809   0.814   3.797   5.735
   23CHL1    H3 2810   0.749   3.879   5.697
   23CHL1    O3 2811   0.766   3.761   5.865
   23CHL1   H3' 2812   0.682   3.727   5.833
   23CHL1    C4 2813   0.791   3.680   5.640
   23CHL1   H4A 2814   0.810   3.586   5.695
   23CHL1   H4B 2815   0.680   3.677   5.637
   23CHL1    C5 2816   0.852   3.691   5.497
   23CHL1    C6 2817   0.772   3.655   5.391
   23CHL1    H6 2818   0.666   3.632   5.410
   23CHL1    C7 2819   0.814   3.673   5.254
   23CHL1   H7A 2820   0.785   3.586   5.191
   23CHL1   H7B 2821   0.769   3.766   5.214
   23CHL1    C8 2822   0.972   3.702   5.225
   23CHL1    H8 2823   1.011   3.599   5.236
   23CHL1   C14 2824   1.010   3.749   5.091
   23CHL1   H14 2825   0.965   3.850   5.076
   23CHL1   C15 2826   0.955   3.661   4.977
   23CHL1  H15A 2827   0.987   3.560   5.012
   23CHL1  H15B 2828   0.845   3.658   4.968
   23CHL1   C16 2829   1.052   3.690   4.861
   23CHL1  H16A 2830   1.104   3.594   4.840
   23CHL1  H16B 2831   0.990   3.714   4.771
   23CHL1   C17 2832   1.157   3.790   4.920
   23CHL1   H17 2833   1.113   3.890   4.904
   23CHL1   C13 2834   1.159   3.775   5.076
   23CHL1   C18 2835   1.245   3.648   5.105
   23CHL1  H18A 2836   1.214   3.565   5.037
   23CHL1  H18B 2837   1.352   3.671   5.086
   23CHL1  H18C 2838   1.232   3.619   5.211
   23CHL1   C12 2839   1.195   3.887   5.166
   23CHL1  H12A 2840   1.302   3.913   5.154
   23CHL1  H12B 2841   1.133   3.975   5.137
   23CHL1   C11 2842   1.162   3.849   5.310
   23CHL1  H11A 2843   1.242   3.779   5.342
   23CHL1  H11B 2844   1.190   3.940   5.367
   23CHL1    C9 2845   1.018   3.803   5.335
   23CHL1    H9 2846   0.953   3.891   5.318
   23CHL1   C10 2847   0.987   3.748   5.479
   23CHL1   C19 2848   1.089   3.631   5.517
   23CHL1  H19A 2849   1.061   3.543   5.456
   23CHL1  H19B 2850   1.191   3.670   5.494
   23CHL1  H19C 2851   1.082   3.596   5.622
   23CHL1    C1 2852   0.996   3.871   5.578
   23CHL1   H1A 2853   1.098   3.916   5.583
   23CHL1   H1B 2854   0.934   3.955   5.541
   23CHL1    C2 2855   0.959   3.846   5.725
   23CHL1   H2A 2856   0.967   3.941   5.781
   23CHL1   H2B 2857   1.016   3.768   5.781
   23CHL1   C20 2858   1.297   3.780   4.844
   23CHL1   H20 2859   1.347   3.685   4.871
   23CHL1   C21 2860   1.389   3.896   4.884
   23CHL1  H21A 2861   1.484   3.898   4.826
   23CHL1  H21B 2862   1.419   3.882   4.991
   23CHL1  H21C 2863   1.331   3.990   4.876
   23CHL1   C22 2864   1.277   3.786   4.691
   23CHL1  H22A 2865   1.213   3.704   4.653
   23CHL1  H22B 2866   1.230   3.884   4.666
   23CHL1   C23 2867   1.403   3.783   4.606
   23CHL1  H23A 2868   1.467   3.873   4.623
   23CHL1  H23B 2869   1.451   3.690   4.644
   23CHL1   C24 2870   1.374   3.768   4.463
   23CHL1  H24A 2871   1.312   3.680   4.437
   23CHL1  H24B 2872   1.316   3.862   4.451
   23CHL1   C25 2873   1.494   3.790   4.366
   23CHL1   H25 2874   1.539   3.891   4.377
   23CHL1   C26 2875   1.596   3.687   4.406
   23CHL1  H26A 2876   1.684   3.690   4.338
   23CHL1  H26B 2877   1.638   3.705   4.508
   23CHL1  H26C 2878   1.561   3.582   4.395
   23CHL1   C27 2879   1.448   3.775   4.225
   23CHL1  H27A 2880   1.345   3.809   4.200
   23CHL1  H27B 2881   1.508   3.835   4.153
   23CHL1  H27C 2882   1.468   3.672   4.191
   24CHL1    C3 2883   2.611   4.365   5.950
   24CHL1    H3 2884   2.684   4.449   5.951
   24CHL1    O3 2885   2.585   4.350   6.089
   24CHL1   H3' 2886   2.542   4.264   6.087
   24CHL1    C4 2887   2.482   4.401   5.865
   24CHL1   H4A 2888   2.400   4.326   5.876
   24CHL1   H4B 2889   2.449   4.501   5.900
   24CHL1    C5 2890   2.527   4.410   5.723
   24CHL1    C6 2891   2.519   4.532   5.664
   24CHL1    H6 2892   2.502   4.626   5.719
   24CHL1    C7 2893   2.528   4.541   5.516
   24CHL1   H7A 2894   2.440   4.596   5.477
   24CHL1   H7B 2895   2.625   4.592   5.498
   24CHL1    C8 2896   2.540   4.404   5.442
   24CHL1    H8 2897   2.439   4.358   5.438
   24CHL1   C14 2898   2.588   4.420   5.309
   24CHL1   H14 2899   2.694   4.447   5.324
   24CHL1   C15 2900   2.526   4.533   5.226
   24CHL1  H15A 2901   2.417   4.544   5.245
   24CHL1  H15B 2902   2.580   4.622   5.265
   24CHL1   C16 2903   2.551   4.502   5.077
   24CHL1  H16A 2904   2.451   4.496   5.029
   24CHL1  H16B 2905   2.606   4.580   5.020
   24CHL1   C17 2906   2.631   4.366   5.076
   24CHL1   H17 2907   2.740   4.387   5.083
   24CHL1   C13 2908   2.591   4.303   5.211
   24CHL1   C18 2909   2.442   4.238   5.204
   24CHL1  H18A 2910   2.458   4.139   5.156
   24CHL1  H18B 2911   2.385   4.221   5.298
   24CHL1  H18C 2912   2.374   4.282   5.128
   24CHL1   C12 2913   2.683   4.195   5.269
   24CHL1  H12A 2914   2.673   4.101   5.211
   24CHL1  H12B 2915   2.789   4.229   5.261
   24CHL1   C11 2916   2.650   4.173   5.422
   24CHL1  H11A 2917   2.559   4.110   5.418
   24CHL1  H11B 2918   2.737   4.129   5.476
   24CHL1    C9 2919   2.628   4.302   5.512
   24CHL1    H9 2920   2.724   4.356   5.525
   24CHL1   C10 2921   2.587   4.284   5.654
   24CHL1   C19 2922   2.479   4.182   5.666
   24CHL1  H19A 2923   2.422   4.180   5.761
   24CHL1  H19B 2924   2.408   4.175   5.581
   24CHL1  H19C 2925   2.525   4.081   5.666
   24CHL1    C1 2926   2.697   4.240   5.743
   24CHL1   H1A 2927   2.718   4.134   5.718
   24CHL1   H1B 2928   2.795   4.294   5.743
   24CHL1    C2 2929   2.673   4.240   5.897
   24CHL1   H2A 2930   2.768   4.224   5.952
   24CHL1   H2B 2931   2.614   4.149   5.922
   24CHL1   C20 2932   2.600   4.282   4.948
   24CHL1   H20 2933   2.489   4.270   4.947
   24CHL1   C21 2934   2.667   4.141   4.955
   24CHL1  H21A 2935   2.605   4.070   5.013
   24CHL1  H21B 2936   2.773   4.143   4.988
   24CHL1  H21C 2937   2.672   4.096   4.853
   24CHL1   C22 2938   2.646   4.359   4.825
   24CHL1  H22A 2939   2.605   4.310   4.734
   24CHL1  H22B 2940   2.602   4.461   4.824
   24CHL1   C23 2941   2.798   4.390   4.817
   24CHL1  H23A 2942   2.833   4.445   4.907
   24CHL1  H23B 2943   2.854   4.294   4.826
   24CHL1   C24 2944   2.823   4.465   4.693
   24CHL1  H24A 2945   2.776   4.566   4.699
   24CHL1  H24B 2946   2.934   4.470   4.691
   24CHL1   C25 2947   2.775   4.404   4.560
   24CHL1   H25 2948   2.664   4.392   4.561
   24CHL1   C26 2949   2.794   4.498   4.446
   24CHL1  H26A 2950   2.770   4.469   4.342
   24CHL1  H26B 2951   2.747   4.597   4.463
   24CHL1  H26C 2952   2.903   4.514   4.436
   24CHL1   C27 2953   2.850   4.270   4.533
   24CHL1  H27A 2954   2.813   4.187   4.596
   24CHL1  H27B 2955   2.827   4.246   4.427
   24CHL1  H27C 2956   2.959   4.271   4.554
   25CHL1    C3 2957   5.248   0.261   5.806
   25CHL1    H3 2958   5.307   0.168   5.791
   25CHL1    O3 2959   5.239   0.285   5.943
   25CHL1   H3' 2960   5.217   0.378   5.950
   25CHL1    C4 2961   5.311   0.385   5.741
   25CHL1   H4A 2962   5.248   0.476   5.752
   25CHL1   H4B 2963   5.411   0.398   5.788
   25CHL1    C5 2964   5.324   0.352   5.597
   25CHL1    C6 2965   5.449   0.339   5.542
   25CHL1    H6 2966   5.541   0.358   5.599
   25CHL1    C7 2967   5.468   0.300   5.402
   25CHL1   H7A 2968   5.556   0.358   5.367
   25CHL1   H7B 2969   5.505   0.195   5.392
   25CHL1    C8 2970   5.344   0.333   5.319
   25CHL1    H8 2971   5.333   0.443   5.308
   25CHL1   C14 2972   5.361   0.271   5.181
   25CHL1   H14 2973   5.352   0.164   5.210
   25CHL1   C15 2974   5.494   0.288   5.108
   25CHL1  H15A 2975   5.522   0.393   5.131
   25CHL1  H15B 2976   5.562   0.217   5.161
   25CHL1   C16 2977   5.462   0.261   4.962
   25CHL1  H16A 2978   5.492   0.346   4.896
   25CHL1  H16B 2979   5.529   0.178   4.931
   25CHL1   C17 2980   5.306   0.229   4.959
   25CHL1   H17 2981   5.301   0.119   4.974
   25CHL1   C13 2982   5.245   0.298   5.085
   25CHL1   C18 2983   5.234   0.455   5.048
   25CHL1  H18A 2984   5.221   0.519   5.137
   25CHL1  H18B 2985   5.323   0.508   5.009
   25CHL1  H18C 2986   5.144   0.470   4.985
   25CHL1   C12 2987   5.119   0.236   5.152
   25CHL1  H12A 2988   5.030   0.267   5.092
   25CHL1  H12B 2989   5.123   0.126   5.168
   25CHL1   C11 2990   5.097   0.301   5.292
   25CHL1  H11A 2991   5.084   0.409   5.273
   25CHL1  H11B 2992   5.001   0.268   5.336
   25CHL1    C9 2993   5.216   0.280   5.383
   25CHL1    H9 2994   5.239   0.172   5.396
   25CHL1   C10 2995   5.193   0.328   5.522
   25CHL1   C19 2996   5.120   0.465   5.519
   25CHL1  H19A 2997   5.101   0.499   5.623
   25CHL1  H19B 2998   5.202   0.522   5.471
   25CHL1  H19C 2999   5.029   0.478   5.457
   25CHL1    C1 3000   5.108   0.216   5.601
   25CHL1   H1A 3001   5.003   0.219   5.564
   25CHL1   H1B 3002   5.146   0.115   5.574
   25CHL1    C2 3003   5.108   0.234   5.753
   25CHL1   H2A 3004   5.081   0.135   5.795
   25CHL1   H2B 3005   5.027   0.301   5.789
   25CHL1   C20 3006   5.239   0.254   4.820
   25CHL1   H20 3007   5.215   0.362   4.815
   25CHL1   C21 3008   5.109   0.173   4.807
   25CHL1  H21A 3009   5.046   0.220   4.728
   25CHL1  H21B 3010   5.050   0.160   4.900
   25CHL1  H21C 3011   5.125   0.066   4.785
   25CHL1   C22 3012   5.331   0.217   4.704
   25CHL1  H22A 3013   5.432   0.261   4.718
   25CHL1  H22B 3014   5.345   0.107   4.709
   25CHL1   C23 3015   5.284   0.255   4.561
   25CHL1  H23A 3016   5.190   0.202   4.536
   25CHL1  H23B 3017   5.249   0.360   4.556
   25CHL1   C24 3018   5.396   0.216   4.452
   25CHL1  H24A 3019   5.481   0.287   4.462
   25CHL1  H24B 3020   5.434   0.114   4.472
   25CHL1   C25 3021   5.348   0.231   4.306
   25CHL1   H25 3022   5.243   0.194   4.306
   25CHL1   C26 3023   5.335   0.378   4.256
   25CHL1  H26A 3024   5.432   0.430   4.241
   25CHL1  H26B 3025   5.292   0.378   4.154
   25CHL1  H26C 3026   5.268   0.432   4.327
   25CHL1   C27 3027   5.443   0.156   4.211
   25CHL1  H27A 3028   5.449   0.049   4.241
   25CHL1  H27B 3029   5.422   0.167   4.103
   25CHL1  H27C 3030   5.544   0.192   4.237
   26CHL1    C3 3031   2.613   3.721   5.799
   26CHL1    H3 3032   2.518   3.776   5.784
   26CHL1    O3 3033   2.623   3.683   5.936
   26CHL1   H3' 3034   2.717   3.664   5.939
   26CHL1    C4 3035   2.613   3.600   5.705
   26CHL1   H4A 3036   2.693   3.532   5.741
   26CHL1   H4B 3037   2.521   3.541   5.726
   26CHL1    C5 3038   2.644   3.621   5.563
   26CHL1    C6 3039   2.563   3.569   5.468
   26CHL1    H6 3040   2.482   3.503   5.504
   26CHL1    C7 3041   2.594   3.578   5.321
   26CHL1   H7A 3042   2.601   3.478   5.272
   26CHL1   H7B 3043   2.510   3.638   5.281
   26CHL1    C8 3044   2.727   3.637   5.277
   26CHL1    H8 3045   2.799   3.554   5.295
   26CHL1   C14 3046   2.720   3.690   5.135
   26CHL1   H14 3047   2.649   3.775   5.144
   26CHL1   C15 3048   2.659   3.597   5.028
   26CHL1  H15A 3049   2.703   3.495   5.030
   26CHL1  H15B 3050   2.550   3.580   5.044
   26CHL1   C16 3051   2.692   3.668   4.896
   26CHL1  H16A 3052   2.743   3.590   4.836
   26CHL1  H16B 3053   2.610   3.701   4.828
   26CHL1   C17 3054   2.804   3.778   4.935
   26CHL1   H17 3055   2.746   3.872   4.947
   26CHL1   C13 3056   2.848   3.746   5.082
   26CHL1   C18 3057   2.957   3.638   5.078
   26CHL1  H18A 3058   3.054   3.681   5.045
   26CHL1  H18B 3059   2.971   3.594   5.179
   26CHL1  H18C 3060   2.935   3.555   5.006
   26CHL1   C12 3061   2.886   3.866   5.174
   26CHL1  H12A 3062   2.982   3.905   5.135
   26CHL1  H12B 3063   2.808   3.944   5.156
   26CHL1   C11 3064   2.888   3.822   5.325
   26CHL1  H11A 3065   2.975   3.752   5.323
   26CHL1  H11B 3066   2.914   3.916   5.377
   26CHL1    C9 3067   2.766   3.752   5.371
   26CHL1    H9 3068   2.683   3.825   5.362
   26CHL1   C10 3069   2.770   3.709   5.520
   26CHL1   C19 3070   2.903   3.636   5.565
   26CHL1  H19A 3071   2.909   3.544   5.502
   26CHL1  H19B 3072   2.998   3.689   5.543
   26CHL1  H19C 3073   2.899   3.604   5.671
   26CHL1    C1 3074   2.752   3.836   5.612
   26CHL1   H1A 3075   2.847   3.894   5.612
   26CHL1   H1B 3076   2.663   3.888   5.568
   26CHL1    C2 3077   2.730   3.811   5.762
   26CHL1   H2A 3078   2.726   3.911   5.809
   26CHL1   H2B 3079   2.824   3.770   5.805
   26CHL1   C20 3080   2.912   3.795   4.830
   26CHL1   H20 3081   2.964   3.699   4.809
   26CHL1   C21 3082   3.024   3.901   4.870
   26CHL1  H21A 3083   3.090   3.923   4.784
   26CHL1  H21B 3084   3.092   3.856   4.946
   26CHL1  H21C 3085   2.982   3.998   4.904
   26CHL1   C22 3086   2.840   3.833   4.691
   26CHL1  H22A 3087   2.736   3.799   4.673
   26CHL1  H22B 3088   2.824   3.943   4.692
   26CHL1   C23 3089   2.930   3.794   4.570
   26CHL1  H23A 3090   2.900   3.859   4.485
   26CHL1  H23B 3091   3.027   3.832   4.606
   26CHL1   C24 3092   2.938   3.651   4.525
   26CHL1  H24A 3093   2.974   3.586   4.608
   26CHL1  H24B 3094   2.838   3.605   4.506
   26CHL1   C25 3095   3.017   3.636   4.393
   26CHL1   H25 3096   3.096   3.714   4.387
   26CHL1   C26 3097   3.076   3.495   4.373
   26CHL1  H26A 3098   3.005   3.409   4.377
   26CHL1  H26B 3099   3.128   3.501   4.275
   26CHL1  H26C 3100   3.154   3.478   4.450
   26CHL1   C27 3101   2.928   3.678   4.270
   26CHL1  H27A 3102   2.981   3.650   4.177
   26CHL1  H27B 3103   2.830   3.626   4.279
   26CHL1  H27C 3104   2.917   3.788   4.269
   27CHL1    C3 3105   1.188   3.189   5.692
   27CHL1    H3 3106   1.098   3.177   5.628
   27CHL1    O3 3107   1.147   3.168   5.823
   27CHL1   H3' 3108   1.078   3.230   5.845
   27CHL1    C4 3109   1.293   3.087   5.652
   27CHL1   H4A 3110   1.385   3.095   5.714
   27CHL1   H4B 3111   1.246   2.988   5.670
   27CHL1    C5 3112   1.347   3.103   5.509
   27CHL1    C6 3113   1.356   3.003   5.432
   27CHL1    H6 3114   1.327   2.906   5.477
   27CHL1    C7 3115   1.416   3.001   5.291
   27CHL1   H7A 3116   1.477   2.908   5.285
   27CHL1   H7B 3117   1.331   2.981   5.223
   27CHL1    C8 3118   1.490   3.131   5.255
   27CHL1    H8 3119   1.590   3.122   5.302
   27CHL1   C14 3120   1.508   3.144   5.101
   27CHL1   H14 3121   1.402   3.150   5.069
   27CHL1   C15 3122   1.577   3.033   5.020
   27CHL1  H15A 3123   1.658   2.993   5.085
   27CHL1  H15B 3124   1.505   2.952   4.993
   27CHL1   C16 3125   1.621   3.102   4.889
   27CHL1  H16A 3126   1.723   3.075   4.854
   27CHL1  H16B 3127   1.555   3.056   4.812
   27CHL1   C17 3128   1.583   3.249   4.907
   27CHL1   H17 3129   1.479   3.259   4.868
   27CHL1   C13 3130   1.577   3.279   5.053
   27CHL1   C18 3131   1.725   3.274   5.099
   27CHL1  H18A 3132   1.768   3.369   5.060
   27CHL1  H18B 3133   1.730   3.275   5.210
   27CHL1  H18C 3134   1.782   3.186   5.061
   27CHL1   C12 3135   1.501   3.391   5.118
   27CHL1  H12A 3136   1.560   3.482   5.097
   27CHL1  H12B 3137   1.399   3.391   5.074
   27CHL1   C11 3138   1.489   3.378   5.271
   27CHL1  H11A 3139   1.593   3.384   5.310
   27CHL1  H11B 3140   1.426   3.463   5.304
   27CHL1    C9 3141   1.414   3.250   5.318
   27CHL1    H9 3142   1.314   3.239   5.272
   27CHL1   C10 3143   1.394   3.241   5.467
   27CHL1   C19 3144   1.526   3.270   5.536
   27CHL1  H19A 3145   1.609   3.209   5.493
   27CHL1  H19B 3146   1.555   3.375   5.519
   27CHL1  H19C 3147   1.532   3.252   5.646
   27CHL1    C1 3148   1.294   3.346   5.523
   27CHL1   H1A 3149   1.347   3.442   5.510
   27CHL1   H1B 3150   1.209   3.363   5.453
   27CHL1    C2 3151   1.250   3.327   5.668
   27CHL1   H2A 3152   1.189   3.412   5.705
   27CHL1   H2B 3153   1.343   3.323   5.729
   27CHL1   C20 3154   1.666   3.340   4.807
   27CHL1   H20 3155   1.770   3.346   4.845
   27CHL1   C21 3156   1.611   3.493   4.810
   27CHL1  H21A 3157   1.503   3.498   4.785
   27CHL1  H21B 3158   1.662   3.546   4.728
   27CHL1  H21C 3159   1.632   3.538   4.910
   27CHL1   C22 3160   1.680   3.276   4.663
   27CHL1  H22A 3161   1.731   3.178   4.665
   27CHL1  H22B 3162   1.578   3.269   4.620
   27CHL1   C23 3163   1.756   3.359   4.558
   27CHL1  H23A 3164   1.712   3.460   4.537
   27CHL1  H23B 3165   1.856   3.368   4.606
   27CHL1   C24 3166   1.778   3.289   4.426
   27CHL1  H24A 3167   1.822   3.187   4.435
   27CHL1  H24B 3168   1.677   3.288   4.379
   27CHL1   C25 3169   1.864   3.366   4.325
   27CHL1   H25 3170   1.829   3.470   4.308
   27CHL1   C26 3171   2.015   3.372   4.363
   27CHL1  H26A 3172   2.045   3.266   4.353
   27CHL1  H26B 3173   2.079   3.436   4.298
   27CHL1  H26C 3174   2.017   3.408   4.468
   27CHL1   C27 3175   1.839   3.295   4.188
   27CHL1  H27A 3176   1.737   3.326   4.158
   27CHL1  H27B 3177   1.854   3.185   4.196
   27CHL1  H27C 3178   1.917   3.335   4.120
   28CHL1    C3 3179   5.676   2.897   5.794
   28CHL1    H3 3180   5.772   2.953   5.794
   28CHL1    O3 3181   5.642   2.887   5.930
   28CHL1   H3' 3182   5.564   2.832   5.918
   28CHL1    C4 3183   5.556   2.953   5.710
   28CHL1   H4A 3184   5.464   2.890   5.719
   28CHL1   H4B 3185   5.533   3.049   5.760
   28CHL1    C5 3186   5.593   2.975   5.569
   28CHL1    C6 3187   5.587   3.104   5.513
   28CHL1    H6 3188   5.555   3.190   5.574
   28CHL1    C7 3189   5.625   3.132   5.373
   28CHL1   H7A 3190   5.546   3.197   5.328
   28CHL1   H7B 3191   5.721   3.187   5.373
   28CHL1    C8 3192   5.654   3.010   5.291
   28CHL1    H8 3193   5.555   2.974   5.255
   28CHL1   C14 3194   5.739   3.053   5.167
   28CHL1   H14 3195   5.838   3.082   5.208
   28CHL1   C15 3196   5.689   3.172   5.085
   28CHL1  H15A 3197   5.582   3.164   5.058
   28CHL1  H15B 3198   5.703   3.267   5.140
   28CHL1   C16 3199   5.753   3.163   4.946
   28CHL1  H16A 3200   5.678   3.145   4.866
   28CHL1  H16B 3201   5.804   3.255   4.911
   28CHL1   C17 3202   5.844   3.038   4.954
   28CHL1   H17 3203   5.938   3.073   5.001
   28CHL1   C13 3204   5.769   2.948   5.066
   28CHL1   C18 3205   5.637   2.895   4.994
   28CHL1  H18A 3206   5.572   2.967   4.941
   28CHL1  H18B 3207   5.673   2.821   4.919
   28CHL1  H18C 3208   5.565   2.843   5.060
   28CHL1   C12 3209   5.844   2.837   5.143
   28CHL1  H12A 3210   5.882   2.751   5.085
   28CHL1  H12B 3211   5.937   2.879   5.186
   28CHL1   C11 3212   5.767   2.786   5.266
   28CHL1  H11A 3213   5.675   2.739   5.225
   28CHL1  H11B 3214   5.835   2.712   5.314
   28CHL1    C9 3215   5.721   2.894   5.365
   28CHL1    H9 3216   5.818   2.935   5.402
   28CHL1   C10 3217   5.643   2.848   5.492
   28CHL1   C19 3218   5.520   2.762   5.454
   28CHL1  H19A 3219   5.447   2.823   5.397
   28CHL1  H19B 3220   5.549   2.680   5.384
   28CHL1  H19C 3221   5.468   2.716   5.542
   28CHL1    C1 3222   5.741   2.764   5.583
   28CHL1   H1A 3223   5.752   2.665   5.534
   28CHL1   H1B 3224   5.841   2.812   5.574
   28CHL1    C2 3225   5.713   2.761   5.736
   28CHL1   H2A 3226   5.807   2.716   5.774
   28CHL1   H2B 3227   5.633   2.688   5.760
   28CHL1   C20 3228   5.869   2.980   4.813
   28CHL1   H20 3229   5.776   2.944   4.765
   28CHL1   C21 3230   5.968   2.856   4.823
   28CHL1  H21A 3231   6.061   2.890   4.874
   28CHL1  H21B 3232   6.000   2.821   4.723
   28CHL1  H21C 3233   5.917   2.771   4.872
   28CHL1   C22 3234   5.927   3.087   4.724
   28CHL1  H22A 3235   5.872   3.183   4.728
   28CHL1  H22B 3236   6.028   3.115   4.759
   28CHL1   C23 3237   5.963   3.058   4.572
   28CHL1  H23A 3238   6.052   2.990   4.573
   28CHL1  H23B 3239   5.874   3.009   4.527
   28CHL1   C24 3240   6.002   3.185   4.487
   28CHL1  H24A 3241   5.910   3.247   4.476
   28CHL1  H24B 3242   6.085   3.240   4.537
   28CHL1   C25 3243   6.063   3.168   4.350
   28CHL1   H25 3244   6.005   3.088   4.299
   28CHL1   C26 3245   6.049   3.291   4.258
   28CHL1  H26A 3246   6.125   3.363   4.296
   28CHL1  H26B 3247   6.086   3.268   4.156
   28CHL1  H26C 3248   5.945   3.332   4.258
   28CHL1   C27 3249   6.214   3.130   4.359
   28CHL1  H27A 3250   6.250   3.109   4.256
   28CHL1  H27B 3251   6.279   3.211   4.397
   28CHL1  H27C 3252   6.218   3.041   4.426
   29CHL1    C3 3253   0.940   4.480   5.939
   29CHL1    H3 3254   0.848   4.421   5.917
   29CHL1    O3 3255   0.953   4.475   6.077
   29CHL1   H3' 3256   1.036   4.515   6.103
   29CHL1    C4 3257   1.051   4.397   5.871
   29CHL1   H4A 3258   1.145   4.447   5.902
   29CHL1   H4B 3259   1.056   4.292   5.906
   29CHL1    C5 3260   1.049   4.398   5.720
   29CHL1    C6 3261   1.050   4.278   5.651
   29CHL1    H6 3262   1.065   4.181   5.702
   29CHL1    C7 3263   1.047   4.272   5.500
   29CHL1   H7A 3264   1.145   4.226   5.475
   29CHL1   H7B 3265   0.957   4.219   5.463
   29CHL1    C8 3266   1.050   4.413   5.442
   29CHL1    H8 3267   1.154   4.450   5.430
   29CHL1   C14 3268   1.003   4.407   5.295
   29CHL1   H14 3269   0.902   4.361   5.293
   29CHL1   C15 3270   1.078   4.308   5.207
   29CHL1  H15A 3271   1.187   4.327   5.221
   29CHL1  H15B 3272   1.043   4.203   5.211
   29CHL1   C16 3273   1.034   4.355   5.067
   29CHL1  H16A 3274   1.122   4.388   5.008
   29CHL1  H16B 3275   0.977   4.282   5.006
   29CHL1   C17 3276   0.948   4.485   5.085
   29CHL1   H17 3277   0.844   4.451   5.105
   29CHL1   C13 3278   0.989   4.542   5.223
   29CHL1   C18 3279   1.123   4.616   5.206
   29CHL1  H18A 3280   1.103   4.723   5.184
   29CHL1  H18B 3281   1.189   4.599   5.293
   29CHL1  H18C 3282   1.181   4.573   5.121
   29CHL1   C12 3283   0.892   4.627   5.300
   29CHL1  H12A 3284   0.897   4.728   5.255
   29CHL1  H12B 3285   0.787   4.594   5.285
   29CHL1   C11 3286   0.935   4.648   5.444
   29CHL1  H11A 3287   1.033   4.700   5.440
   29CHL1  H11B 3288   0.857   4.705   5.498
   29CHL1    C9 3289   0.966   4.511   5.522
   29CHL1    H9 3290   0.873   4.457   5.548
   29CHL1   C10 3291   1.022   4.538   5.661
   29CHL1   C19 3292   1.153   4.631   5.641
   29CHL1  H19A 3293   1.232   4.577   5.586
   29CHL1  H19B 3294   1.139   4.732   5.596
   29CHL1  H19C 3295   1.192   4.646   5.744
   29CHL1    C1 3296   0.916   4.617   5.746
   29CHL1   H1A 3297   0.895   4.716   5.700
   29CHL1   H1B 3298   0.826   4.553   5.735
   29CHL1    C2 3299   0.947   4.622   5.895
   29CHL1   H2A 3300   0.875   4.689   5.948
   29CHL1   H2B 3301   1.039   4.676   5.924
   29CHL1   C20 3302   0.943   4.577   4.962
   29CHL1   H20 3303   1.048   4.602   4.934
   29CHL1   C21 3304   0.859   4.707   4.991
   29CHL1  H21A 3305   0.872   4.775   4.904
   29CHL1  H21B 3306   0.919   4.762   5.066
   29CHL1  H21C 3307   0.757   4.679   5.024
   29CHL1   C22 3308   0.888   4.497   4.840
   29CHL1  H22A 3309   0.955   4.409   4.831
   29CHL1  H22B 3310   0.786   4.457   4.861
   29CHL1   C23 3311   0.885   4.570   4.710
   29CHL1  H23A 3312   0.817   4.656   4.723
   29CHL1  H23B 3313   0.983   4.610   4.674
   29CHL1   C24 3314   0.824   4.498   4.591
   29CHL1  H24A 3315   0.884   4.407   4.574
   29CHL1  H24B 3316   0.716   4.475   4.603
   29CHL1   C25 3317   0.836   4.560   4.450
   29CHL1   H25 3318   0.792   4.662   4.460
   29CHL1   C26 3319   0.980   4.570   4.396
   29CHL1  H26A 3320   0.973   4.615   4.295
   29CHL1  H26B 3321   1.042   4.635   4.460
   29CHL1  H26C 3322   1.034   4.473   4.390
   29CHL1   C27 3323   0.762   4.467   4.355
   29CHL1  H27A 3324   0.668   4.452   4.413
   29CHL1  H27B 3325   0.754   4.513   4.254
   29CHL1  H27C 3326   0.813   4.369   4.349
   30CHL1    C3 3327   2.548   5.035   6.070
   30CHL1    H3 3328   2.461   5.103   6.057
   30CHL1    O3 3329   2.545   5.004   6.207
   30CHL1   H3' 3330   2.638   4.985   6.225
   30CHL1    C4 3331   2.526   4.911   5.980
   30CHL1   H4A 3332   2.603   4.831   5.993
   30CHL1   H4B 3333   2.429   4.867   6.010
   30CHL1    C5 3334   2.516   4.956   5.835
   30CHL1    C6 3335   2.413   4.908   5.755
   30CHL1    H6 3336   2.336   4.848   5.803
   30CHL1    C7 3337   2.404   4.943   5.612
   30CHL1   H7A 3338   2.379   4.849   5.557
   30CHL1   H7B 3339   2.321   5.016   5.603
   30CHL1    C8 3340   2.530   4.986   5.548
   30CHL1    H8 3341   2.601   4.901   5.539
   30CHL1   C14 3342   2.507   5.045   5.408
   30CHL1   H14 3343   2.446   5.134   5.433
   30CHL1   C15 3344   2.418   4.971   5.306
   30CHL1  H15A 3345   2.445   4.863   5.305
   30CHL1  H15B 3346   2.310   4.984   5.330
   30CHL1   C16 3347   2.473   5.027   5.183
   30CHL1  H16A 3348   2.531   4.956   5.119
   30CHL1  H16B 3349   2.399   5.064   5.110
   30CHL1   C17 3350   2.566   5.140   5.210
   30CHL1   H17 3351   2.506   5.233   5.216
   30CHL1   C13 3352   2.630   5.105   5.346
   30CHL1   C18 3353   2.735   4.993   5.337
   30CHL1  H18A 3354   2.839   5.023   5.312
   30CHL1  H18B 3355   2.764   4.943   5.432
   30CHL1  H18C 3356   2.706   4.907   5.273
   30CHL1   C12 3357   2.678   5.219   5.438
   30CHL1  H12A 3358   2.768   5.267   5.394
   30CHL1  H12B 3359   2.589   5.285   5.450
   30CHL1   C11 3360   2.714   5.176   5.576
   30CHL1  H11A 3361   2.804   5.110   5.574
   30CHL1  H11B 3362   2.745   5.259   5.642
   30CHL1    C9 3363   2.602   5.094   5.639
   30CHL1    H9 3364   2.523   5.171   5.659
   30CHL1   C10 3365   2.633   5.043   5.781
   30CHL1   C19 3366   2.766   4.953   5.776
   30CHL1  H19A 3367   2.750   4.876   5.697
   30CHL1  H19B 3368   2.855   5.012   5.745
   30CHL1  H19C 3369   2.783   4.910   5.877
   30CHL1    C1 3370   2.658   5.151   5.881
   30CHL1   H1A 3371   2.743   5.216   5.851
   30CHL1   H1B 3372   2.569   5.217   5.872
   30CHL1    C2 3373   2.680   5.106   6.028
   30CHL1   H2A 3374   2.700   5.200   6.083
   30CHL1   H2B 3375   2.771   5.043   6.040
   30CHL1   C20 3376   2.660   5.171   5.093
   30CHL1   H20 3377   2.723   5.081   5.077
   30CHL1   C21 3378   2.763   5.283   5.141
   30CHL1  H21A 3379   2.834   5.230   5.207
   30CHL1  H21B 3380   2.722   5.373   5.191
   30CHL1  H21C 3381   2.827   5.327   5.061
   30CHL1   C22 3382   2.595   5.226   4.961
   30CHL1  H22A 3383   2.497   5.177   4.943
   30CHL1  H22B 3384   2.571   5.334   4.973
   30CHL1   C23 3385   2.679   5.194   4.838
   30CHL1  H23A 3386   2.783   5.230   4.850
   30CHL1  H23B 3387   2.693   5.085   4.849
   30CHL1   C24 3388   2.614   5.207   4.701
   30CHL1  H24A 3389   2.692   5.171   4.631
   30CHL1  H24B 3390   2.533   5.131   4.691
   30CHL1   C25 3391   2.560   5.343   4.647
   30CHL1   H25 3392   2.473   5.374   4.710
   30CHL1   C26 3393   2.657   5.467   4.665
   30CHL1  H26A 3394   2.745   5.441   4.602
   30CHL1  H26B 3395   2.610   5.560   4.626
   30CHL1  H26C 3396   2.698   5.479   4.768
   30CHL1   C27 3397   2.525   5.335   4.496
   30CHL1  H27A 3398   2.437   5.268   4.488
   30CHL1  H27B 3399   2.487   5.433   4.458
   30CHL1  H27C 3400   2.619   5.301   4.448
   31CHL1    C3 3401   1.626   4.857   6.188
   31CHL1    H3 3402   1.720   4.911   6.166
   31CHL1    O3 3403   1.598   4.826   6.323
   31CHL1   H3' 3404   1.681   4.854   6.363
   31CHL1    C4 3405   1.502   4.937   6.142
   31CHL1   H4A 3406   1.417   4.869   6.164
   31CHL1   H4B 3407   1.494   5.027   6.207
   31CHL1    C5 3408   1.515   4.965   5.989
   31CHL1    C6 3409   1.511   5.097   5.946
   31CHL1    H6 3410   1.490   5.176   6.021
   31CHL1    C7 3411   1.515   5.133   5.801
   31CHL1   H7A 3412   1.430   5.196   5.766
   31CHL1   H7B 3413   1.610   5.186   5.778
   31CHL1    C8 3414   1.500   5.005   5.703
   31CHL1    H8 3415   1.391   4.983   5.700
   31CHL1   C14 3416   1.538   5.035   5.558
   31CHL1   H14 3417   1.647   5.055   5.552
   31CHL1   C15 3418   1.463   5.155   5.486
   31CHL1  H15A 3419   1.353   5.149   5.496
   31CHL1  H15B 3420   1.491   5.256   5.523
   31CHL1   C16 3421   1.490   5.129   5.338
   31CHL1  H16A 3422   1.399   5.135   5.274
   31CHL1  H16B 3423   1.558   5.209   5.301
   31CHL1   C17 3424   1.554   4.985   5.330
   31CHL1   H17 3425   1.661   5.009   5.343
   31CHL1   C13 3426   1.522   4.920   5.460
   31CHL1   C18 3427   1.370   4.877   5.451
   31CHL1  H18A 3428   1.301   4.956   5.416
   31CHL1  H18B 3429   1.361   4.784   5.392
   31CHL1  H18C 3430   1.337   4.841   5.551
   31CHL1   C12 3431   1.618   4.811   5.514
   31CHL1  H12A 3432   1.627   4.726   5.443
   31CHL1  H12B 3433   1.722   4.849   5.522
   31CHL1   C11 3434   1.579   4.761   5.652
   31CHL1  H11A 3435   1.483   4.706   5.638
   31CHL1  H11B 3436   1.649   4.682   5.686
   31CHL1    C9 3437   1.580   4.880   5.753
   31CHL1    H9 3438   1.686   4.913   5.756
   31CHL1   C10 3439   1.545   4.845   5.898
   31CHL1   C19 3440   1.411   4.761   5.893
   31CHL1  H19A 3441   1.356   4.784   5.799
   31CHL1  H19B 3442   1.440   4.655   5.877
   31CHL1  H19C 3443   1.349   4.776   5.984
   31CHL1    C1 3444   1.657   4.755   5.965
   31CHL1   H1A 3445   1.671   4.655   5.919
   31CHL1   H1B 3446   1.752   4.811   5.957
   31CHL1    C2 3447   1.633   4.728   6.112
   31CHL1   H2A 3448   1.708   4.657   6.151
   31CHL1   H2B 3449   1.534   4.678   6.124
   31CHL1   C20 3450   1.550   4.909   5.201
   31CHL1   H20 3451   1.543   4.800   5.219
   31CHL1   C21 3452   1.679   4.923   5.112
   31CHL1  H21A 3453   1.662   4.866   5.018
   31CHL1  H21B 3454   1.761   4.869   5.163
   31CHL1  H21C 3455   1.722   5.022   5.089
   31CHL1   C22 3456   1.418   4.945   5.126
   31CHL1  H22A 3457   1.326   4.938   5.187
   31CHL1  H22B 3458   1.425   5.046   5.080
   31CHL1   C23 3459   1.381   4.845   5.014
   31CHL1  H23A 3460   1.467   4.840   4.943
   31CHL1  H23B 3461   1.352   4.745   5.054
   31CHL1   C24 3462   1.260   4.885   4.929
   31CHL1  H24A 3463   1.166   4.879   4.987
   31CHL1  H24B 3464   1.269   4.992   4.903
   31CHL1   C25 3465   1.232   4.806   4.799
   31CHL1   H25 3466   1.202   4.705   4.836
   31CHL1   C26 3467   1.118   4.862   4.720
   31CHL1  H26A 3468   1.027   4.873   4.782
   31CHL1  H26B 3469   1.145   4.963   4.682
   31CHL1  H26C 3470   1.079   4.801   4.636
   31CHL1   C27 3471   1.351   4.790   4.711
   31CHL1  H27A 3472   1.427   4.727   4.763
   31CHL1  H27B 3473   1.325   4.749   4.611
   31CHL1  H27C 3474   1.396   4.890   4.691
   32CHL1    C3 3475   2.946   2.620   5.697
   32CHL1    H3 3476   2.881   2.532   5.682
   32CHL1    O3 3477   2.981   2.641   5.832
   32CHL1   H3' 3478   3.066   2.687   5.833
   32CHL1    C4 3479   3.078   2.609   5.618
   32CHL1   H4A 3480   3.139   2.692   5.659
   32CHL1   H4B 3481   3.121   2.514   5.658
   32CHL1    C5 3482   3.060   2.604   5.472
   32CHL1    C6 3483   3.126   2.507   5.405
   32CHL1    H6 3484   3.185   2.430   5.456
   32CHL1    C7 3485   3.116   2.496   5.254
   32CHL1   H7A 3486   3.216   2.474   5.211
   32CHL1   H7B 3487   3.054   2.410   5.221
   32CHL1    C8 3488   3.069   2.630   5.187
   32CHL1    H8 3489   3.160   2.692   5.170
   32CHL1   C14 3490   3.011   2.600   5.052
   32CHL1   H14 3491   2.925   2.530   5.054
   32CHL1   C15 3492   3.109   2.530   4.951
   32CHL1  H15A 3493   3.206   2.582   4.964
   32CHL1  H15B 3494   3.116   2.421   4.970
   32CHL1   C16 3495   3.041   2.549   4.812
   32CHL1  H16A 3496   3.117   2.588   4.740
   32CHL1  H16B 3497   2.993   2.456   4.773
   32CHL1   C17 3498   2.929   2.651   4.834
   32CHL1   H17 3499   2.834   2.595   4.844
   32CHL1   C13 3500   2.959   2.718   4.967
   32CHL1   C18 3501   3.063   2.829   4.951
   32CHL1  H18A 3502   3.110   2.852   5.049
   32CHL1  H18B 3503   3.141   2.807   4.875
   32CHL1  H18C 3504   3.005   2.915   4.911
   32CHL1   C12 3505   2.843   2.779   5.056
   32CHL1  H12A 3506   2.806   2.872   5.009
   32CHL1  H12B 3507   2.755   2.712   5.060
   32CHL1   C11 3508   2.889   2.813   5.199
   32CHL1  H11A 3509   2.963   2.895   5.188
   32CHL1  H11B 3510   2.796   2.849   5.247
   32CHL1    C9 3511   2.956   2.694   5.266
   32CHL1    H9 3512   2.878   2.615   5.261
   32CHL1   C10 3513   2.980   2.720   5.415
   32CHL1   C19 3514   3.061   2.857   5.439
   32CHL1  H19A 3515   3.071   2.871   5.549
   32CHL1  H19B 3516   3.158   2.863   5.384
   32CHL1  H19C 3517   2.996   2.944   5.417
   32CHL1    C1 3518   2.850   2.728   5.488
   32CHL1   H1A 3519   2.787   2.816   5.462
   32CHL1   H1B 3520   2.796   2.636   5.456
   32CHL1    C2 3521   2.856   2.735   5.645
   32CHL1   H2A 3522   2.758   2.716   5.694
   32CHL1   H2B 3523   2.892   2.834   5.678
   32CHL1   C20 3524   2.923   2.737   4.703
   32CHL1   H20 3525   3.023   2.781   4.681
   32CHL1   C21 3526   2.814   2.845   4.718
   32CHL1  H21A 3527   2.846   2.909   4.804
   32CHL1  H21B 3528   2.713   2.799   4.720
   32CHL1  H21C 3529   2.821   2.910   4.629
   32CHL1   C22 3530   2.891   2.648   4.584
   32CHL1  H22A 3531   2.958   2.560   4.578
   32CHL1  H22B 3532   2.785   2.617   4.597
   32CHL1   C23 3533   2.901   2.723   4.446
   32CHL1  H23A 3534   2.883   2.658   4.357
   32CHL1  H23B 3535   2.828   2.806   4.441
   32CHL1   C24 3536   3.046   2.781   4.421
   32CHL1  H24A 3537   3.058   2.861   4.497
   32CHL1  H24B 3538   3.114   2.693   4.422
   32CHL1   C25 3539   3.049   2.858   4.286
   32CHL1   H25 3540   2.955   2.914   4.271
   32CHL1   C26 3541   3.160   2.972   4.295
   32CHL1  H26A 3542   3.262   2.936   4.319
   32CHL1  H26B 3543   3.160   3.024   4.197
   32CHL1  H26C 3544   3.137   3.046   4.375
   32CHL1   C27 3545   3.065   2.760   4.168
   32CHL1  H27A 3546   3.159   2.705   4.188
   32CHL1  H27B 3547   2.980   2.688   4.168
   32CHL1  H27C 3548   3.070   2.809   4.069
   33CHL1    C3 3549   0.711   3.290   5.577
   33CHL1    H3 3550   0.696   3.399   5.562
   33CHL1    O3 3551   0.666   3.242   5.701
   33CHL1   H3' 3552   0.726   3.254   5.775
   33CHL1    C4 3553   0.631   3.213   5.468
   33CHL1   H4A 3554   0.640   3.103   5.487
   33CHL1   H4B 3555   0.521   3.228   5.475
   33CHL1    C5 3556   0.684   3.239   5.328
   33CHL1    C6 3557   0.610   3.299   5.238
   33CHL1    H6 3558   0.503   3.314   5.260
   33CHL1    C7 3559   0.658   3.321   5.098
   33CHL1   H7A 3560   0.576   3.300   5.026
   33CHL1   H7B 3561   0.684   3.428   5.083
   33CHL1    C8 3562   0.774   3.225   5.055
   33CHL1    H8 3563   0.745   3.118   5.046
   33CHL1   C14 3564   0.842   3.277   4.928
   33CHL1   H14 3565   0.869   3.384   4.945
   33CHL1   C15 3566   0.755   3.288   4.801
   33CHL1  H15A 3567   0.695   3.194   4.807
   33CHL1  H15B 3568   0.690   3.377   4.797
   33CHL1   C16 3569   0.856   3.293   4.687
   33CHL1  H16A 3570   0.843   3.207   4.617
   33CHL1  H16B 3571   0.846   3.392   4.639
   33CHL1   C17 3572   0.997   3.291   4.753
   33CHL1   H17 3573   1.016   3.397   4.781
   33CHL1   C13 3574   0.979   3.216   4.891
   33CHL1   C18 3575   0.974   3.063   4.862
   33CHL1  H18A 3576   0.940   3.002   4.949
   33CHL1  H18B 3577   0.906   3.040   4.777
   33CHL1  H18C 3578   1.073   3.023   4.830
   33CHL1   C12 3579   1.079   3.255   4.998
   33CHL1  H12A 3580   1.183   3.216   4.984
   33CHL1  H12B 3581   1.081   3.366   5.003
   33CHL1   C11 3582   1.028   3.202   5.141
   33CHL1  H11A 3583   1.029   3.091   5.131
   33CHL1  H11B 3584   1.094   3.225   5.227
   33CHL1    C9 3585   0.879   3.242   5.172
   33CHL1    H9 3586   0.881   3.353   5.184
   33CHL1   C10 3587   0.831   3.198   5.307
   33CHL1   C19 3588   0.848   3.048   5.315
   33CHL1  H19A 3589   0.817   3.006   5.413
   33CHL1  H19B 3590   0.788   2.995   5.238
   33CHL1  H19C 3591   0.953   3.011   5.304
   33CHL1    C1 3592   0.912   3.262   5.426
   33CHL1   H1A 3593   1.014   3.219   5.424
   33CHL1   H1B 3594   0.930   3.366   5.390
   33CHL1    C2 3595   0.857   3.248   5.566
   33CHL1   H2A 3596   0.905   3.319   5.636
   33CHL1   H2B 3597   0.868   3.142   5.595
   33CHL1   C20 3598   1.109   3.249   4.664
   33CHL1   H20 3599   1.099   3.143   4.630
   33CHL1   C21 3600   1.250   3.259   4.729
   33CHL1  H21A 3601   1.272   3.181   4.805
   33CHL1  H21B 3602   1.254   3.360   4.776
   33CHL1  H21C 3603   1.332   3.278   4.657
   33CHL1   C22 3604   1.112   3.337   4.533
   33CHL1  H22A 3605   1.007   3.355   4.501
   33CHL1  H22B 3606   1.151   3.435   4.567
   33CHL1   C23 3607   1.194   3.286   4.417
   33CHL1  H23A 3608   1.301   3.296   4.445
   33CHL1  H23B 3609   1.162   3.181   4.397
   33CHL1   C24 3610   1.170   3.364   4.284
   33CHL1  H24A 3611   1.060   3.360   4.266
   33CHL1  H24B 3612   1.192   3.471   4.305
   33CHL1   C25 3613   1.259   3.308   4.169
   33CHL1   H25 3614   1.236   3.201   4.151
   33CHL1   C26 3615   1.218   3.381   4.041
   33CHL1  H26A 3616   1.227   3.491   4.057
   33CHL1  H26B 3617   1.288   3.343   3.963
   33CHL1  H26C 3618   1.119   3.351   4.001
   33CHL1   C27 3619   1.409   3.327   4.193
   33CHL1  H27A 3620   1.426   3.435   4.214
   33CHL1  H27B 3621   1.446   3.260   4.273
   33CHL1  H27C 3622   1.467   3.294   4.104
   34CHL1    C3 3623   2.044   4.439   6.022
   34CHL1    H3 3624   2.141   4.493   6.024
   34CHL1    O3 3625   2.008   4.420   6.160
   34CHL1   H3' 3626   1.922   4.381   6.144
   34CHL1    C4 3627   1.935   4.519   5.951
   34CHL1   H4A 3628   1.839   4.463   5.952
   34CHL1   H4B 3629   1.920   4.612   6.010
   34CHL1    C5 3630   1.962   4.553   5.807
   34CHL1    C6 3631   1.975   4.680   5.766
   34CHL1    H6 3632   1.968   4.763   5.837
   34CHL1    C7 3633   1.997   4.717   5.615
   34CHL1   H7A 3634   1.929   4.796   5.578
   34CHL1   H7B 3635   2.103   4.749   5.608
   34CHL1    C8 3636   1.972   4.599   5.523
   34CHL1    H8 3637   1.864   4.572   5.520
   34CHL1   C14 3638   2.026   4.627   5.389
   34CHL1   H14 3639   2.136   4.637   5.399
   34CHL1   C15 3640   1.979   4.748   5.320
   34CHL1  H15A 3641   1.870   4.770   5.332
   34CHL1  H15B 3642   2.031   4.840   5.351
   34CHL1   C16 3643   2.007   4.722   5.170
   34CHL1  H16A 3644   1.911   4.718   5.114
   34CHL1  H16B 3645   2.066   4.805   5.127
   34CHL1   C17 3646   2.061   4.578   5.154
   34CHL1   H17 3647   2.171   4.590   5.156
   34CHL1   C13 3648   2.020   4.513   5.285
   34CHL1   C18 3649   1.867   4.467   5.256
   34CHL1  H18A 3650   1.828   4.408   5.342
   34CHL1  H18B 3651   1.800   4.556   5.248
   34CHL1  H18C 3652   1.863   4.395   5.172
   34CHL1   C12 3653   2.110   4.395   5.336
   34CHL1  H12A 3654   2.122   4.309   5.267
   34CHL1  H12B 3655   2.213   4.437   5.344
   34CHL1   C11 3656   2.064   4.360   5.475
   34CHL1  H11A 3657   1.974   4.296   5.465
   34CHL1  H11B 3658   2.133   4.280   5.508
   34CHL1    C9 3659   2.043   4.475   5.579
   34CHL1    H9 3660   2.145   4.515   5.596
   34CHL1   C10 3661   1.989   4.436   5.720
   34CHL1   C19 3662   1.848   4.370   5.695
   34CHL1  H19A 3663   1.836   4.310   5.788
   34CHL1  H19B 3664   1.768   4.445   5.678
   34CHL1  H19C 3665   1.837   4.298   5.611
   34CHL1    C1 3666   2.089   4.329   5.791
   34CHL1   H1A 3667   2.086   4.231   5.739
   34CHL1   H1B 3668   2.195   4.359   5.774
   34CHL1    C2 3669   2.070   4.308   5.940
   34CHL1   H2A 3670   2.156   4.253   5.983
   34CHL1   H2B 3671   1.978   4.248   5.957
   34CHL1   C20 3672   2.027   4.522   5.009
   34CHL1   H20 3673   1.920   4.501   4.989
   34CHL1   C21 3674   2.119   4.391   4.991
   34CHL1  H21A 3675   2.064   4.313   5.048
   34CHL1  H21B 3676   2.222   4.411   5.026
   34CHL1  H21C 3677   2.110   4.369   4.883
   34CHL1   C22 3678   2.079   4.618   4.897
   34CHL1  H22A 3679   2.046   4.558   4.810
   34CHL1  H22B 3680   2.020   4.712   4.891
   34CHL1   C23 3681   2.224   4.658   4.891
   34CHL1  H23A 3682   2.245   4.732   4.971
   34CHL1  H23B 3683   2.305   4.583   4.902
   34CHL1   C24 3684   2.253   4.741   4.762
   34CHL1  H24A 3685   2.228   4.669   4.681
   34CHL1  H24B 3686   2.183   4.826   4.752
   34CHL1   C25 3687   2.403   4.778   4.745
   34CHL1   H25 3688   2.467   4.690   4.765
   34CHL1   C26 3689   2.423   4.832   4.602
   34CHL1  H26A 3690   2.527   4.869   4.586
   34CHL1  H26B 3691   2.391   4.775   4.512
   34CHL1  H26C 3692   2.366   4.926   4.585
   34CHL1   C27 3693   2.439   4.896   4.837
   34CHL1  H27A 3694   2.372   4.980   4.807
   34CHL1  H27B 3695   2.430   4.867   4.944
   34CHL1  H27C 3696   2.544   4.931   4.831
   35CHL1    C3 3697   3.445   5.791   6.124
   35CHL1    H3 3698   3.337   5.811   6.140
   35CHL1    O3 3699   3.507   5.773   6.251
   35CHL1   H3' 3700   3.600   5.764   6.228
   35CHL1    C4 3701   3.471   5.657   6.046
   35CHL1   H4A 3702   3.580   5.637   6.056
   35CHL1   H4B 3703   3.401   5.580   6.084
   35CHL1    C5 3704   3.450   5.675   5.896
   35CHL1    C6 3705   3.370   5.599   5.825
   35CHL1    H6 3706   3.311   5.518   5.871
   35CHL1    C7 3707   3.371   5.590   5.673
   35CHL1   H7A 3708   3.398   5.491   5.632
   35CHL1   H7B 3709   3.276   5.632   5.633
   35CHL1    C8 3710   3.466   5.689   5.605
   35CHL1    H8 3711   3.562   5.633   5.607
   35CHL1   C14 3712   3.420   5.721   5.457
   35CHL1   H14 3713   3.331   5.782   5.481
   35CHL1   C15 3714   3.389   5.606   5.358
   35CHL1  H15A 3715   3.464   5.525   5.376
   35CHL1  H15B 3716   3.299   5.544   5.380
   35CHL1   C16 3717   3.403   5.671   5.223
   35CHL1  H16A 3718   3.481   5.612   5.169
   35CHL1  H16B 3719   3.318   5.670   5.152
   35CHL1   C17 3720   3.449   5.815   5.244
   35CHL1   H17 3721   3.362   5.882   5.258
   35CHL1   C13 3722   3.519   5.805   5.380
   35CHL1   C18 3723   3.648   5.725   5.357
   35CHL1  H18A 3724   3.646   5.639   5.287
   35CHL1  H18B 3725   3.728   5.787   5.312
   35CHL1  H18C 3726   3.691   5.684   5.451
   35CHL1   C12 3727   3.538   5.939   5.459
   35CHL1  H12A 3728   3.619   5.999   5.412
   35CHL1  H12B 3729   3.441   5.992   5.449
   35CHL1   C11 3730   3.578   5.916   5.606
   35CHL1  H11A 3731   3.678   5.866   5.610
   35CHL1  H11B 3732   3.574   6.012   5.660
   35CHL1    C9 3733   3.484   5.821   5.682
   35CHL1    H9 3734   3.384   5.869   5.681
   35CHL1   C10 3735   3.521   5.800   5.832
   35CHL1   C19 3736   3.671   5.779   5.840
   35CHL1  H19A 3737   3.697   5.702   5.763
   35CHL1  H19B 3738   3.714   5.877   5.811
   35CHL1  H19C 3739   3.712   5.747   5.938
   35CHL1    C1 3740   3.475   5.922   5.916
   35CHL1   H1A 3741   3.525   6.015   5.883
   35CHL1   H1B 3742   3.366   5.930   5.893
   35CHL1    C2 3743   3.507   5.914   6.066
   35CHL1   H2A 3744   3.464   6.003   6.116
   35CHL1   H2B 3745   3.616   5.921   6.084
   35CHL1   C20 3746   3.540   5.861   5.125
   35CHL1   H20 3747   3.634   5.803   5.117
   35CHL1   C21 3748   3.586   6.001   5.157
   35CHL1  H21A 3749   3.524   6.061   5.227
   35CHL1  H21B 3750   3.599   6.068   5.069
   35CHL1  H21C 3751   3.686   5.990   5.204
   35CHL1   C22 3752   3.472   5.857   4.982
   35CHL1  H22A 3753   3.419   5.761   4.966
   35CHL1  H22B 3754   3.399   5.940   4.992
   35CHL1   C23 3755   3.570   5.856   4.860
   35CHL1  H23A 3756   3.625   5.951   4.844
   35CHL1  H23B 3757   3.636   5.768   4.872
   35CHL1   C24 3758   3.491   5.827   4.730
   35CHL1  H24A 3759   3.421   5.745   4.760
   35CHL1  H24B 3760   3.434   5.918   4.702
   35CHL1   C25 3761   3.570   5.773   4.613
   35CHL1   H25 3762   3.599   5.668   4.636
   35CHL1   C26 3763   3.466   5.760   4.492
   35CHL1  H26A 3764   3.508   5.700   4.408
   35CHL1  H26B 3765   3.382   5.692   4.520
   35CHL1  H26C 3766   3.424   5.858   4.459
   35CHL1   C27 3767   3.683   5.868   4.583
   35CHL1  H27A 3768   3.628   5.961   4.557
   35CHL1  H27B 3769   3.754   5.893   4.664
   35CHL1  H27C 3770   3.735   5.847   4.486
   36CHL1    C3 3771   0.565   4.284   5.858
   36CHL1    H3 3772   0.619   4.378   5.835
   36CHL1    O3 3773   0.537   4.277   5.994
   36CHL1   H3' 3774   0.475   4.204   6.001
   36CHL1    C4 3775   0.436   4.289   5.770
   36CHL1   H4A 3776   0.368   4.203   5.784
   36CHL1   H4B 3777   0.373   4.375   5.801
   36CHL1    C5 3778   0.478   4.290   5.626
   36CHL1    C6 3779   0.446   4.394   5.547
   36CHL1    H6 3780   0.391   4.478   5.590
   36CHL1    C7 3781   0.470   4.393   5.394
   36CHL1   H7A 3782   0.380   4.431   5.342
   36CHL1   H7B 3783   0.544   4.472   5.370
   36CHL1    C8 3784   0.493   4.250   5.331
   36CHL1    H8 3785   0.402   4.187   5.335
   36CHL1   C14 3786   0.548   4.268   5.189
   36CHL1   H14 3787   0.636   4.335   5.201
   36CHL1   C15 3788   0.468   4.347   5.083
   36CHL1  H15A 3789   0.360   4.319   5.088
   36CHL1  H15B 3790   0.486   4.456   5.087
   36CHL1   C16 3791   0.528   4.300   4.946
   36CHL1  H16A 3792   0.448   4.261   4.878
   36CHL1  H16B 3793   0.578   4.384   4.894
   36CHL1   C17 3794   0.637   4.194   4.979
   36CHL1   H17 3795   0.732   4.248   4.995
   36CHL1   C13 3796   0.606   4.135   5.121
   36CHL1   C18 3797   0.495   4.029   5.111
   36CHL1  H18A 3798   0.443   4.008   5.207
   36CHL1  H18B 3799   0.423   4.054   5.030
   36CHL1  H18C 3800   0.546   3.935   5.078
   36CHL1   C12 3801   0.723   4.078   5.206
   36CHL1  H12A 3802   0.765   3.982   5.168
   36CHL1  H12B 3803   0.806   4.151   5.208
   36CHL1   C11 3804   0.679   4.064   5.351
   36CHL1  H11A 3805   0.614   3.973   5.351
   36CHL1  H11B 3806   0.772   4.033   5.402
   36CHL1    C9 3807   0.609   4.189   5.421
   36CHL1    H9 3808   0.688   4.267   5.421
   36CHL1   C10 3809   0.561   4.167   5.568
   36CHL1   C19 3810   0.466   4.043   5.586
   36CHL1  H19A 3811   0.450   4.019   5.693
   36CHL1  H19B 3812   0.370   4.056   5.531
   36CHL1  H19C 3813   0.525   3.959   5.544
   36CHL1    C1 3814   0.683   4.161   5.657
   36CHL1   H1A 3815   0.754   4.081   5.627
   36CHL1   H1B 3816   0.744   4.252   5.636
   36CHL1    C2 3817   0.659   4.165   5.812
   36CHL1   H2A 3818   0.752   4.187   5.868
   36CHL1   H2B 3819   0.611   4.075   5.858
   36CHL1   C20 3820   0.665   4.099   4.857
   36CHL1   H20 3821   0.569   4.045   4.844
   36CHL1   C21 3822   0.775   3.994   4.882
   36CHL1  H21A 3823   0.741   3.924   4.961
   36CHL1  H21B 3824   0.872   4.035   4.919
   36CHL1  H21C 3825   0.803   3.937   4.791
   36CHL1   C22 3826   0.689   4.170   4.719
   36CHL1  H22A 3827   0.623   4.259   4.713
   36CHL1  H22B 3828   0.788   4.216   4.703
   36CHL1   C23 3829   0.639   4.079   4.601
   36CHL1  H23A 3830   0.716   4.015   4.553
   36CHL1  H23B 3831   0.569   4.002   4.637
   36CHL1   C24 3832   0.587   4.170   4.484
   36CHL1  H24A 3833   0.487   4.212   4.508
   36CHL1  H24B 3834   0.652   4.260   4.474
   36CHL1   C25 3835   0.579   4.096   4.342
   36CHL1   H25 3836   0.511   4.009   4.356
   36CHL1   C26 3837   0.521   4.177   4.222
   36CHL1  H26A 3838   0.560   4.280   4.233
   36CHL1  H26B 3839   0.548   4.139   4.121
   36CHL1  H26C 3840   0.410   4.169   4.226
   36CHL1   C27 3841   0.717   4.044   4.291
   36CHL1  H27A 3842   0.708   4.004   4.188
   36CHL1  H27B 3843   0.798   4.120   4.287
   36CHL1  H27C 3844   0.751   3.960   4.356
   37CHL1    C3 3845   1.504   0.901   5.708
   37CHL1    H3 3846   1.475   0.796   5.732
   37CHL1    O3 3847   1.493   0.971   5.832
   37CHL1   H3' 3848   1.399   0.971   5.856
   37CHL1    C4 3849   1.661   0.908   5.665
   37CHL1   H4A 3850   1.685   1.016   5.655
   37CHL1   H4B 3851   1.722   0.873   5.750
   37CHL1    C5 3852   1.673   0.842   5.526
   37CHL1    C6 3853   1.752   0.737   5.522
   37CHL1    H6 3854   1.796   0.702   5.617
   37CHL1    C7 3855   1.777   0.648   5.402
   37CHL1   H7A 3856   1.885   0.621   5.395
   37CHL1   H7B 3857   1.719   0.553   5.405
   37CHL1    C8 3858   1.722   0.718   5.270
   37CHL1    H8 3859   1.782   0.807   5.242
   37CHL1   C14 3860   1.722   0.618   5.153
   37CHL1   H14 3861   1.647   0.541   5.181
   37CHL1   C15 3862   1.850   0.547   5.103
   37CHL1  H15A 3863   1.933   0.621   5.104
   37CHL1  H15B 3864   1.887   0.458   5.159
   37CHL1   C16 3865   1.823   0.508   4.956
   37CHL1  H16A 3866   1.911   0.552   4.904
   37CHL1  H16B 3867   1.836   0.398   4.949
   37CHL1   C17 3868   1.676   0.559   4.930
   37CHL1   H17 3869   1.603   0.483   4.965
   37CHL1   C13 3870   1.657   0.676   5.026
   37CHL1   C18 3871   1.741   0.801   4.988
   37CHL1  H18A 3872   1.848   0.777   4.970
   37CHL1  H18B 3873   1.709   0.844   4.890
   37CHL1  H18C 3874   1.738   0.887   5.058
   37CHL1   C12 3875   1.515   0.717   5.051
   37CHL1  H12A 3876   1.474   0.765   4.960
   37CHL1  H12B 3877   1.456   0.624   5.064
   37CHL1   C11 3878   1.504   0.809   5.171
   37CHL1  H11A 3879   1.548   0.902   5.131
   37CHL1  H11B 3880   1.398   0.833   5.194
   37CHL1    C9 3881   1.581   0.769   5.298
   37CHL1    H9 3882   1.532   0.674   5.327
   37CHL1   C10 3883   1.573   0.872   5.417
   37CHL1   C19 3884   1.616   1.012   5.362
   37CHL1  H19A 3885   1.535   1.052   5.298
   37CHL1  H19B 3886   1.617   1.085   5.446
   37CHL1  H19C 3887   1.721   1.008   5.325
   37CHL1    C1 3888   1.421   0.875   5.465
   37CHL1   H1A 3889   1.356   0.918   5.386
   37CHL1   H1B 3890   1.380   0.773   5.486
   37CHL1    C2 3891   1.405   0.951   5.603
   37CHL1   H2A 3892   1.306   0.942   5.651
   37CHL1   H2B 3893   1.435   1.055   5.578
   37CHL1   C20 3894   1.650   0.583   4.779
   37CHL1   H20 3895   1.555   0.635   4.757
   37CHL1   C21 3896   1.638   0.440   4.717
   37CHL1  H21A 3897   1.560   0.379   4.765
   37CHL1  H21B 3898   1.730   0.378   4.720
   37CHL1  H21C 3899   1.614   0.444   4.608
   37CHL1   C22 3900   1.757   0.641   4.692
   37CHL1  H22A 3901   1.806   0.725   4.746
   37CHL1  H22B 3902   1.838   0.565   4.683
   37CHL1   C23 3903   1.713   0.684   4.555
   37CHL1  H23A 3904   1.614   0.644   4.526
   37CHL1  H23B 3905   1.675   0.788   4.560
   37CHL1   C24 3906   1.818   0.668   4.445
   37CHL1  H24A 3907   1.917   0.714   4.466
   37CHL1  H24B 3908   1.839   0.559   4.441
   37CHL1   C25 3909   1.759   0.720   4.305
   37CHL1   H25 3910   1.682   0.795   4.330
   37CHL1   C26 3911   1.869   0.767   4.225
   37CHL1  H26A 3912   1.837   0.808   4.126
   37CHL1  H26B 3913   1.926   0.849   4.273
   37CHL1  H26C 3914   1.942   0.688   4.197
   37CHL1   C27 3915   1.694   0.607   4.222
   37CHL1  H27A 3916   1.762   0.522   4.204
   37CHL1  H27B 3917   1.601   0.568   4.269
   37CHL1  H27C 3918   1.671   0.660   4.127
   38CHL1    C3 3919   2.345   1.306   5.882
   38CHL1    H3 3920   2.453   1.281   5.873
   38CHL1    O3 3921   2.293   1.320   6.012
   38CHL1   H3' 3922   2.198   1.320   5.998
   38CHL1    C4 3923   2.334   1.441   5.815
   38CHL1   H4A 3924   2.231   1.481   5.802
   38CHL1   H4B 3925   2.385   1.514   5.881
   38CHL1    C5 3926   2.382   1.446   5.675
   38CHL1    C6 3927   2.475   1.533   5.630
   38CHL1    H6 3928   2.523   1.612   5.691
   38CHL1    C7 3929   2.532   1.538   5.487
   38CHL1   H7A 3930   2.523   1.642   5.450
   38CHL1   H7B 3931   2.639   1.510   5.498
   38CHL1    C8 3932   2.464   1.441   5.385
   38CHL1    H8 3933   2.371   1.496   5.357
   38CHL1   C14 3934   2.550   1.414   5.261
   38CHL1   H14 3935   2.637   1.355   5.299
   38CHL1   C15 3936   2.605   1.533   5.193
   38CHL1  H15A 3937   2.526   1.611   5.191
   38CHL1  H15B 3938   2.681   1.567   5.265
   38CHL1   C16 3939   2.652   1.485   5.057
   38CHL1  H16A 3940   2.608   1.541   4.972
   38CHL1  H16B 3941   2.762   1.499   5.051
   38CHL1   C17 3942   2.610   1.337   5.051
   38CHL1   H17 3943   2.705   1.288   5.081
   38CHL1   C13 3944   2.496   1.321   5.150
   38CHL1   C18 3945   2.369   1.392   5.091
   38CHL1  H18A 3946   2.290   1.393   5.169
   38CHL1  H18B 3947   2.384   1.500   5.069
   38CHL1  H18C 3948   2.338   1.340   4.998
   38CHL1   C12 3949   2.470   1.188   5.220
   38CHL1  H12A 3950   2.423   1.115   5.151
   38CHL1  H12B 3951   2.562   1.130   5.241
   38CHL1   C11 3952   2.384   1.200   5.346
   38CHL1  H11A 3953   2.283   1.232   5.311
   38CHL1  H11B 3954   2.382   1.101   5.396
   38CHL1    C9 3955   2.432   1.306   5.450
   38CHL1    H9 3956   2.528   1.263   5.484
   38CHL1   C10 3957   2.345   1.326   5.581
   38CHL1   C19 3958   2.195   1.354   5.529
   38CHL1  H19A 3959   2.151   1.287   5.452
   38CHL1  H19B 3960   2.126   1.354   5.617
   38CHL1  H19C 3961   2.191   1.452   5.477
   38CHL1    C1 3962   2.341   1.195   5.660
   38CHL1   H1A 3963   2.287   1.116   5.604
   38CHL1   H1B 3964   2.444   1.159   5.677
   38CHL1    C2 3965   2.270   1.202   5.799
   38CHL1   H2A 3966   2.272   1.100   5.844
   38CHL1   H2B 3967   2.164   1.230   5.781
   38CHL1   C20 3968   2.585   1.296   4.902
   38CHL1   H20 3969   2.494   1.345   4.861
   38CHL1   C21 3970   2.564   1.144   4.896
   38CHL1  H21A 3971   2.569   1.097   4.796
   38CHL1  H21B 3972   2.459   1.132   4.933
   38CHL1  H21C 3973   2.645   1.097   4.956
   38CHL1   C22 3974   2.701   1.341   4.808
   38CHL1  H22A 3975   2.721   1.450   4.816
   38CHL1  H22B 3976   2.791   1.284   4.837
   38CHL1   C23 3977   2.675   1.317   4.656
   38CHL1  H23A 3978   2.671   1.208   4.634
   38CHL1  H23B 3979   2.578   1.366   4.634
   38CHL1   C24 3980   2.792   1.371   4.563
   38CHL1  H24A 3981   2.829   1.465   4.610
   38CHL1  H24B 3982   2.873   1.295   4.572
   38CHL1   C25 3983   2.763   1.398   4.421
   38CHL1   H25 3984   2.708   1.315   4.371
   38CHL1   C26 3985   2.676   1.526   4.407
   38CHL1  H26A 3986   2.595   1.523   4.482
   38CHL1  H26B 3987   2.734   1.616   4.436
   38CHL1  H26C 3988   2.624   1.533   4.309
   38CHL1   C27 3989   2.898   1.419   4.338
   38CHL1  H27A 3990   2.876   1.464   4.239
   38CHL1  H27B 3991   2.957   1.497   4.389
   38CHL1  H27C 3992   2.956   1.325   4.330
   39CHL1    C3 3993   2.824   1.156   6.180
   39CHL1    H3 3994   2.882   1.063   6.195
   39CHL1    O3 3995   2.764   1.186   6.308
   39CHL1   H3' 3996   2.749   1.099   6.345
   39CHL1    C4 3997   2.910   1.278   6.147
   39CHL1   H4A 3998   2.855   1.371   6.170
   39CHL1   H4B 3999   2.989   1.276   6.226
   39CHL1    C5 4000   2.972   1.262   6.009
   39CHL1    C6 4001   3.106   1.255   5.992
   39CHL1    H6 4002   3.176   1.267   6.076
   39CHL1    C7 4003   3.167   1.246   5.857
   39CHL1   H7A 4004   3.249   1.320   5.846
   39CHL1   H7B 4005   3.217   1.147   5.854
   39CHL1    C8 4006   3.065   1.269   5.735
   39CHL1    H8 4007   3.065   1.380   5.727
   39CHL1   C14 4008   3.119   1.228   5.601
   39CHL1   H14 4009   3.120   1.117   5.602
   39CHL1   C15 4010   3.258   1.280   5.567
   39CHL1  H15A 4011   3.253   1.389   5.592
   39CHL1  H15B 4012   3.346   1.237   5.619
   39CHL1   C16 4013   3.267   1.244   5.415
   39CHL1  H16A 4014   3.310   1.322   5.349
   39CHL1  H16B 4015   3.344   1.165   5.405
   39CHL1   C17 4016   3.121   1.193   5.371
   39CHL1   H17 4017   3.120   1.082   5.373
   39CHL1   C13 4018   3.033   1.252   5.480
   39CHL1   C18 4019   3.011   1.402   5.466
   39CHL1  H18A 4020   2.937   1.416   5.384
   39CHL1  H18B 4021   2.970   1.444   5.560
   39CHL1  H18C 4022   3.112   1.448   5.449
   39CHL1   C12 4023   2.903   1.174   5.512
   39CHL1  H12A 4024   2.838   1.182   5.423
   39CHL1  H12B 4025   2.922   1.067   5.538
   39CHL1   C11 4026   2.832   1.221   5.641
   39CHL1  H11A 4027   2.810   1.328   5.625
   39CHL1  H11B 4028   2.738   1.165   5.658
   39CHL1    C9 4029   2.933   1.202   5.762
   39CHL1    H9 4030   2.956   1.095   5.778
   39CHL1   C10 4031   2.865   1.242   5.899
   39CHL1   C19 4032   2.784   1.378   5.880
   39CHL1  H19A 4033   2.754   1.406   5.984
   39CHL1  H19B 4034   2.849   1.450   5.825
   39CHL1  H19C 4035   2.688   1.377   5.824
   39CHL1    C1 4036   2.764   1.130   5.932
   39CHL1   H1A 4037   2.679   1.134   5.860
   39CHL1   H1B 4038   2.815   1.033   5.909
   39CHL1    C2 4039   2.712   1.133   6.075
   39CHL1   H2A 4040   2.667   1.035   6.103
   39CHL1   H2B 4041   2.634   1.212   6.082
   39CHL1   C20 4042   3.086   1.235   5.219
   39CHL1   H20 4043   3.092   1.346   5.229
   39CHL1   C21 4044   2.942   1.182   5.188
   39CHL1  H21A 4045   2.940   1.177   5.077
   39CHL1  H21B 4046   2.870   1.257   5.228
   39CHL1  H21C 4047   2.916   1.083   5.230
   39CHL1   C22 4048   3.198   1.195   5.116
   39CHL1  H22A 4049   3.294   1.224   5.163
   39CHL1  H22B 4050   3.195   1.083   5.116
   39CHL1   C23 4051   3.186   1.254   4.981
   39CHL1  H23A 4052   3.219   1.176   4.909
   39CHL1  H23B 4053   3.080   1.262   4.950
   39CHL1   C24 4054   3.255   1.398   4.956
   39CHL1  H24A 4055   3.222   1.475   5.029
   39CHL1  H24B 4056   3.363   1.380   4.973
   39CHL1   C25 4057   3.227   1.462   4.818
   39CHL1   H25 4058   3.117   1.470   4.805
   39CHL1   C26 4059   3.277   1.604   4.820
   39CHL1  H26A 4060   3.388   1.599   4.830
   39CHL1  H26B 4061   3.262   1.659   4.725
   39CHL1  H26C 4062   3.243   1.668   4.905
   39CHL1   C27 4063   3.294   1.387   4.710
   39CHL1  H27A 4064   3.268   1.432   4.611
   39CHL1  H27B 4065   3.404   1.373   4.717
   39CHL1  H27C 4066   3.248   1.287   4.718
   40CHL1    C3 4067   3.205   5.250   6.117
   40CHL1    H3 4068   3.214   5.360   6.107
   40CHL1    O3 4069   3.184   5.223   6.252
   40CHL1   H3' 4070   3.261   5.252   6.300
   40CHL1    C4 4071   3.078   5.213   6.040
   40CHL1   H4A 4072   3.058   5.106   6.065
   40CHL1   H4B 4073   3.001   5.274   6.091
   40CHL1    C5 4074   3.114   5.225   5.892
   40CHL1    C6 4075   3.048   5.313   5.823
   40CHL1    H6 4076   2.961   5.357   5.874
   40CHL1    C7 4077   3.062   5.334   5.677
   40CHL1   H7A 4078   2.962   5.349   5.631
   40CHL1   H7B 4079   3.125   5.425   5.665
   40CHL1    C8 4080   3.138   5.212   5.600
   40CHL1    H8 4081   3.069   5.126   5.609
   40CHL1   C14 4082   3.177   5.243   5.455
   40CHL1   H14 4083   3.239   5.335   5.461
   40CHL1   C15 4084   3.063   5.282   5.365
   40CHL1  H15A 4085   2.980   5.209   5.380
   40CHL1  H15B 4086   3.034   5.384   5.398
   40CHL1   C16 4087   3.131   5.272   5.229
   40CHL1  H16A 4088   3.065   5.210   5.164
   40CHL1  H16B 4089   3.129   5.372   5.180
   40CHL1   C17 4090   3.268   5.202   5.247
   40CHL1   H17 4091   3.341   5.285   5.250
   40CHL1   C13 4092   3.259   5.135   5.380
   40CHL1   C18 4093   3.169   5.007   5.381
   40CHL1  H18A 4094   3.078   5.010   5.317
   40CHL1  H18B 4095   3.226   4.914   5.361
   40CHL1  H18C 4096   3.129   4.986   5.483
   40CHL1   C12 4097   3.392   5.119   5.458
   40CHL1  H12A 4098   3.449   5.032   5.420
   40CHL1  H12B 4099   3.452   5.213   5.458
   40CHL1   C11 4100   3.364   5.090   5.606
   40CHL1  H11A 4101   3.342   4.981   5.611
   40CHL1  H11B 4102   3.466   5.092   5.651
   40CHL1    C9 4103   3.266   5.183   5.680
   40CHL1    H9 4104   3.323   5.277   5.693
   40CHL1   C10 4105   3.233   5.142   5.828
   40CHL1   C19 4106   3.192   4.993   5.834
   40CHL1  H19A 4107   3.184   4.950   5.937
   40CHL1  H19B 4108   3.094   4.981   5.782
   40CHL1  H19C 4109   3.273   4.933   5.789
   40CHL1    C1 4110   3.356   5.180   5.918
   40CHL1   H1A 4111   3.440   5.117   5.879
   40CHL1   H1B 4112   3.390   5.283   5.896
   40CHL1    C2 4113   3.327   5.176   6.066
   40CHL1   H2A 4114   3.418   5.209   6.121
   40CHL1   H2B 4115   3.298   5.074   6.100
   40CHL1   C20 4116   3.311   5.112   5.124
   40CHL1   H20 4117   3.264   5.012   5.132
   40CHL1   C21 4118   3.471   5.097   5.125
   40CHL1  H21A 4119   3.523   5.046   5.208
   40CHL1  H21B 4120   3.512   5.200   5.124
   40CHL1  H21C 4121   3.505   5.046   5.032
   40CHL1   C22 4122   3.271   5.166   4.982
   40CHL1  H22A 4123   3.306   5.092   4.907
   40CHL1  H22B 4124   3.161   5.152   4.981
   40CHL1   C23 4125   3.314   5.312   4.961
   40CHL1  H23A 4126   3.316   5.349   5.066
   40CHL1  H23B 4127   3.411   5.303   4.909
   40CHL1   C24 4128   3.217   5.392   4.876
   40CHL1  H24A 4129   3.112   5.384   4.909
   40CHL1  H24B 4130   3.254   5.496   4.889
   40CHL1   C25 4131   3.216   5.363   4.730
   40CHL1   H25 4132   3.232   5.254   4.722
   40CHL1   C26 4133   3.083   5.396   4.664
   40CHL1  H26A 4134   3.059   5.504   4.652
   40CHL1  H26B 4135   3.089   5.345   4.565
   40CHL1  H26C 4136   2.997   5.350   4.716
   40CHL1   C27 4137   3.334   5.442   4.666
   40CHL1  H27A 4138   3.312   5.550   4.676
   40CHL1  H27B 4139   3.434   5.411   4.702
   40CHL1  H27C 4140   3.342   5.426   4.556
   41CHL1    C3 4141   6.543   5.346   5.732
   41CHL1    H3 4142   6.458   5.280   5.705
   41CHL1    O3 4143   6.545   5.370   5.871
   41CHL1   H3' 4144   6.610   5.435   5.898
   41CHL1    C4 4145   6.683   5.290   5.681
   41CHL1   H4A 4146   6.757   5.350   5.738
   41CHL1   H4B 4147   6.696   5.189   5.725
   41CHL1    C5 4148   6.701   5.288   5.529
   41CHL1    C6 4149   6.724   5.177   5.464
   41CHL1    H6 4150   6.763   5.088   5.517
   41CHL1    C7 4151   6.721   5.167   5.306
   41CHL1   H7A 4152   6.812   5.112   5.274
   41CHL1   H7B 4153   6.631   5.107   5.283
   41CHL1    C8 4154   6.727   5.304   5.242
   41CHL1    H8 4155   6.832   5.341   5.247
   41CHL1   C14 4156   6.680   5.290   5.097
   41CHL1   H14 4157   6.576   5.252   5.101
   41CHL1   C15 4158   6.750   5.183   5.015
   41CHL1  H15A 4159   6.861   5.190   5.020
   41CHL1  H15B 4160   6.721   5.078   5.037
   41CHL1   C16 4161   6.725   5.230   4.874
   41CHL1  H16A 4162   6.824   5.255   4.831
   41CHL1  H16B 4163   6.677   5.152   4.810
   41CHL1   C17 4164   6.643   5.364   4.882
   41CHL1   H17 4165   6.539   5.330   4.899
   41CHL1   C13 4166   6.688   5.419   5.018
   41CHL1   C18 4167   6.832   5.469   5.012
   41CHL1  H18A 4168   6.891   5.402   4.946
   41CHL1  H18B 4169   6.842   5.571   4.969
   41CHL1  H18C 4170   6.885   5.476   5.110
   41CHL1   C12 4171   6.599   5.526   5.081
   41CHL1  H12A 4172   6.624   5.619   5.026
   41CHL1  H12B 4173   6.489   5.516   5.070
   41CHL1   C11 4174   6.644   5.548   5.229
   41CHL1  H11A 4175   6.741   5.603   5.233
   41CHL1  H11B 4176   6.568   5.619   5.268
   41CHL1    C9 4177   6.637   5.413   5.302
   41CHL1    H9 4178   6.534   5.372   5.294
   41CHL1   C10 4179   6.660   5.426   5.455
   41CHL1   C19 4180   6.775   5.520   5.478
   41CHL1  H19A 4181   6.737   5.621   5.450
   41CHL1  H19B 4182   6.799   5.532   5.586
   41CHL1  H19C 4183   6.870   5.480   5.436
   41CHL1    C1 4184   6.518   5.469   5.520
   41CHL1   H1A 4185   6.489   5.570   5.484
   41CHL1   H1B 4186   6.437   5.398   5.495
   41CHL1    C2 4187   6.520   5.486   5.671
   41CHL1   H2A 4188   6.414   5.512   5.692
   41CHL1   H2B 4189   6.597   5.558   5.704
   41CHL1   C20 4190   6.638   5.452   4.753
   41CHL1   H20 4191   6.731   5.511   4.750
   41CHL1   C21 4192   6.516   5.544   4.760
   41CHL1  H21A 4193   6.487   5.582   4.660
   41CHL1  H21B 4194   6.524   5.632   4.827
   41CHL1  H21C 4195   6.433   5.482   4.800
   41CHL1   C22 4196   6.634   5.364   4.623
   41CHL1  H22A 4197   6.723   5.298   4.627
   41CHL1  H22B 4198   6.544   5.299   4.619
   41CHL1   C23 4199   6.652   5.463   4.502
   41CHL1  H23A 4200   6.565   5.527   4.476
   41CHL1  H23B 4201   6.742   5.525   4.521
   41CHL1   C24 4202   6.687   5.387   4.379
   41CHL1  H24A 4203   6.775   5.326   4.410
   41CHL1  H24B 4204   6.601   5.322   4.351
   41CHL1   C25 4205   6.716   5.467   4.250
   41CHL1   H25 4206   6.796   5.541   4.271
   41CHL1   C26 4207   6.744   5.365   4.144
   41CHL1  H26A 4208   6.807   5.403   4.060
   41CHL1  H26B 4209   6.800   5.281   4.190
   41CHL1  H26C 4210   6.648   5.323   4.108
   41CHL1   C27 4211   6.596   5.562   4.211
   41CHL1  H27A 4212   6.611   5.605   4.110
   41CHL1  H27B 4213   6.499   5.509   4.216
   41CHL1  H27C 4214   6.605   5.645   4.285
   42CHL1    C3 4215   5.574   0.024   5.900
   42CHL1    H3 4216   5.536   0.124   5.870
   42CHL1    O3 4217   5.574   0.009   6.042
   42CHL1   H3' 4218   5.481   0.018   6.066
   42CHL1    C4 4219   5.496  -0.092   5.830
   42CHL1   H4A 4220   5.519  -0.185   5.886
   42CHL1   H4B 4221   5.390  -0.072   5.856
   42CHL1    C5 4222   5.509  -0.106   5.675
   42CHL1    C6 4223   5.399  -0.105   5.598
   42CHL1    H6 4224   5.303  -0.095   5.651
   42CHL1    C7 4225   5.395  -0.113   5.449
   42CHL1   H7A 4226   5.320  -0.192   5.427
   42CHL1   H7B 4227   5.360  -0.018   5.404
   42CHL1    C8 4228   5.534  -0.150   5.390
   42CHL1    H8 4229   5.536  -0.261   5.405
   42CHL1   C14 4230   5.530  -0.114   5.244
   42CHL1   H14 4231   5.508  -0.005   5.248
   42CHL1   C15 4232   5.420  -0.173   5.146
   42CHL1  H15A 4233   5.399  -0.279   5.171
   42CHL1  H15B 4234   5.329  -0.115   5.172
   42CHL1   C16 4235   5.481  -0.152   5.004
   42CHL1  H16A 4236   5.507  -0.248   4.956
   42CHL1  H16B 4237   5.432  -0.080   4.935
   42CHL1   C17 4238   5.624  -0.090   5.026
   42CHL1   H17 4239   5.598   0.016   5.047
   42CHL1   C13 4240   5.660  -0.136   5.170
   42CHL1   C18 4241   5.683  -0.288   5.169
   42CHL1  H18A 4242   5.674  -0.330   5.271
   42CHL1  H18B 4243   5.603  -0.344   5.114
   42CHL1  H18C 4244   5.784  -0.312   5.130
   42CHL1   C12 4245   5.772  -0.062   5.242
   42CHL1  H12A 4246   5.866  -0.083   5.186
   42CHL1  H12B 4247   5.748   0.045   5.225
   42CHL1   C11 4248   5.783  -0.079   5.396
   42CHL1  H11A 4249   5.824  -0.183   5.403
   42CHL1  H11B 4250   5.859  -0.013   5.443
   42CHL1    C9 4251   5.647  -0.070   5.464
   42CHL1    H9 4252   5.619   0.037   5.453
   42CHL1   C10 4253   5.651  -0.098   5.622
   42CHL1   C19 4254   5.725  -0.229   5.655
   42CHL1  H19A 4255   5.678  -0.322   5.618
   42CHL1  H19B 4256   5.826  -0.233   5.608
   42CHL1  H19C 4257   5.732  -0.251   5.763
   42CHL1    C1 4258   5.721   0.016   5.698
   42CHL1   H1A 4259   5.818   0.038   5.648
   42CHL1   H1B 4260   5.663   0.105   5.663
   42CHL1    C2 4261   5.721   0.003   5.853
   42CHL1   H2A 4262   5.784   0.084   5.895
   42CHL1   H2B 4263   5.769  -0.092   5.885
   42CHL1   C20 4264   5.732  -0.103   4.918
   42CHL1   H20 4265   5.802  -0.186   4.942
   42CHL1   C21 4266   5.810   0.026   4.926
   42CHL1  H21A 4267   5.894   0.048   4.856
   42CHL1  H21B 4268   5.846   0.041   5.030
   42CHL1  H21C 4269   5.743   0.114   4.916
   42CHL1   C22 4270   5.664  -0.121   4.778
   42CHL1  H22A 4271   5.601  -0.212   4.781
   42CHL1  H22B 4272   5.595  -0.037   4.756
   42CHL1   C23 4273   5.769  -0.121   4.667
   42CHL1  H23A 4274   5.816  -0.021   4.652
   42CHL1  H23B 4275   5.855  -0.188   4.689
   42CHL1   C24 4276   5.707  -0.170   4.537
   42CHL1  H24A 4277   5.699  -0.281   4.535
   42CHL1  H24B 4278   5.604  -0.131   4.527
   42CHL1   C25 4279   5.787  -0.120   4.408
   42CHL1   H25 4280   5.735  -0.174   4.326
   42CHL1   C26 4281   5.758   0.024   4.384
   42CHL1  H26A 4282   5.652   0.051   4.402
   42CHL1  H26B 4283   5.823   0.080   4.455
   42CHL1  H26C 4284   5.779   0.049   4.277
   42CHL1   C27 4285   5.941  -0.150   4.406
   42CHL1  H27A 4286   5.965  -0.258   4.409
   42CHL1  H27B 4287   5.986  -0.122   4.309
   42CHL1  H27C 4288   5.985  -0.085   4.485
   43CHL1    C3 4289   6.120   3.068   5.968
   43CHL1    H3 4290   6.147   3.174   5.952
   43CHL1    O3 4291   6.069   3.049   6.099
   43CHL1   H3' 4292   6.143   3.051   6.160
   43CHL1    C4 4293   6.006   3.044   5.867
   43CHL1   H4A 4294   5.972   2.943   5.896
   43CHL1   H4B 4295   5.922   3.112   5.892
   43CHL1    C5 4296   6.058   3.050   5.725
   43CHL1    C6 4297   5.996   3.129   5.636
   43CHL1    H6 4298   5.903   3.180   5.666
   43CHL1    C7 4299   6.040   3.135   5.493
   43CHL1   H7A 4300   5.947   3.111   5.439
   43CHL1   H7B 4301   6.077   3.237   5.470
   43CHL1    C8 4302   6.145   3.031   5.446
   43CHL1    H8 4303   6.089   2.939   5.417
   43CHL1   C14 4304   6.223   3.096   5.326
   43CHL1   H14 4305   6.269   3.190   5.364
   43CHL1   C15 4306   6.139   3.130   5.204
   43CHL1  H15A 4307   6.050   3.064   5.192
   43CHL1  H15B 4308   6.096   3.233   5.202
   43CHL1   C16 4309   6.234   3.119   5.080
   43CHL1  H16A 4310   6.202   3.044   5.005
   43CHL1  H16B 4311   6.231   3.218   5.030
   43CHL1   C17 4312   6.371   3.081   5.145
   43CHL1   H17 4313   6.415   3.177   5.182
   43CHL1   C13 4314   6.328   3.004   5.276
   43CHL1   C18 4315   6.278   2.867   5.236
   43CHL1  H18A 4316   6.358   2.802   5.195
   43CHL1  H18B 4317   6.221   2.807   5.311
   43CHL1  H18C 4318   6.214   2.872   5.145
   43CHL1   C12 4319   6.431   2.982   5.382
   43CHL1  H12A 4320   6.509   2.912   5.348
   43CHL1  H12B 4321   6.476   3.077   5.417
   43CHL1   C11 4322   6.365   2.924   5.501
   43CHL1  H11A 4323   6.330   2.820   5.489
   43CHL1  H11B 4324   6.443   2.923   5.581
   43CHL1    C9 4325   6.250   3.009   5.556
   43CHL1    H9 4326   6.304   3.106   5.565
   43CHL1   C10 4327   6.185   2.972   5.690
   43CHL1   C19 4328   6.173   2.819   5.689
   43CHL1  H19A 4329   6.268   2.762   5.681
   43CHL1  H19B 4330   6.128   2.777   5.781
   43CHL1  H19C 4331   6.100   2.790   5.611
   43CHL1    C1 4332   6.288   3.010   5.797
   43CHL1   H1A 4333   6.379   2.952   5.770
   43CHL1   H1B 4334   6.322   3.116   5.792
   43CHL1    C2 4335   6.243   2.981   5.940
   43CHL1   H2A 4336   6.328   3.002   6.009
   43CHL1   H2B 4337   6.235   2.872   5.960
   43CHL1   C20 4338   6.476   3.024   5.048
   43CHL1   H20 4339   6.464   2.915   5.031
   43CHL1   C21 4340   6.610   3.032   5.110
   43CHL1  H21A 4341   6.618   2.978   5.207
   43CHL1  H21B 4342   6.636   3.140   5.124
   43CHL1  H21C 4343   6.678   2.978   5.041
   43CHL1   C22 4344   6.476   3.099   4.915
   43CHL1  H22A 4345   6.380   3.097   4.860
   43CHL1  H22B 4346   6.499   3.207   4.930
   43CHL1   C23 4347   6.577   3.046   4.809
   43CHL1  H23A 4348   6.679   3.065   4.848
   43CHL1  H23B 4349   6.574   2.936   4.819
   43CHL1   C24 4350   6.541   3.109   4.670
   43CHL1  H24A 4351   6.436   3.079   4.651
   43CHL1  H24B 4352   6.546   3.220   4.671
   43CHL1   C25 4353   6.634   3.050   4.557
   43CHL1   H25 4354   6.641   2.941   4.576
   43CHL1   C26 4355   6.559   3.070   4.431
   43CHL1  H26A 4356   6.465   3.010   4.428
   43CHL1  H26B 4357   6.523   3.175   4.426
   43CHL1  H26C 4358   6.624   3.056   4.342
   43CHL1   C27 4359   6.770   3.112   4.565
   43CHL1  H27A 4360   6.839   3.070   4.489
   43CHL1  H27B 4361   6.769   3.222   4.553
   43CHL1  H27C 4362   6.820   3.094   4.663
   44CHL1    C3 4363   0.004   3.901   5.603
   44CHL1    H3 4364   0.057   3.808   5.573
   44CHL1    O3 4365   0.031   3.915   5.738
   44CHL1   H3' 4366   0.005   3.842   5.794
   44CHL1    C4 4367   0.051   4.029   5.531
   44CHL1   H4A 4368  -0.002   4.118   5.571
   44CHL1   H4B 4369   0.155   4.048   5.564
   44CHL1    C5 4370   0.033   4.007   5.385
   44CHL1    C6 4371   0.139   4.002   5.306
   44CHL1    H6 4372   0.239   4.034   5.340
   44CHL1    C7 4373   0.135   3.999   5.150
   44CHL1   H7A 4374   0.198   4.079   5.106
   44CHL1   H7B 4375   0.173   3.903   5.110
   44CHL1    C8 4376  -0.012   4.025   5.102
   44CHL1    H8 4377  -0.033   4.134   5.106
   44CHL1   C14 4378  -0.014   3.980   4.957
   44CHL1   H14 4379   0.014   3.873   4.958
   44CHL1   C15 4380   0.072   4.042   4.850
   44CHL1  H15A 4381   0.059   4.152   4.854
   44CHL1  H15B 4382   0.179   4.021   4.872
   44CHL1   C16 4383   0.015   3.988   4.720
   44CHL1  H16A 4384   0.013   4.070   4.645
   44CHL1  H16B 4385   0.082   3.904   4.694
   44CHL1   C17 4386  -0.129   3.938   4.750
   44CHL1   H17 4387  -0.113   3.828   4.748
   44CHL1   C13 4388  -0.158   3.977   4.894
   44CHL1   C18 4389  -0.207   4.124   4.895
   44CHL1  H18A 4390  -0.150   4.188   4.824
   44CHL1  H18B 4391  -0.313   4.125   4.860
   44CHL1  H18C 4392  -0.210   4.163   4.999
   44CHL1   C12 4393  -0.248   3.882   4.981
   44CHL1  H12A 4394  -0.345   3.886   4.927
   44CHL1  H12B 4395  -0.209   3.778   4.974
   44CHL1   C11 4396  -0.253   3.923   5.130
   44CHL1  H11A 4397  -0.304   4.022   5.130
   44CHL1  H11B 4398  -0.319   3.856   5.189
   44CHL1    C9 4399  -0.109   3.940   5.189
   44CHL1    H9 4400  -0.069   3.837   5.189
   44CHL1   C10 4401  -0.115   3.976   5.343
   44CHL1   C19 4402  -0.207   4.100   5.364
   44CHL1  H19A 4403  -0.311   4.062   5.350
   44CHL1  H19B 4404  -0.191   4.153   5.460
   44CHL1  H19C 4405  -0.195   4.176   5.284
   44CHL1    C1 4406  -0.172   3.869   5.433
   44CHL1   H1A 4407  -0.279   3.847   5.415
   44CHL1   H1B 4408  -0.129   3.774   5.395
   44CHL1    C2 4409  -0.144   3.881   5.579
   44CHL1   H2A 4410  -0.180   3.788   5.628
   44CHL1   H2B 4411  -0.193   3.970   5.624
   44CHL1   C20 4412  -0.225   3.983   4.633
   44CHL1   H20 4413  -0.213   4.092   4.620
   44CHL1   C21 4414  -0.370   3.937   4.658
   44CHL1  H21A 4415  -0.438   3.953   4.572
   44CHL1  H21B 4416  -0.415   3.985   4.748
   44CHL1  H21C 4417  -0.372   3.827   4.673
   44CHL1   C22 4418  -0.181   3.915   4.501
   44CHL1  H22A 4419  -0.089   3.962   4.460
   44CHL1  H22B 4420  -0.169   3.808   4.527
   44CHL1   C23 4421  -0.278   3.933   4.376
   44CHL1  H23A 4422  -0.352   3.850   4.386
   44CHL1  H23B 4423  -0.328   4.032   4.383
   44CHL1   C24 4424  -0.204   3.915   4.240
   44CHL1  H24A 4425  -0.125   3.990   4.222
   44CHL1  H24B 4426  -0.155   3.815   4.237
   44CHL1   C25 4427  -0.296   3.949   4.120
   44CHL1   H25 4428  -0.376   3.873   4.108
   44CHL1   C26 4429  -0.357   4.087   4.110
   44CHL1  H26A 4430  -0.421   4.114   4.196
   44CHL1  H26B 4431  -0.278   4.163   4.093
   44CHL1  H26C 4432  -0.421   4.068   4.021
   44CHL1   C27 4433  -0.202   3.915   3.999
   44CHL1  H27A 4434  -0.121   3.990   3.990
   44CHL1  H27B 4435  -0.148   3.819   4.010
   44CHL1  H27C 4436  -0.255   3.910   3.901
   45CHL1    C3 4437   6.752   4.665   5.896
   45CHL1    H3 4438   6.667   4.594   5.890
   45CHL1    O3 4439   6.776   4.694   6.032
   45CHL1   H3' 4440   6.783   4.790   6.035
   45CHL1    C4 4441   6.879   4.620   5.830
   45CHL1   H4A 4442   6.956   4.699   5.845
   45CHL1   H4B 4443   6.909   4.530   5.889
   45CHL1    C5 4444   6.864   4.585   5.678
   45CHL1    C6 4445   6.892   4.456   5.628
   45CHL1    H6 4446   6.936   4.378   5.691
   45CHL1    C7 4447   6.878   4.424   5.481
   45CHL1   H7A 4448   6.978   4.387   5.450
   45CHL1   H7B 4449   6.809   4.339   5.467
   45CHL1    C8 4450   6.840   4.548   5.396
   45CHL1    H8 4451   6.938   4.598   5.386
   45CHL1   C14 4452   6.780   4.513   5.262
   45CHL1   H14 4453   6.683   4.461   5.283
   45CHL1   C15 4454   6.869   4.423   5.170
   45CHL1  H15A 4455   6.978   4.440   5.155
   45CHL1  H15B 4456   6.870   4.321   5.215
   45CHL1   C16 4457   6.797   4.429   5.040
   45CHL1  H16A 4458   6.862   4.416   4.951
   45CHL1  H16B 4459   6.732   4.339   5.038
   45CHL1   C17 4460   6.708   4.558   5.038
   45CHL1   H17 4461   6.604   4.520   5.047
   45CHL1   C13 4462   6.748   4.634   5.174
   45CHL1   C18 4463   6.873   4.717   5.142
   45CHL1  H18A 4464   6.851   4.808   5.082
   45CHL1  H18B 4465   6.919   4.754   5.236
   45CHL1  H18C 4466   6.943   4.661   5.077
   45CHL1   C12 4467   6.637   4.713   5.247
   45CHL1  H12A 4468   6.587   4.786   5.180
   45CHL1  H12B 4469   6.557   4.636   5.256
   45CHL1   C11 4470   6.674   4.761   5.384
   45CHL1  H11A 4471   6.746   4.845   5.372
   45CHL1  H11B 4472   6.582   4.790   5.438
   45CHL1    C9 4473   6.742   4.644   5.466
   45CHL1    H9 4474   6.660   4.572   5.490
   45CHL1   C10 4475   6.793   4.701   5.604
   45CHL1   C19 4476   6.882   4.821   5.576
   45CHL1  H19A 4477   6.922   4.865   5.671
   45CHL1  H19B 4478   6.975   4.804   5.517
   45CHL1  H19C 4479   6.827   4.909   5.538
   45CHL1    C1 4480   6.671   4.752   5.689
   45CHL1   H1A 4481   6.632   4.845   5.643
   45CHL1   H1B 4482   6.584   4.683   5.681
   45CHL1    C2 4483   6.693   4.786   5.832
   45CHL1   H2A 4484   6.597   4.817   5.878
   45CHL1   H2B 4485   6.767   4.869   5.833
   45CHL1   C20 4486   6.720   4.635   4.898
   45CHL1   H20 4487   6.828   4.654   4.883
   45CHL1   C21 4488   6.646   4.768   4.898
   45CHL1  H21A 4489   6.538   4.752   4.919
   45CHL1  H21B 4490   6.647   4.809   4.795
   45CHL1  H21C 4491   6.679   4.844   4.972
   45CHL1   C22 4492   6.671   4.535   4.790
   45CHL1  H22A 4493   6.689   4.427   4.803
   45CHL1  H22B 4494   6.560   4.545   4.782
   45CHL1   C23 4495   6.732   4.583   4.656
   45CHL1  H23A 4496   6.722   4.693   4.649
   45CHL1  H23B 4497   6.842   4.570   4.645
   45CHL1   C24 4498   6.667   4.513   4.530
   45CHL1  H24A 4499   6.692   4.405   4.542
   45CHL1  H24B 4500   6.558   4.524   4.547
   45CHL1   C25 4501   6.695   4.584   4.395
   45CHL1   H25 4502   6.708   4.692   4.420
   45CHL1   C26 4503   6.823   4.542   4.324
   45CHL1  H26A 4504   6.904   4.554   4.399
   45CHL1  H26B 4505   6.808   4.433   4.315
   45CHL1  H26C 4506   6.838   4.595   4.227
   45CHL1   C27 4507   6.579   4.573   4.297
   45CHL1  H27A 4508   6.490   4.625   4.340
   45CHL1  H27B 4509   6.608   4.620   4.201
   45CHL1  H27C 4510   6.564   4.463   4.289
   46CHL1    C3 4511   1.546   6.072   6.053
   46CHL1    H3 4512   1.505   6.170   6.021
   46CHL1    O3 4513   1.561   6.080   6.195
   46CHL1   H3' 4514   1.489   6.036   6.239
   46CHL1    C4 4515   1.462   5.952   6.022
   46CHL1   H4A 4516   1.506   5.858   6.064
   46CHL1   H4B 4517   1.363   5.960   6.072
   46CHL1    C5 4518   1.429   5.937   5.872
   46CHL1    C6 4519   1.299   5.929   5.832
   46CHL1    H6 4520   1.213   5.927   5.901
   46CHL1    C7 4521   1.262   5.928   5.689
   46CHL1   H7A 4522   1.188   5.849   5.665
   46CHL1   H7B 4523   1.206   6.023   5.671
   46CHL1    C8 4524   1.380   5.924   5.582
   46CHL1    H8 4525   1.415   5.819   5.577
   46CHL1   C14 4526   1.336   5.961   5.441
   46CHL1   H14 4527   1.305   6.067   5.453
   46CHL1   C15 4528   1.216   5.887   5.372
   46CHL1  H15A 4529   1.216   5.776   5.382
   46CHL1  H15B 4530   1.126   5.936   5.413
   46CHL1   C16 4531   1.237   5.912   5.221
   46CHL1  H16A 4532   1.255   5.817   5.166
   46CHL1  H16B 4533   1.150   5.964   5.175
   46CHL1   C17 4534   1.374   5.986   5.207
   46CHL1   H17 4535   1.337   6.091   5.203
   46CHL1   C13 4536   1.448   5.959   5.337
   46CHL1   C18 4537   1.515   5.819   5.333
   46CHL1  H18A 4538   1.442   5.736   5.327
   46CHL1  H18B 4539   1.586   5.802   5.249
   46CHL1  H18C 4540   1.590   5.794   5.412
   46CHL1   C12 4541   1.545   6.071   5.385
   46CHL1  H12A 4542   1.631   6.078   5.316
   46CHL1  H12B 4543   1.491   6.168   5.378
   46CHL1   C11 4544   1.596   6.050   5.529
   46CHL1  H11A 4545   1.668   5.966   5.513
   46CHL1  H11B 4546   1.655   6.139   5.559
   46CHL1    C9 4547   1.488   6.018   5.633
   46CHL1    H9 4548   1.445   6.119   5.649
   46CHL1   C10 4549   1.544   5.969   5.772
   46CHL1   C19 4550   1.617   5.837   5.757
   46CHL1  H19A 4551   1.708   5.841   5.694
   46CHL1  H19B 4552   1.657   5.796   5.852
   46CHL1  H19C 4553   1.553   5.752   5.725
   46CHL1    C1 4554   1.648   6.072   5.834
   46CHL1   H1A 4555   1.739   6.076   5.771
   46CHL1   H1B 4556   1.600   6.171   5.822
   46CHL1    C2 4557   1.676   6.064   5.978
   46CHL1   H2A 4558   1.755   6.141   5.989
   46CHL1   H2B 4559   1.730   5.969   6.000
   46CHL1   C20 4560   1.445   5.962   5.068
   46CHL1   H20 4561   1.480   5.857   5.074
   46CHL1   C21 4562   1.558   6.062   5.057
   46CHL1  H21A 4563   1.542   6.162   5.103
   46CHL1  H21B 4564   1.589   6.083   4.953
   46CHL1  H21C 4565   1.647   6.013   5.103
   46CHL1   C22 4566   1.353   5.966   4.950
   46CHL1  H22A 4567   1.256   5.919   4.979
   46CHL1  H22B 4568   1.336   6.069   4.912
   46CHL1   C23 4569   1.405   5.895   4.822
   46CHL1  H23A 4570   1.492   5.957   4.792
   46CHL1  H23B 4571   1.439   5.790   4.838
   46CHL1   C24 4572   1.300   5.895   4.715
   46CHL1  H24A 4573   1.211   5.833   4.735
   46CHL1  H24B 4574   1.243   5.991   4.713
   46CHL1   C25 4575   1.367   5.853   4.573
   46CHL1   H25 4576   1.455   5.916   4.551
   46CHL1   C26 4577   1.412   5.704   4.572
   46CHL1  H26A 4578   1.483   5.684   4.656
   46CHL1  H26B 4579   1.324   5.637   4.583
   46CHL1  H26C 4580   1.463   5.672   4.479
   46CHL1   C27 4581   1.267   5.867   4.454
   46CHL1  H27A 4582   1.234   5.971   4.437
   46CHL1  H27B 4583   1.316   5.833   4.360
   46CHL1  H27C 4584   1.174   5.810   4.477
   47CHL1    C3 4585   2.826   5.600   6.014
   47CHL1    H3 4586   2.909   5.529   5.993
   47CHL1    O3 4587   2.809   5.609   6.156
   47CHL1   H3' 4588   2.722   5.647   6.166
   47CHL1    C4 4589   2.853   5.743   5.966
   47CHL1   H4A 4590   2.760   5.799   5.990
   47CHL1   H4B 4591   2.939   5.786   6.022
   47CHL1    C5 4592   2.879   5.745   5.819
   47CHL1    C6 4593   2.997   5.788   5.769
   47CHL1    H6 4594   3.071   5.834   5.836
   47CHL1    C7 4595   3.017   5.798   5.619
   47CHL1   H7A 4596   3.073   5.893   5.605
   47CHL1   H7B 4597   3.100   5.732   5.586
   47CHL1    C8 4598   2.892   5.786   5.533
   47CHL1    H8 4599   2.829   5.876   5.549
   47CHL1   C14 4600   2.932   5.773   5.379
   47CHL1   H14 4601   2.996   5.682   5.382
   47CHL1   C15 4602   3.021   5.885   5.322
   47CHL1  H15A 4603   2.983   5.986   5.348
   47CHL1  H15B 4604   3.118   5.888   5.376
   47CHL1   C16 4605   3.019   5.855   5.173
   47CHL1  H16A 4606   3.009   5.948   5.114
   47CHL1  H16B 4607   3.115   5.804   5.152
   47CHL1   C17 4608   2.907   5.745   5.148
   47CHL1   H17 4609   2.954   5.644   5.148
   47CHL1   C13 4610   2.822   5.749   5.283
   47CHL1   C18 4611   2.728   5.886   5.292
   47CHL1  H18A 4612   2.636   5.873   5.232
   47CHL1  H18B 4613   2.691   5.900   5.396
   47CHL1  H18C 4614   2.784   5.969   5.244
   47CHL1   C12 4615   2.745   5.620   5.329
   47CHL1  H12A 4616   2.651   5.604   5.271
   47CHL1  H12B 4617   2.808   5.532   5.306
   47CHL1   C11 4618   2.706   5.616   5.479
   47CHL1  H11A 4619   2.622   5.689   5.485
   47CHL1  H11B 4620   2.666   5.519   5.516
   47CHL1    C9 4621   2.811   5.665   5.587
   47CHL1    H9 4622   2.884   5.582   5.572
   47CHL1   C10 4623   2.766   5.688   5.733
   47CHL1   C19 4624   2.644   5.782   5.738
   47CHL1  H19A 4625   2.666   5.882   5.695
   47CHL1  H19B 4626   2.561   5.741   5.676
   47CHL1  H19C 4627   2.607   5.799   5.841
   47CHL1    C1 4628   2.724   5.551   5.790
   47CHL1   H1A 4629   2.632   5.512   5.742
   47CHL1   H1B 4630   2.804   5.478   5.765
   47CHL1    C2 4631   2.695   5.550   5.944
   47CHL1   H2A 4632   2.680   5.447   5.982
   47CHL1   H2B 4633   2.603   5.601   5.981
   47CHL1   C20 4634   2.833   5.771   5.021
   47CHL1   H20 4635   2.773   5.864   5.027
   47CHL1   C21 4636   2.738   5.652   4.995
   47CHL1  H21A 4637   2.794   5.555   4.992
   47CHL1  H21B 4638   2.680   5.670   4.903
   47CHL1  H21C 4639   2.660   5.648   5.074
   47CHL1   C22 4640   2.925   5.793   4.899
   47CHL1  H22A 4641   2.991   5.881   4.916
   47CHL1  H22B 4642   2.993   5.706   4.886
   47CHL1   C23 4643   2.859   5.816   4.767
   47CHL1  H23A 4644   2.796   5.729   4.736
   47CHL1  H23B 4645   2.798   5.909   4.759
   47CHL1   C24 4646   2.955   5.831   4.640
   47CHL1  H24A 4647   3.010   5.925   4.661
   47CHL1  H24B 4648   3.022   5.742   4.635
   47CHL1   C25 4649   2.884   5.847   4.502
   47CHL1   H25 4650   2.828   5.944   4.497
   47CHL1   C26 4651   2.983   5.858   4.389
   47CHL1  H26A 4652   3.042   5.765   4.406
   47CHL1  H26B 4653   2.930   5.857   4.291
   47CHL1  H26C 4654   3.046   5.949   4.389
   47CHL1   C27 4655   2.782   5.743   4.465
   47CHL1  H27A 4656   2.830   5.642   4.472
   47CHL1  H27B 4657   2.693   5.751   4.531
   47CHL1  H27C 4658   2.734   5.759   4.366
   48CHL1    C3 4659   6.024   6.200   6.233
   48CHL1    H3 4660   6.052   6.094   6.220
   48CHL1    O3 4661   6.023   6.237   6.368
   48CHL1   H3' 4662   5.996   6.329   6.368
   48CHL1    C4 4663   6.129   6.292   6.168
   48CHL1   H4A 4664   6.099   6.399   6.174
   48CHL1   H4B 4665   6.230   6.277   6.213
   48CHL1    C5 4666   6.140   6.269   6.015
   48CHL1    C6 4667   6.253   6.229   5.953
   48CHL1    H6 4668   6.347   6.216   6.009
   48CHL1    C7 4669   6.270   6.201   5.807
   48CHL1   H7A 4670   6.363   6.248   5.769
   48CHL1   H7B 4671   6.294   6.093   5.800
   48CHL1    C8 4672   6.139   6.250   5.727
   48CHL1    H8 4673   6.145   6.360   5.715
   48CHL1   C14 4674   6.136   6.189   5.588
   48CHL1   H14 4675   6.123   6.084   5.623
   48CHL1   C15 4676   6.256   6.214   5.494
   48CHL1  H15A 4677   6.293   6.319   5.498
   48CHL1  H15B 4678   6.348   6.157   5.518
   48CHL1   C16 4679   6.192   6.190   5.351
   48CHL1  H16A 4680   6.205   6.291   5.305
   48CHL1  H16B 4681   6.244   6.113   5.289
   48CHL1   C17 4682   6.043   6.161   5.374
   48CHL1   H17 4683   6.026   6.053   5.391
   48CHL1   C13 4684   6.007   6.221   5.511
   48CHL1   C18 4685   5.988   6.377   5.489
   48CHL1  H18A 4686   6.059   6.406   5.409
   48CHL1  H18B 4687   5.889   6.417   5.458
   48CHL1  H18C 4688   6.010   6.432   5.583
   48CHL1   C12 4689   5.899   6.157   5.587
   48CHL1  H12A 4690   5.803   6.178   5.536
   48CHL1  H12B 4691   5.916   6.047   5.592
   48CHL1   C11 4692   5.883   6.228   5.720
   48CHL1  H11A 4693   5.847   6.332   5.702
   48CHL1  H11B 4694   5.802   6.174   5.773
   48CHL1    C9 4695   6.013   6.214   5.801
   48CHL1    H9 4696   6.032   6.105   5.814
   48CHL1   C10 4697   6.001   6.275   5.938
   48CHL1   C19 4698   5.949   6.421   5.915
   48CHL1  H19A 4699   5.979   6.486   6.000
   48CHL1  H19B 4700   5.986   6.486   5.832
   48CHL1  H19C 4701   5.839   6.414   5.907
   48CHL1    C1 4702   5.895   6.197   6.018
   48CHL1   H1A 4703   5.797   6.189   5.967
   48CHL1   H1B 4704   5.926   6.090   6.016
   48CHL1    C2 4705   5.887   6.227   6.171
   48CHL1   H2A 4706   5.817   6.155   6.219
   48CHL1   H2B 4707   5.845   6.329   6.182
   48CHL1   C20 4708   5.962   6.210   5.248
   48CHL1   H20 4709   5.966   6.321   5.247
   48CHL1   C21 4710   5.815   6.170   5.268
   48CHL1  H21A 4711   5.761   6.251   5.321
   48CHL1  H21B 4712   5.755   6.158   5.176
   48CHL1  H21C 4713   5.815   6.075   5.327
   48CHL1   C22 4714   6.017   6.166   5.111
   48CHL1  H22A 4715   6.127   6.152   5.103
   48CHL1  H22B 4716   5.963   6.077   5.070
   48CHL1   C23 4717   5.985   6.269   4.996
   48CHL1  H23A 4718   5.876   6.287   5.008
   48CHL1  H23B 4719   6.036   6.365   5.017
   48CHL1   C24 4720   6.021   6.234   4.851
   48CHL1  H24A 4721   6.130   6.251   4.841
   48CHL1  H24B 4722   6.001   6.125   4.839
   48CHL1   C25 4723   5.941   6.314   4.740
   48CHL1   H25 4724   5.979   6.419   4.739
   48CHL1   C26 4725   5.990   6.254   4.608
   48CHL1  H26A 4726   6.100   6.258   4.594
   48CHL1  H26B 4727   5.966   6.147   4.626
   48CHL1  H26C 4728   5.931   6.292   4.522
   48CHL1   C27 4729   5.787   6.294   4.756
   48CHL1  H27A 4730   5.755   6.335   4.855
   48CHL1  H27B 4731   5.739   6.353   4.676
   48CHL1  H27C 4732   5.766   6.187   4.734
   49CHL1    C3 4733   3.949   5.445   2.561
   49CHL1    H3 4734   4.051   5.405   2.578
   49CHL1    O3 4735   3.932   5.473   2.421
   49CHL1   H3' 4736   3.843   5.506   2.411
   49CHL1    C4 4737   3.855   5.330   2.604
   49CHL1   H4A 4738   3.751   5.340   2.566
   49CHL1   H4B 4739   3.893   5.237   2.556
   49CHL1    C5 4740   3.858   5.326   2.761
   49CHL1    C6 4741   3.876   5.213   2.830
   49CHL1    H6 4742   3.882   5.114   2.783
   49CHL1    C7 4743   3.857   5.208   2.981
   49CHL1   H7A 4744   3.813   5.110   3.007
   49CHL1   H7B 4745   3.960   5.208   3.023
   49CHL1    C8 4746   3.787   5.328   3.052
   49CHL1    H8 4747   3.678   5.327   3.031
   49CHL1   C14 4748   3.815   5.332   3.205
   49CHL1   H14 4749   3.924   5.355   3.208
   49CHL1   C15 4750   3.801   5.205   3.292
   49CHL1  H15A 4751   3.702   5.159   3.268
   49CHL1  H15B 4752   3.881   5.131   3.269
   49CHL1   C16 4753   3.808   5.266   3.437
   49CHL1  H16A 4754   3.726   5.229   3.502
   49CHL1  H16B 4755   3.910   5.243   3.472
   49CHL1   C17 4756   3.796   5.421   3.419
   49CHL1   H17 4757   3.900   5.461   3.425
   49CHL1   C13 4758   3.750   5.452   3.278
   49CHL1   C18 4759   3.593   5.441   3.271
   49CHL1  H18A 4760   3.543   5.508   3.345
   49CHL1  H18B 4761   3.564   5.472   3.168
   49CHL1  H18C 4762   3.557   5.336   3.278
   49CHL1   C12 4763   3.809   5.577   3.221
   49CHL1  H12A 4764   3.760   5.669   3.260
   49CHL1  H12B 4765   3.918   5.586   3.242
   49CHL1   C11 4766   3.798   5.588   3.066
   49CHL1  H11A 4767   3.687   5.600   3.063
   49CHL1  H11B 4768   3.843   5.683   3.028
   49CHL1    C9 4769   3.844   5.461   2.993
   49CHL1    H9 4770   3.953   5.452   3.009
   49CHL1   C10 4771   3.830   5.465   2.838
   49CHL1   C19 4772   3.686   5.509   2.802
   49CHL1  H19A 4773   3.661   5.609   2.842
   49CHL1  H19B 4774   3.670   5.515   2.692
   49CHL1  H19C 4775   3.604   5.441   2.834
   49CHL1    C1 4776   3.934   5.573   2.790
   49CHL1   H1A 4777   3.915   5.677   2.826
   49CHL1   H1B 4778   4.039   5.548   2.816
   49CHL1    C2 4779   3.921   5.578   2.633
   49CHL1   H2A 4780   4.000   5.647   2.596
   49CHL1   H2B 4781   3.826   5.625   2.598
   49CHL1   C20 4782   3.727   5.486   3.541
   49CHL1   H20 4783   3.619   5.460   3.528
   49CHL1   C21 4784   3.736   5.642   3.529
   49CHL1  H21A 4785   3.833   5.675   3.485
   49CHL1  H21B 4786   3.711   5.685   3.629
   49CHL1  H21C 4787   3.667   5.677   3.449
   49CHL1   C22 4788   3.769   5.414   3.680
   49CHL1  H22A 4789   3.750   5.305   3.684
   49CHL1  H22B 4790   3.880   5.423   3.682
   49CHL1   C23 4791   3.704   5.487   3.796
   49CHL1  H23A 4792   3.730   5.595   3.793
   49CHL1  H23B 4793   3.594   5.469   3.800
   49CHL1   C24 4794   3.769   5.430   3.923
   49CHL1  H24A 4795   3.755   5.319   3.920
   49CHL1  H24B 4796   3.876   5.457   3.920
   49CHL1   C25 4797   3.697   5.480   4.054
   49CHL1   H25 4798   3.587   5.486   4.040
   49CHL1   C26 4799   3.717   5.389   4.162
   49CHL1  H26A 4800   3.676   5.288   4.138
   49CHL1  H26B 4801   3.823   5.377   4.193
   49CHL1  H26C 4802   3.653   5.421   4.246
   49CHL1   C27 4803   3.742   5.627   4.079
   49CHL1  H27A 4804   3.690   5.665   4.170
   49CHL1  H27B 4805   3.850   5.652   4.086
   49CHL1  H27C 4806   3.701   5.688   3.995
   50CHL1    C3 4807   3.320   2.548   2.781
   50CHL1    H3 4808   3.411   2.514   2.834
   50CHL1    O3 4809   3.329   2.517   2.641
   50CHL1   H3' 4810   3.239   2.512   2.608
   50CHL1    C4 4811   3.201   2.475   2.850
   50CHL1   H4A 4812   3.115   2.520   2.795
   50CHL1   H4B 4813   3.199   2.366   2.829
   50CHL1    C5 4814   3.179   2.519   2.991
   50CHL1    C6 4815   3.177   2.418   3.080
   50CHL1    H6 4816   3.193   2.317   3.041
   50CHL1    C7 4817   3.150   2.441   3.230
   50CHL1   H7A 4818   3.066   2.380   3.269
   50CHL1   H7B 4819   3.241   2.421   3.291
   50CHL1    C8 4820   3.121   2.592   3.264
   50CHL1    H8 4821   3.016   2.615   3.235
   50CHL1   C14 4822   3.153   2.625   3.408
   50CHL1   H14 4823   3.262   2.603   3.410
   50CHL1   C15 4824   3.099   2.532   3.518
   50CHL1  H15A 4825   2.992   2.513   3.496
   50CHL1  H15B 4826   3.154   2.436   3.527
   50CHL1   C16 4827   3.124   2.615   3.646
   50CHL1  H16A 4828   3.031   2.620   3.707
   50CHL1  H16B 4829   3.197   2.564   3.713
   50CHL1   C17 4830   3.170   2.758   3.600
   50CHL1   H17 4831   3.279   2.754   3.579
   50CHL1   C13 4832   3.124   2.768   3.453
   50CHL1   C18 4833   2.977   2.795   3.445
   50CHL1  H18A 4834   2.939   2.895   3.476
   50CHL1  H18B 4835   2.949   2.785   3.339
   50CHL1  H18C 4836   2.910   2.725   3.499
   50CHL1   C12 4837   3.203   2.861   3.362
   50CHL1  H12A 4838   3.203   2.970   3.383
   50CHL1  H12B 4839   3.311   2.837   3.362
   50CHL1   C11 4840   3.174   2.840   3.214
   50CHL1  H11A 4841   3.065   2.853   3.196
   50CHL1  H11B 4842   3.239   2.913   3.160
   50CHL1    C9 4843   3.203   2.690   3.168
   50CHL1    H9 4844   3.311   2.671   3.190
   50CHL1   C10 4845   3.171   2.669   3.020
   50CHL1   C19 4846   3.026   2.705   2.990
   50CHL1  H19A 4847   2.997   2.645   2.901
   50CHL1  H19B 4848   2.952   2.673   3.066
   50CHL1  H19C 4849   3.013   2.812   2.960
   50CHL1    C1 4850   3.267   2.752   2.935
   50CHL1   H1A 4851   3.239   2.859   2.938
   50CHL1   H1B 4852   3.362   2.744   2.992
   50CHL1    C2 4853   3.287   2.700   2.789
   50CHL1   H2A 4854   3.374   2.751   2.743
   50CHL1   H2B 4855   3.194   2.739   2.743
   50CHL1   C20 4856   3.149   2.881   3.693
   50CHL1   H20 4857   3.168   2.977   3.641
   50CHL1   C21 4858   3.258   2.875   3.803
   50CHL1  H21A 4859   3.258   2.780   3.860
   50CHL1  H21B 4860   3.244   2.966   3.864
   50CHL1  H21C 4861   3.356   2.885   3.751
   50CHL1   C22 4862   3.011   2.888   3.769
   50CHL1  H22A 4863   2.926   2.875   3.699
   50CHL1  H22B 4864   3.010   2.807   3.846
   50CHL1   C23 4865   2.993   3.024   3.833
   50CHL1  H23A 4866   3.074   3.051   3.903
   50CHL1  H23B 4867   2.995   3.095   3.747
   50CHL1   C24 4868   2.858   3.033   3.903
   50CHL1  H24A 4869   2.775   3.014   3.830
   50CHL1  H24B 4870   2.843   2.962   3.987
   50CHL1   C25 4871   2.836   3.170   3.973
   50CHL1   H25 4872   2.734   3.156   4.014
   50CHL1   C26 4873   2.923   3.210   4.093
   50CHL1  H26A 4874   2.894   3.142   4.176
   50CHL1  H26B 4875   3.030   3.194   4.070
   50CHL1  H26C 4876   2.899   3.315   4.121
   50CHL1   C27 4877   2.829   3.277   3.865
   50CHL1  H27A 4878   2.922   3.304   3.812
   50CHL1  H27B 4879   2.758   3.251   3.784
   50CHL1  H27C 4880   2.780   3.364   3.914
   51CHL1    C3 4881   3.060   4.125   2.660
   51CHL1    H3 4882   2.986   4.050   2.694
   51CHL1    O3 4883   3.047   4.131   2.515
   51CHL1   H3' 4884   2.984   4.197   2.486
   51CHL1    C4 4885   3.024   4.261   2.715
   51CHL1   H4A 4886   3.068   4.349   2.664
   51CHL1   H4B 4887   2.914   4.266   2.697
   51CHL1    C5 4888   3.054   4.271   2.862
   51CHL1    C6 4889   2.962   4.302   2.950
   51CHL1    H6 4890   2.866   4.346   2.921
   51CHL1    C7 4891   2.979   4.296   3.102
   51CHL1   H7A 4892   2.939   4.384   3.157
   51CHL1   H7B 4893   2.923   4.207   3.137
   51CHL1    C8 4894   3.132   4.292   3.144
   51CHL1    H8 4895   3.178   4.392   3.129
   51CHL1   C14 4896   3.144   4.240   3.293
   51CHL1   H14 4897   3.100   4.138   3.294
   51CHL1   C15 4898   3.068   4.320   3.400
   51CHL1  H15A 4899   3.097   4.426   3.383
   51CHL1  H15B 4900   2.957   4.316   3.389
   51CHL1   C16 4901   3.129   4.261   3.531
   51CHL1  H16A 4902   3.143   4.341   3.607
   51CHL1  H16B 4903   3.068   4.177   3.570
   51CHL1   C17 4904   3.261   4.190   3.490
   51CHL1   H17 4905   3.244   4.080   3.498
   51CHL1   C13 4906   3.291   4.221   3.342
   51CHL1   C18 4907   3.366   4.361   3.327
   51CHL1  H18A 4908   3.471   4.356   3.363
   51CHL1  H18B 4909   3.392   4.380   3.221
   51CHL1  H18C 4910   3.309   4.447   3.370
   51CHL1   C12 4911   3.354   4.108   3.257
   51CHL1  H12A 4912   3.461   4.101   3.285
   51CHL1  H12B 4913   3.305   4.017   3.297
   51CHL1   C11 4914   3.346   4.147   3.107
   51CHL1  H11A 4915   3.421   4.221   3.071
   51CHL1  H11B 4916   3.372   4.050   3.057
   51CHL1    C9 4917   3.202   4.184   3.061
   51CHL1    H9 4918   3.143   4.092   3.080
   51CHL1   C10 4919   3.185   4.200   2.908
   51CHL1   C19 4920   3.288   4.311   2.866
   51CHL1  H19A 4921   3.286   4.400   2.932
   51CHL1  H19B 4922   3.389   4.265   2.873
   51CHL1  H19C 4923   3.273   4.349   2.763
   51CHL1    C1 4924   3.222   4.070   2.841
   51CHL1   H1A 4925   3.323   4.026   2.855
   51CHL1   H1B 4926   3.164   3.979   2.869
   51CHL1    C2 4927   3.197   4.074   2.688
   51CHL1   H2A 4928   3.193   3.972   2.645
   51CHL1   H2B 4929   3.275   4.135   2.638
   51CHL1   C20 4930   3.380   4.205   3.600
   51CHL1   H20 4931   3.404   4.312   3.611
   51CHL1   C21 4932   3.495   4.125   3.548
   51CHL1  H21A 4933   3.469   4.020   3.522
   51CHL1  H21B 4934   3.573   4.120   3.627
   51CHL1  H21C 4935   3.551   4.176   3.468
   51CHL1   C22 4936   3.342   4.156   3.745
   51CHL1  H22A 4937   3.411   4.198   3.821
   51CHL1  H22B 4938   3.250   4.209   3.778
   51CHL1   C23 4939   3.318   3.999   3.754
   51CHL1  H23A 4940   3.253   3.964   3.671
   51CHL1  H23B 4941   3.411   3.939   3.746
   51CHL1   C24 4942   3.243   3.970   3.883
   51CHL1  H24A 4943   3.288   4.038   3.957
   51CHL1  H24B 4944   3.135   3.989   3.864
   51CHL1   C25 4945   3.254   3.827   3.932
   51CHL1   H25 4946   3.362   3.802   3.930
   51CHL1   C26 4947   3.208   3.808   4.081
   51CHL1  H26A 4948   3.200   3.705   4.121
   51CHL1  H26B 4949   3.278   3.873   4.138
   51CHL1  H26C 4950   3.103   3.844   4.083
   51CHL1   C27 4951   3.168   3.729   3.859
   51CHL1  H27A 4952   3.061   3.758   3.862
   51CHL1  H27B 4953   3.205   3.717   3.755
   51CHL1  H27C 4954   3.188   3.631   3.908
   52CHL1    C3 4955   2.400   4.831   2.560
   52CHL1    H3 4956   2.450   4.929   2.574
   52CHL1    O3 4957   2.386   4.818   2.418
   52CHL1   H3' 4958   2.389   4.727   2.388
   52CHL1    C4 4959   2.487   4.715   2.614
   52CHL1   H4A 4960   2.451   4.618   2.575
   52CHL1   H4B 4961   2.587   4.719   2.565
   52CHL1    C5 4962   2.499   4.712   2.765
   52CHL1    C6 4963   2.625   4.705   2.821
   52CHL1    H6 4964   2.718   4.704   2.761
   52CHL1    C7 4965   2.652   4.713   2.971
   52CHL1   H7A 4966   2.739   4.649   2.995
   52CHL1   H7B 4967   2.678   4.820   2.987
   52CHL1    C8 4968   2.522   4.692   3.057
   52CHL1    H8 4969   2.506   4.584   3.078
   52CHL1   C14 4970   2.530   4.749   3.199
   52CHL1   H14 4971   2.537   4.858   3.178
   52CHL1   C15 4972   2.661   4.708   3.273
   52CHL1  H15A 4973   2.680   4.601   3.250
   52CHL1  H15B 4974   2.744   4.769   3.230
   52CHL1   C16 4975   2.633   4.735   3.420
   52CHL1  H16A 4976   2.661   4.652   3.488
   52CHL1  H16B 4977   2.698   4.822   3.446
   52CHL1   C17 4978   2.489   4.785   3.432
   52CHL1   H17 4979   2.487   4.896   3.427
   52CHL1   C13 4980   2.417   4.734   3.300
   52CHL1   C18 4981   2.378   4.585   3.312
   52CHL1  H18A 4982   2.462   4.522   3.346
   52CHL1  H18B 4983   2.297   4.578   3.388
   52CHL1  H18C 4984   2.343   4.551   3.212
   52CHL1   C12 4985   2.301   4.819   3.238
   52CHL1  H12A 4986   2.203   4.813   3.289
   52CHL1  H12B 4987   2.326   4.927   3.253
   52CHL1   C11 4988   2.279   4.781   3.087
   52CHL1  H11A 4989   2.236   4.679   3.089
   52CHL1  H11B 4990   2.204   4.854   3.048
   52CHL1    C9 4991   2.400   4.767   2.989
   52CHL1    H9 4992   2.439   4.871   2.982
   52CHL1   C10 4993   2.367   4.731   2.845
   52CHL1   C19 4994   2.300   4.590   2.840
   52CHL1  H19A 4995   2.200   4.603   2.885
   52CHL1  H19B 4996   2.275   4.557   2.737
   52CHL1  H19C 4997   2.366   4.511   2.883
   52CHL1    C1 4998   2.273   4.837   2.773
   52CHL1   H1A 4999   2.176   4.829   2.827
   52CHL1   H1B 5000   2.327   4.933   2.792
   52CHL1    C2 5001   2.256   4.827   2.625
   52CHL1   H2A 5002   2.202   4.920   2.597
   52CHL1   H2B 5003   2.200   4.739   2.587
   52CHL1   C20 5004   2.419   4.745   3.565
   52CHL1   H20 5005   2.408   4.635   3.578
   52CHL1   C21 5006   2.278   4.808   3.562
   52CHL1  H21A 5007   2.241   4.829   3.665
   52CHL1  H21B 5008   2.208   4.734   3.516
   52CHL1  H21C 5009   2.274   4.900   3.500
   52CHL1   C22 5010   2.489   4.793   3.696
   52CHL1  H22A 5011   2.598   4.773   3.700
   52CHL1  H22B 5012   2.474   4.903   3.692
   52CHL1   C23 5013   2.446   4.728   3.831
   52CHL1  H23A 5014   2.338   4.750   3.844
   52CHL1  H23B 5015   2.460   4.619   3.814
   52CHL1   C24 5016   2.537   4.777   3.953
   52CHL1  H24A 5017   2.636   4.740   3.921
   52CHL1  H24B 5018   2.546   4.888   3.956
   52CHL1   C25 5019   2.503   4.713   4.088
   52CHL1   H25 5020   2.393   4.709   4.104
   52CHL1   C26 5021   2.561   4.573   4.093
   52CHL1  H26A 5022   2.537   4.519   4.000
   52CHL1  H26B 5023   2.672   4.579   4.083
   52CHL1  H26C 5024   2.538   4.510   4.182
   52CHL1   C27 5025   2.559   4.808   4.192
   52CHL1  H27A 5026   2.556   4.761   4.293
   52CHL1  H27B 5027   2.657   4.854   4.167
   52CHL1  H27C 5028   2.492   4.896   4.185
   53CHL1    C3 5029   1.729   4.753   2.668
   53CHL1    H3 5030   1.652   4.828   2.696
   53CHL1    O3 5031   1.727   4.724   2.527
   53CHL1   H3' 5032   1.804   4.666   2.524
   53CHL1    C4 5033   1.866   4.794   2.720
   53CHL1   H4A 5034   1.935   4.710   2.695
   53CHL1   H4B 5035   1.905   4.887   2.673
   53CHL1    C5 5036   1.854   4.817   2.875
   53CHL1    C6 5037   1.885   4.930   2.930
   53CHL1    H6 5038   1.917   5.015   2.868
   53CHL1    C7 5039   1.872   4.955   3.072
   53CHL1   H7A 5040   1.956   5.019   3.107
   53CHL1   H7B 5041   1.779   5.014   3.088
   53CHL1    C8 5042   1.868   4.835   3.163
   53CHL1    H8 5043   1.967   4.787   3.172
   53CHL1   C14 5044   1.807   4.880   3.300
   53CHL1   H14 5045   1.705   4.920   3.282
   53CHL1   C15 5046   1.880   4.995   3.385
   53CHL1  H15A 5047   1.990   4.988   3.400
   53CHL1  H15B 5048   1.856   5.094   3.340
   53CHL1   C16 5049   1.813   4.987   3.517
   53CHL1  H16A 5050   1.879   4.974   3.606
   53CHL1  H16B 5051   1.741   5.068   3.539
   53CHL1   C17 5052   1.723   4.861   3.504
   53CHL1   H17 5053   1.628   4.903   3.466
   53CHL1   C13 5054   1.786   4.770   3.394
   53CHL1   C18 5055   1.924   4.705   3.439
   53CHL1  H18A 5056   1.909   4.648   3.534
   53CHL1  H18B 5057   1.955   4.641   3.355
   53CHL1  H18C 5058   2.001   4.784   3.449
   53CHL1   C12 5059   1.687   4.664   3.334
   53CHL1  H12A 5060   1.677   4.577   3.403
   53CHL1  H12B 5061   1.586   4.711   3.331
   53CHL1   C11 5062   1.738   4.626   3.195
   53CHL1  H11A 5063   1.831   4.569   3.211
   53CHL1  H11B 5064   1.661   4.562   3.145
   53CHL1    C9 5065   1.766   4.744   3.100
   53CHL1    H9 5066   1.671   4.800   3.102
   53CHL1   C10 5067   1.796   4.701   2.962
   53CHL1   C19 5068   1.907   4.594   2.967
   53CHL1  H19A 5069   1.948   4.580   2.864
   53CHL1  H19B 5070   1.990   4.619   3.036
   53CHL1  H19C 5071   1.848   4.503   2.992
   53CHL1    C1 5072   1.672   4.642   2.884
   53CHL1   H1A 5073   1.660   4.548   2.942
   53CHL1   H1B 5074   1.585   4.711   2.877
   53CHL1    C2 5075   1.694   4.615   2.738
   53CHL1   H2A 5076   1.602   4.581   2.685
   53CHL1   H2B 5077   1.774   4.539   2.723
   53CHL1   C20 5078   1.673   4.787   3.641
   53CHL1   H20 5079   1.745   4.705   3.660
   53CHL1   C21 5080   1.525   4.729   3.629
   53CHL1  H21A 5081   1.477   4.682   3.717
   53CHL1  H21B 5082   1.515   4.665   3.539
   53CHL1  H21C 5083   1.467   4.818   3.595
   53CHL1   C22 5084   1.686   4.880   3.764
   53CHL1  H22A 5085   1.671   4.982   3.722
   53CHL1  H22B 5086   1.601   4.855   3.832
   53CHL1   C23 5087   1.806   4.869   3.858
   53CHL1  H23A 5088   1.896   4.868   3.792
   53CHL1  H23B 5089   1.810   4.955   3.927
   53CHL1   C24 5090   1.794   4.741   3.948
   53CHL1  H24A 5091   1.699   4.755   4.004
   53CHL1  H24B 5092   1.786   4.651   3.883
   53CHL1   C25 5093   1.909   4.721   4.045
   53CHL1   H25 5094   1.913   4.619   4.088
   53CHL1   C26 5095   2.044   4.743   3.980
   53CHL1  H26A 5096   2.062   4.849   3.954
   53CHL1  H26B 5097   2.129   4.706   4.041
   53CHL1  H26C 5098   2.050   4.696   3.879
   53CHL1   C27 5099   1.896   4.812   4.163
   53CHL1  H27A 5100   1.997   4.835   4.203
   53CHL1  H27B 5101   1.852   4.909   4.132
   53CHL1  H27C 5102   1.806   4.774   4.216
   54CHL1    C3 5103   2.430   5.919   2.589
   54CHL1    H3 5104   2.382   6.019   2.598
   54CHL1    O3 5105   2.450   5.903   2.446
   54CHL1   H3' 5106   2.488   5.816   2.436
   54CHL1    C4 5107   2.570   5.924   2.653
   54CHL1   H4A 5108   2.634   5.843   2.611
   54CHL1   H4B 5109   2.626   6.016   2.627
   54CHL1    C5 5110   2.575   5.900   2.804
   54CHL1    C6 5111   2.659   5.965   2.888
   54CHL1    H6 5112   2.725   6.043   2.846
   54CHL1    C7 5113   2.676   5.936   3.032
   54CHL1   H7A 5114   2.783   5.904   3.029
   54CHL1   H7B 5115   2.644   6.030   3.082
   54CHL1    C8 5116   2.585   5.818   3.082
   54CHL1    H8 5117   2.646   5.728   3.060
   54CHL1   C14 5118   2.547   5.830   3.234
   54CHL1   H14 5119   2.468   5.909   3.234
   54CHL1   C15 5120   2.661   5.866   3.333
   54CHL1  H15A 5121   2.753   5.817   3.295
   54CHL1  H15B 5122   2.676   5.975   3.316
   54CHL1   C16 5123   2.606   5.832   3.475
   54CHL1  H16A 5124   2.675   5.765   3.532
   54CHL1  H16B 5125   2.590   5.923   3.536
   54CHL1   C17 5126   2.467   5.760   3.443
   54CHL1   H17 5127   2.390   5.840   3.442
   54CHL1   C13 5128   2.476   5.708   3.298
   54CHL1   C18 5129   2.556   5.585   3.284
   54CHL1  H18A 5130   2.507   5.496   3.329
   54CHL1  H18B 5131   2.580   5.557   3.179
   54CHL1  H18C 5132   2.659   5.585   3.326
   54CHL1   C12 5133   2.343   5.687   3.215
   54CHL1  H12A 5134   2.286   5.601   3.256
   54CHL1  H12B 5135   2.280   5.777   3.232
   54CHL1   C11 5136   2.366   5.681   3.067
   54CHL1  H11A 5137   2.425   5.589   3.046
   54CHL1  H11B 5138   2.269   5.674   3.014
   54CHL1    C9 5139   2.451   5.802   3.006
   54CHL1    H9 5140   2.385   5.890   3.023
   54CHL1   C10 5141   2.478   5.790   2.854
   54CHL1   C19 5142   2.553   5.661   2.818
   54CHL1  H19A 5143   2.651   5.645   2.868
   54CHL1  H19B 5144   2.489   5.572   2.832
   54CHL1  H19C 5145   2.584   5.665   2.711
   54CHL1    C1 5146   2.341   5.804   2.794
   54CHL1   H1A 5147   2.280   5.717   2.824
   54CHL1   H1B 5148   2.293   5.899   2.825
   54CHL1    C2 5149   2.342   5.806   2.638
   54CHL1   H2A 5150   2.241   5.814   2.594
   54CHL1   H2B 5151   2.383   5.709   2.602
   54CHL1   C20 5152   2.431   5.670   3.561
   54CHL1   H20 5153   2.519   5.604   3.576
   54CHL1   C21 5154   2.303   5.586   3.532
   54CHL1  H21A 5155   2.219   5.656   3.515
   54CHL1  H21B 5156   2.283   5.515   3.615
   54CHL1  H21C 5157   2.315   5.523   3.442
   54CHL1   C22 5158   2.408   5.759   3.690
   54CHL1  H22A 5159   2.470   5.851   3.701
   54CHL1  H22B 5160   2.304   5.796   3.680
   54CHL1   C23 5161   2.423   5.679   3.813
   54CHL1  H23A 5162   2.362   5.587   3.806
   54CHL1  H23B 5163   2.527   5.645   3.833
   54CHL1   C24 5164   2.400   5.756   3.946
   54CHL1  H24A 5165   2.476   5.837   3.952
   54CHL1  H24B 5166   2.307   5.814   3.933
   54CHL1   C25 5167   2.412   5.667   4.074
   54CHL1   H25 5168   2.381   5.722   4.165
   54CHL1   C26 5169   2.323   5.543   4.072
   54CHL1  H26A 5170   2.338   5.488   4.168
   54CHL1  H26B 5171   2.215   5.564   4.053
   54CHL1  H26C 5172   2.352   5.489   3.980
   54CHL1   C27 5173   2.566   5.635   4.098
   54CHL1  H27A 5174   2.572   5.609   4.206
   54CHL1  H27B 5175   2.596   5.552   4.030
   54CHL1  H27C 5176   2.626   5.727   4.081
   55CHL1    C3 5177   4.289   1.743   2.846
   55CHL1    H3 5178   4.280   1.853   2.856
   55CHL1    O3 5179   4.297   1.731   2.708
   55CHL1   H3' 5180   4.217   1.776   2.679
   55CHL1    C4 5181   4.428   1.694   2.893
   55CHL1   H4A 5182   4.441   1.590   2.856
   55CHL1   H4B 5183   4.510   1.746   2.840
   55CHL1    C5 5184   4.447   1.690   3.044
   55CHL1    C6 5185   4.546   1.758   3.100
   55CHL1    H6 5186   4.632   1.787   3.038
   55CHL1    C7 5187   4.584   1.756   3.241
   55CHL1   H7A 5188   4.693   1.745   3.257
   55CHL1   H7B 5189   4.566   1.849   3.299
   55CHL1    C8 5190   4.493   1.657   3.320
   55CHL1    H8 5191   4.527   1.552   3.302
   55CHL1   C14 5192   4.501   1.683   3.470
   55CHL1   H14 5193   4.461   1.785   3.488
   55CHL1   C15 5194   4.637   1.685   3.549
   55CHL1  H15A 5195   4.703   1.603   3.511
   55CHL1  H15B 5196   4.697   1.777   3.533
   55CHL1   C16 5197   4.596   1.656   3.693
   55CHL1  H16A 5198   4.648   1.561   3.720
   55CHL1  H16B 5199   4.632   1.726   3.772
   55CHL1   C17 5200   4.441   1.638   3.698
   55CHL1   H17 5201   4.381   1.731   3.702
   55CHL1   C13 5202   4.417   1.590   3.553
   55CHL1   C18 5203   4.477   1.443   3.539
   55CHL1  H18A 5204   4.570   1.426   3.596
   55CHL1  H18B 5205   4.399   1.375   3.579
   55CHL1  H18C 5206   4.473   1.408   3.433
   55CHL1   C12 5207   4.266   1.598   3.507
   55CHL1  H12A 5208   4.195   1.538   3.569
   55CHL1  H12B 5209   4.232   1.703   3.521
   55CHL1   C11 5210   4.250   1.574   3.355
   55CHL1  H11A 5211   4.282   1.468   3.346
   55CHL1  H11B 5212   4.146   1.590   3.321
   55CHL1    C9 5213   4.348   1.664   3.268
   55CHL1    H9 5214   4.311   1.768   3.281
   55CHL1   C10 5215   4.330   1.628   3.115
   55CHL1   C19 5216   4.327   1.478   3.098
   55CHL1  H19A 5217   4.233   1.437   3.142
   55CHL1  H19B 5218   4.325   1.448   2.991
   55CHL1  H19C 5219   4.410   1.428   3.152
   55CHL1    C1 5220   4.197   1.689   3.068
   55CHL1   H1A 5221   4.110   1.641   3.117
   55CHL1   H1B 5222   4.190   1.794   3.106
   55CHL1    C2 5223   4.174   1.665   2.911
   55CHL1   H2A 5224   4.076   1.714   2.887
   55CHL1   H2B 5225   4.166   1.557   2.890
   55CHL1   C20 5226   4.398   1.554   3.809
   55CHL1   H20 5227   4.406   1.447   3.780
   55CHL1   C21 5228   4.252   1.589   3.841
   55CHL1  H21A 5229   4.246   1.696   3.870
   55CHL1  H21B 5230   4.223   1.525   3.928
   55CHL1  H21C 5231   4.179   1.574   3.759
   55CHL1   C22 5232   4.494   1.565   3.935
   55CHL1  H22A 5233   4.590   1.517   3.908
   55CHL1  H22B 5234   4.521   1.672   3.951
   55CHL1   C23 5235   4.449   1.495   4.059
   55CHL1  H23A 5236   4.358   1.548   4.094
   55CHL1  H23B 5237   4.429   1.388   4.035
   55CHL1   C24 5238   4.558   1.494   4.172
   55CHL1  H24A 5239   4.638   1.567   4.148
   55CHL1  H24B 5240   4.506   1.531   4.262
   55CHL1   C25 5241   4.633   1.360   4.197
   55CHL1   H25 5242   4.549   1.289   4.215
   55CHL1   C26 5243   4.722   1.316   4.078
   55CHL1  H26A 5244   4.765   1.214   4.084
   55CHL1  H26B 5245   4.665   1.339   3.986
   55CHL1  H26C 5246   4.811   1.383   4.068
   55CHL1   C27 5247   4.716   1.386   4.324
   55CHL1  H27A 5248   4.743   1.287   4.367
   55CHL1  H27B 5249   4.810   1.440   4.302
   55CHL1  H27C 5250   4.654   1.440   4.398
   56CHL1    C3 5251   6.245   2.469   3.150
   56CHL1    H3 5252   6.347   2.499   3.185
   56CHL1    O3 5253   6.254   2.435   3.010
   56CHL1   H3' 5254   6.170   2.399   2.982
   56CHL1    C4 5255   6.195   2.345   3.225
   56CHL1   H4A 5256   6.093   2.329   3.185
   56CHL1   H4B 5257   6.259   2.259   3.195
   56CHL1    C5 5258   6.183   2.361   3.375
   56CHL1    C6 5259   6.248   2.281   3.464
   56CHL1    H6 5260   6.311   2.199   3.425
   56CHL1    C7 5261   6.240   2.299   3.612
   56CHL1   H7A 5262   6.241   2.204   3.671
   56CHL1   H7B 5263   6.334   2.353   3.634
   56CHL1    C8 5264   6.137   2.400   3.657
   56CHL1    H8 5265   6.034   2.358   3.660
   56CHL1   C14 5266   6.174   2.448   3.802
   56CHL1   H14 5267   6.277   2.490   3.793
   56CHL1   C15 5268   6.175   2.346   3.915
   56CHL1  H15A 5269   6.074   2.300   3.928
   56CHL1  H15B 5270   6.241   2.258   3.931
   56CHL1   C16 5271   6.200   2.441   4.032
   56CHL1  H16A 5272   6.164   2.388   4.122
   56CHL1  H16B 5273   6.310   2.443   4.044
   56CHL1   C17 5274   6.144   2.579   3.998
   56CHL1   H17 5275   6.238   2.636   3.982
   56CHL1   C13 5276   6.087   2.563   3.854
   56CHL1   C18 5277   5.936   2.521   3.866
   56CHL1  H18A 5278   5.894   2.468   3.778
   56CHL1  H18B 5279   5.929   2.443   3.945
   56CHL1  H18C 5280   5.868   2.606   3.885
   56CHL1   C12 5281   6.103   2.686   3.759
   56CHL1  H12A 5282   6.053   2.777   3.797
   56CHL1  H12B 5283   6.210   2.715   3.767
   56CHL1   C11 5284   6.055   2.643   3.616
   56CHL1  H11A 5285   5.945   2.624   3.619
   56CHL1  H11B 5286   6.079   2.734   3.557
   56CHL1    C9 5287   6.138   2.523   3.562
   56CHL1    H9 5288   6.246   2.551   3.563
   56CHL1   C10 5289   6.109   2.481   3.419
   56CHL1   C19 5290   5.961   2.459   3.414
   56CHL1  H19A 5291   5.930   2.370   3.474
   56CHL1  H19B 5292   5.890   2.544   3.422
   56CHL1  H19C 5293   5.946   2.412   3.315
   56CHL1    C1 5294   6.153   2.609   3.326
   56CHL1   H1A 5295   6.073   2.685   3.340
   56CHL1   H1B 5296   6.257   2.629   3.358
   56CHL1    C2 5297   6.154   2.585   3.173
   56CHL1   H2A 5298   6.187   2.674   3.117
   56CHL1   H2B 5299   6.053   2.554   3.139
   56CHL1   C20 5300   6.062   2.654   4.106
   56CHL1   H20 5301   5.963   2.604   4.115
   56CHL1   C21 5302   6.024   2.798   4.058
   56CHL1  H21A 5303   5.955   2.838   4.136
   56CHL1  H21B 5304   5.962   2.809   3.966
   56CHL1  H21C 5305   6.114   2.862   4.053
   56CHL1   C22 5306   6.120   2.662   4.244
   56CHL1  H22A 5307   6.047   2.715   4.309
   56CHL1  H22B 5308   6.128   2.559   4.285
   56CHL1   C23 5309   6.255   2.748   4.248
   56CHL1  H23A 5310   6.314   2.726   4.156
   56CHL1  H23B 5311   6.235   2.857   4.237
   56CHL1   C24 5312   6.336   2.737   4.376
   56CHL1  H24A 5313   6.421   2.805   4.353
   56CHL1  H24B 5314   6.285   2.778   4.465
   56CHL1   C25 5315   6.377   2.588   4.412
   56CHL1   H25 5316   6.289   2.525   4.390
   56CHL1   C26 5317   6.489   2.551   4.310
   56CHL1  H26A 5318   6.559   2.637   4.297
   56CHL1  H26B 5319   6.543   2.462   4.349
   56CHL1  H26C 5320   6.444   2.523   4.213
   56CHL1   C27 5321   6.415   2.582   4.563
   56CHL1  H27A 5322   6.480   2.664   4.600
   56CHL1  H27B 5323   6.329   2.590   4.633
   56CHL1  H27C 5324   6.461   2.482   4.573
   57CHL1    C3 5325   5.035   0.816   2.523
   57CHL1    H3 5326   4.981   0.727   2.561
   57CHL1    O3 5327   5.003   0.844   2.389
   57CHL1   H3' 5328   5.010   0.761   2.340
   57CHL1    C4 5329   4.984   0.941   2.600
   57CHL1   H4A 5330   5.024   1.031   2.548
   57CHL1   H4B 5331   4.874   0.950   2.607
   57CHL1    C5 5332   5.032   0.925   2.741
   57CHL1    C6 5333   4.939   0.930   2.844
   57CHL1    H6 5334   4.836   0.948   2.809
   57CHL1    C7 5335   4.964   0.928   2.995
   57CHL1   H7A 5336   4.926   1.023   3.037
   57CHL1   H7B 5337   4.915   0.836   3.034
   57CHL1    C8 5338   5.117   0.928   3.018
   57CHL1    H8 5339   5.152   1.034   3.017
   57CHL1   C14 5340   5.138   0.864   3.162
   57CHL1   H14 5341   5.103   0.759   3.166
   57CHL1   C15 5342   5.063   0.930   3.287
   57CHL1  H15A 5343   5.073   1.039   3.270
   57CHL1  H15B 5344   4.959   0.890   3.294
   57CHL1   C16 5345   5.143   0.893   3.411
   57CHL1  H16A 5346   5.177   0.987   3.461
   57CHL1  H16B 5347   5.078   0.827   3.473
   57CHL1   C17 5348   5.260   0.807   3.361
   57CHL1   H17 5349   5.223   0.703   3.357
   57CHL1   C13 5350   5.283   0.855   3.212
   57CHL1   C18 5351   5.351   0.993   3.210
   57CHL1  H18A 5352   5.310   1.057   3.291
   57CHL1  H18B 5353   5.461   1.003   3.224
   57CHL1  H18C 5354   5.329   1.057   3.121
   57CHL1   C12 5355   5.357   0.772   3.111
   57CHL1  H12A 5356   5.463   0.768   3.142
   57CHL1  H12B 5357   5.319   0.667   3.111
   57CHL1   C11 5358   5.342   0.831   2.964
   57CHL1  H11A 5359   5.409   0.919   2.957
   57CHL1  H11B 5360   5.396   0.753   2.906
   57CHL1    C9 5361   5.197   0.850   2.915
   57CHL1    H9 5362   5.148   0.752   2.931
   57CHL1   C10 5363   5.184   0.893   2.764
   57CHL1   C19 5364   5.266   1.024   2.741
   57CHL1  H19A 5365   5.370   0.993   2.763
   57CHL1  H19B 5366   5.260   1.057   2.635
   57CHL1  H19C 5367   5.237   1.103   2.814
   57CHL1    C1 5368   5.229   0.781   2.669
   57CHL1   H1A 5369   5.340   0.779   2.677
   57CHL1   H1B 5370   5.196   0.686   2.716
   57CHL1    C2 5371   5.191   0.803   2.523
   57CHL1   H2A 5372   5.225   0.717   2.462
   57CHL1   H2B 5373   5.226   0.899   2.479
   57CHL1   C20 5374   5.391   0.807   3.450
   57CHL1   H20 5375   5.434   0.910   3.450
   57CHL1   C21 5376   5.500   0.699   3.421
   57CHL1  H21A 5377   5.446   0.603   3.404
   57CHL1  H21B 5378   5.574   0.689   3.503
   57CHL1  H21C 5379   5.553   0.739   3.332
   57CHL1   C22 5380   5.361   0.801   3.606
   57CHL1  H22A 5381   5.450   0.826   3.668
   57CHL1  H22B 5382   5.288   0.878   3.638
   57CHL1   C23 5383   5.324   0.665   3.667
   57CHL1  H23A 5384   5.251   0.615   3.599
   57CHL1  H23B 5385   5.409   0.594   3.679
   57CHL1   C24 5386   5.270   0.691   3.805
   57CHL1  H24A 5387   5.352   0.743   3.859
   57CHL1  H24B 5388   5.179   0.754   3.810
   57CHL1   C25 5389   5.230   0.566   3.883
   57CHL1   H25 5390   5.322   0.503   3.893
   57CHL1   C26 5391   5.182   0.597   4.027
   57CHL1  H26A 5392   5.160   0.502   4.080
   57CHL1  H26B 5393   5.265   0.661   4.065
   57CHL1  H26C 5394   5.098   0.669   4.020
   57CHL1   C27 5395   5.122   0.482   3.812
   57CHL1  H27A 5396   5.135   0.453   3.705
   57CHL1  H27B 5397   5.094   0.398   3.878
   57CHL1  H27C 5398   5.025   0.535   3.815
   58CHL1    C3 5399   3.803   1.494   2.965
   58CHL1    H3 5400   3.910   1.508   2.938
   58CHL1    O3 5401   3.735   1.476   2.839
   58CHL1   H3' 5402   3.652   1.433   2.865
   58CHL1    C4 5403   3.799   1.364   3.039
   58CHL1   H4A 5404   3.693   1.332   3.030
   58CHL1   H4B 5405   3.859   1.289   2.983
   58CHL1    C5 5406   3.829   1.379   3.188
   58CHL1    C6 5407   3.925   1.306   3.237
   58CHL1    H6 5408   3.990   1.241   3.175
   58CHL1    C7 5409   3.964   1.309   3.378
   58CHL1   H7A 5410   3.969   1.200   3.401
   58CHL1   H7B 5411   4.061   1.363   3.383
   58CHL1    C8 5412   3.857   1.381   3.472
   58CHL1    H8 5413   3.776   1.305   3.469
   58CHL1   C14 5414   3.909   1.396   3.611
   58CHL1   H14 5415   4.004   1.455   3.606
   58CHL1   C15 5416   3.945   1.272   3.692
   58CHL1  H15A 5417   3.865   1.198   3.669
   58CHL1  H15B 5418   4.045   1.230   3.667
   58CHL1   C16 5419   3.928   1.314   3.838
   58CHL1  H16A 5420   3.852   1.248   3.886
   58CHL1  H16B 5421   4.022   1.303   3.896
   58CHL1   C17 5422   3.892   1.464   3.836
   58CHL1   H17 5423   3.986   1.521   3.824
   58CHL1   C13 5424   3.816   1.486   3.702
   58CHL1   C18 5425   3.676   1.428   3.712
   58CHL1  H18A 5426   3.604   1.499   3.758
   58CHL1  H18B 5427   3.640   1.403   3.610
   58CHL1  H18C 5428   3.678   1.330   3.765
   58CHL1   C12 5429   3.815   1.629   3.644
   58CHL1  H12A 5430   3.757   1.695   3.712
   58CHL1  H12B 5431   3.919   1.667   3.640
   58CHL1   C11 5432   3.745   1.620   3.505
   58CHL1  H11A 5433   3.638   1.594   3.518
   58CHL1  H11B 5434   3.739   1.724   3.467
   58CHL1    C9 5435   3.820   1.520   3.409
   58CHL1    H9 5436   3.915   1.577   3.392
   58CHL1   C10 5437   3.756   1.494   3.265
   58CHL1   C19 5438   3.608   1.449   3.281
   58CHL1  H19A 5439   3.565   1.426   3.182
   58CHL1  H19B 5440   3.608   1.353   3.338
   58CHL1  H19C 5441   3.542   1.512   3.344
   58CHL1    C1 5442   3.770   1.627   3.181
   58CHL1   H1A 5443   3.705   1.704   3.228
   58CHL1   H1B 5444   3.876   1.661   3.189
   58CHL1    C2 5445   3.732   1.614   3.032
   58CHL1   H2A 5446   3.762   1.713   2.991
   58CHL1   H2B 5447   3.623   1.598   3.035
   58CHL1   C20 5448   3.834   1.516   3.964
   58CHL1   H20 5449   3.794   1.619   3.951
   58CHL1   C21 5450   3.958   1.534   4.062
   58CHL1  H21A 5451   3.924   1.586   4.154
   58CHL1  H21B 5452   4.029   1.605   4.013
   58CHL1  H21C 5453   4.008   1.437   4.083
   58CHL1   C22 5454   3.734   1.419   4.032
   58CHL1  H22A 5455   3.670   1.359   3.963
   58CHL1  H22B 5456   3.795   1.338   4.078
   58CHL1   C23 5457   3.647   1.490   4.131
   58CHL1  H23A 5458   3.715   1.491   4.219
   58CHL1  H23B 5459   3.630   1.595   4.098
   58CHL1   C24 5460   3.512   1.420   4.162
   58CHL1  H24A 5461   3.458   1.421   4.064
   58CHL1  H24B 5462   3.524   1.316   4.198
   58CHL1   C25 5463   3.422   1.501   4.260
   58CHL1   H25 5464   3.382   1.595   4.216
   58CHL1   C26 5465   3.298   1.416   4.287
   58CHL1  H26A 5466   3.223   1.467   4.352
   58CHL1  H26B 5467   3.236   1.415   4.195
   58CHL1  H26C 5468   3.327   1.318   4.331
   58CHL1   C27 5469   3.491   1.532   4.395
   58CHL1  H27A 5470   3.521   1.435   4.442
   58CHL1  H27B 5471   3.572   1.608   4.394
   58CHL1  H27C 5472   3.417   1.577   4.465
   59CHL1    C3 5473   3.214   0.644   2.780
   59CHL1    H3 5474   3.272   0.738   2.783
   59CHL1    O3 5475   3.197   0.607   2.643
   59CHL1   H3' 5476   3.272   0.655   2.607
   59CHL1    C4 5477   3.297   0.539   2.866
   59CHL1   H4A 5478   3.254   0.438   2.852
   59CHL1   H4B 5479   3.399   0.534   2.821
   59CHL1    C5 5480   3.286   0.567   3.016
   59CHL1    C6 5481   3.391   0.584   3.095
   59CHL1    H6 5482   3.491   0.583   3.050
   59CHL1    C7 5483   3.389   0.602   3.243
   59CHL1   H7A 5484   3.460   0.532   3.292
   59CHL1   H7B 5485   3.413   0.703   3.283
   59CHL1    C8 5486   3.256   0.561   3.305
   59CHL1    H8 5487   3.249   0.451   3.306
   59CHL1   C14 5488   3.247   0.607   3.446
   59CHL1   H14 5489   3.261   0.718   3.445
   59CHL1   C15 5490   3.361   0.558   3.530
   59CHL1  H15A 5491   3.374   0.453   3.497
   59CHL1  H15B 5492   3.452   0.619   3.515
   59CHL1   C16 5493   3.307   0.570   3.670
   59CHL1  H16A 5494   3.307   0.472   3.723
   59CHL1  H16B 5495   3.359   0.638   3.742
   59CHL1   C17 5496   3.162   0.634   3.656
   59CHL1   H17 5497   3.169   0.745   3.653
   59CHL1   C13 5498   3.119   0.584   3.520
   59CHL1   C18 5499   3.083   0.433   3.527
   59CHL1  H18A 5500   3.166   0.383   3.581
   59CHL1  H18B 5501   2.991   0.413   3.586
   59CHL1  H18C 5502   3.079   0.398   3.421
   59CHL1   C12 5503   3.008   0.659   3.439
   59CHL1  H12A 5504   2.909   0.641   3.485
   59CHL1  H12B 5505   3.026   0.769   3.436
   59CHL1   C11 5506   3.004   0.607   3.296
   59CHL1  H11A 5507   2.961   0.504   3.294
   59CHL1  H11B 5508   2.920   0.658   3.244
   59CHL1    C9 5509   3.142   0.619   3.223
   59CHL1    H9 5510   3.157   0.729   3.220
   59CHL1   C10 5511   3.145   0.575   3.072
   59CHL1   C19 5512   3.072   0.434   3.070
   59CHL1  H19A 5513   2.963   0.449   3.084
   59CHL1  H19B 5514   3.084   0.380   2.974
   59CHL1  H19C 5515   3.106   0.373   3.157
   59CHL1    C1 5516   3.066   0.675   2.988
   59CHL1   H1A 5517   2.959   0.667   3.016
   59CHL1   H1B 5518   3.091   0.781   3.008
   59CHL1    C2 5519   3.071   0.659   2.836
   59CHL1   H2A 5520   3.026   0.749   2.789
   59CHL1   H2B 5521   3.014   0.567   2.813
   59CHL1   C20 5522   3.072   0.593   3.775
   59CHL1   H20 5523   3.051   0.484   3.772
   59CHL1   C21 5524   2.943   0.678   3.772
   59CHL1  H21A 5525   2.876   0.634   3.696
   59CHL1  H21B 5526   2.966   0.782   3.740
   59CHL1  H21C 5527   2.890   0.664   3.869
   59CHL1   C22 5528   3.152   0.606   3.906
   59CHL1  H22A 5529   3.085   0.572   3.987
   59CHL1  H22B 5530   3.223   0.523   3.889
   59CHL1   C23 5531   3.200   0.744   3.951
   59CHL1  H23A 5532   3.273   0.793   3.883
   59CHL1  H23B 5533   3.113   0.812   3.961
   59CHL1   C24 5534   3.268   0.732   4.092
   59CHL1  H24A 5535   3.209   0.664   4.157
   59CHL1  H24B 5536   3.359   0.678   4.060
   59CHL1   C25 5537   3.319   0.864   4.155
   59CHL1   H25 5538   3.359   0.927   4.073
   59CHL1   C26 5539   3.194   0.946   4.204
   59CHL1  H26A 5540   3.132   0.908   4.288
   59CHL1  H26B 5541   3.227   1.045   4.243
   59CHL1  H26C 5542   3.116   0.960   4.126
   59CHL1   C27 5543   3.430   0.835   4.264
   59CHL1  H27A 5544   3.387   0.756   4.329
   59CHL1  H27B 5545   3.517   0.789   4.213
   59CHL1  H27C 5546   3.465   0.920   4.327
   60CHL1    C3 5547   4.803   5.996   2.784
   60CHL1    H3 5548   4.837   6.094   2.745
   60CHL1    O3 5549   4.776   5.904   2.679
   60CHL1   H3' 5550   4.699   5.945   2.640
   60CHL1    C4 5551   4.927   5.942   2.869
   60CHL1   H4A 5552   4.905   5.834   2.881
   60CHL1   H4B 5553   5.011   5.942   2.797
   60CHL1    C5 5554   4.954   6.019   2.995
   60CHL1    C6 5555   5.083   6.048   3.019
   60CHL1    H6 5556   5.166   6.016   2.954
   60CHL1    C7 5557   5.120   6.133   3.139
   60CHL1   H7A 5558   5.206   6.087   3.193
   60CHL1   H7B 5559   5.143   6.230   3.091
   60CHL1    C8 5560   5.011   6.151   3.252
   60CHL1    H8 5561   5.003   6.054   3.306
   60CHL1   C14 5562   5.032   6.269   3.342
   60CHL1   H14 5563   5.023   6.345   3.261
   60CHL1   C15 5564   5.168   6.297   3.412
   60CHL1  H15A 5565   5.202   6.212   3.476
   60CHL1  H15B 5566   5.236   6.331   3.331
   60CHL1   C16 5567   5.142   6.408   3.514
   60CHL1  H16A 5568   5.193   6.394   3.612
   60CHL1  H16B 5569   5.181   6.505   3.476
   60CHL1   C17 5570   4.988   6.418   3.524
   60CHL1   H17 5571   4.969   6.507   3.460
   60CHL1   C13 5572   4.929   6.298   3.454
   60CHL1   C18 5573   4.936   6.168   3.548
   60CHL1  H18A 5574   4.871   6.187   3.636
   60CHL1  H18B 5575   4.902   6.073   3.501
   60CHL1  H18C 5576   5.039   6.146   3.584
   60CHL1   C12 5577   4.793   6.315   3.378
   60CHL1  H12A 5578   4.707   6.326   3.447
   60CHL1  H12B 5579   4.805   6.412   3.325
   60CHL1   C11 5580   4.755   6.202   3.283
   60CHL1  H11A 5581   4.742   6.112   3.347
   60CHL1  H11B 5582   4.658   6.213   3.231
   60CHL1    C9 5583   4.869   6.167   3.185
   60CHL1    H9 5584   4.872   6.252   3.113
   60CHL1   C10 5585   4.832   6.054   3.083
   60CHL1   C19 5586   4.794   5.931   3.164
   60CHL1  H19A 5587   4.878   5.901   3.230
   60CHL1  H19B 5588   4.710   5.951   3.233
   60CHL1  H19C 5589   4.766   5.837   3.111
   60CHL1    C1 5590   4.708   6.099   2.998
   60CHL1   H1A 5591   4.615   6.099   3.059
   60CHL1   H1B 5592   4.721   6.203   2.959
   60CHL1    C2 5593   4.681   6.009   2.878
   60CHL1   H2A 5594   4.596   6.052   2.822
   60CHL1   H2B 5595   4.643   5.909   2.908
   60CHL1   C20 5596   4.942   6.457   3.663
   60CHL1   H20 5597   4.969   6.379   3.738
   60CHL1   C21 5598   4.791   6.491   3.661
   60CHL1  H21A 5599   4.754   6.516   3.762
   60CHL1  H21B 5600   4.732   6.403   3.629
   60CHL1  H21C 5601   4.759   6.572   3.592
   60CHL1   C22 5602   5.020   6.590   3.707
   60CHL1  H22A 5603   5.127   6.589   3.676
   60CHL1  H22B 5604   4.967   6.674   3.657
   60CHL1   C23 5605   5.024   6.610   3.858
   60CHL1  H23A 5606   4.918   6.602   3.888
   60CHL1  H23B 5607   5.083   6.530   3.908
   60CHL1   C24 5608   5.069   6.753   3.903
   60CHL1  H24A 5609   5.012   6.827   3.843
   60CHL1  H24B 5610   5.045   6.777   4.009
   60CHL1   C25 5611   5.222   6.782   3.881
   60CHL1   H25 5612   5.255   6.758   3.778
   60CHL1   C26 5613   5.247   6.935   3.890
   60CHL1  H26A 5614   5.355   6.954   3.876
   60CHL1  H26B 5615   5.190   6.988   3.811
   60CHL1  H26C 5616   5.214   6.968   3.991
   60CHL1   C27 5617   5.310   6.686   3.979
   60CHL1  H27A 5618   5.305   6.580   3.946
   60CHL1  H27B 5619   5.417   6.716   3.974
   60CHL1  H27C 5620   5.269   6.680   4.082
   61CHL1    C3 5621   5.509   1.847   2.945
   61CHL1    H3 5622   5.463   1.949   2.948
   61CHL1    O3 5623   5.482   1.798   2.811
   61CHL1   H3' 5624   5.545   1.849   2.761
   61CHL1    C4 5625   5.664   1.849   2.964
   61CHL1   H4A 5626   5.704   1.746   2.956
   61CHL1   H4B 5627   5.699   1.917   2.884
   61CHL1    C5 5628   5.695   1.902   3.103
   61CHL1    C6 5629   5.777   2.006   3.126
   61CHL1    H6 5630   5.823   2.059   3.041
   61CHL1    C7 5631   5.813   2.056   3.263
   61CHL1   H7A 5632   5.921   2.082   3.270
   61CHL1   H7B 5633   5.750   2.148   3.271
   61CHL1    C8 5634   5.788   1.949   3.370
   61CHL1    H8 5635   5.861   1.868   3.350
   61CHL1   C14 5636   5.811   2.012   3.503
   61CHL1   H14 5637   5.753   2.107   3.504
   61CHL1   C15 5638   5.950   2.067   3.534
   61CHL1  H15A 5639   6.014   1.986   3.493
   61CHL1  H15B 5640   5.979   2.167   3.495
   61CHL1   C16 5641   5.961   2.077   3.688
   61CHL1  H16A 5642   6.050   2.017   3.714
   61CHL1  H16B 5643   5.966   2.186   3.712
   61CHL1   C17 5644   5.827   2.021   3.745
   61CHL1   H17 5645   5.752   2.103   3.751
   61CHL1   C13 5646   5.775   1.931   3.633
   61CHL1   C18 5647   5.854   1.802   3.634
   61CHL1  H18A 5648   5.855   1.753   3.534
   61CHL1  H18B 5649   5.960   1.814   3.664
   61CHL1  H18C 5650   5.819   1.729   3.710
   61CHL1   C12 5651   5.630   1.903   3.620
   61CHL1  H12A 5652   5.592   1.831   3.696
   61CHL1  H12B 5653   5.570   1.997   3.620
   61CHL1   C11 5654   5.595   1.826   3.487
   61CHL1  H11A 5655   5.643   1.726   3.483
   61CHL1  H11B 5656   5.486   1.806   3.480
   61CHL1    C9 5657   5.641   1.902   3.361
   61CHL1    H9 5658   5.576   1.992   3.356
   61CHL1   C10 5659   5.623   1.827   3.222
   61CHL1   C19 5660   5.690   1.689   3.221
   61CHL1  H19A 5661   5.798   1.682   3.244
   61CHL1  H19B 5662   5.636   1.636   3.303
   61CHL1  H19C 5663   5.666   1.626   3.132
   61CHL1    C1 5664   5.474   1.810   3.186
   61CHL1   H1A 5665   5.423   1.733   3.247
   61CHL1   H1B 5666   5.414   1.903   3.193
   61CHL1    C2 5667   5.449   1.756   3.046
   61CHL1   H2A 5668   5.340   1.745   3.030
   61CHL1   H2B 5669   5.491   1.654   3.031
   61CHL1   C20 5670   5.837   1.965   3.886
   61CHL1   H20 5671   5.893   1.869   3.889
   61CHL1   C21 5672   5.699   1.935   3.940
   61CHL1  H21A 5673   5.642   2.029   3.924
   61CHL1  H21B 5674   5.698   1.910   4.048
   61CHL1  H21C 5675   5.651   1.847   3.892
   61CHL1   C22 5676   5.913   2.058   3.986
   61CHL1  H22A 5677   6.020   2.065   3.957
   61CHL1  H22B 5678   5.850   2.149   3.972
   61CHL1   C23 5679   5.910   2.023   4.134
   61CHL1  H23A 5680   5.808   2.032   4.176
   61CHL1  H23B 5681   5.938   1.916   4.145
   61CHL1   C24 5682   6.012   2.116   4.204
   61CHL1  H24A 5683   6.117   2.093   4.177
   61CHL1  H24B 5684   5.999   2.225   4.190
   61CHL1   C25 5685   6.016   2.107   4.360
   61CHL1   H25 5686   6.002   2.001   4.391
   61CHL1   C26 5687   6.142   2.166   4.427
   61CHL1  H26A 5688   6.166   2.273   4.406
   61CHL1  H26B 5689   6.148   2.158   4.537
   61CHL1  H26C 5690   6.224   2.102   4.388
   61CHL1   C27 5691   5.887   2.170   4.425
   61CHL1  H27A 5692   5.903   2.170   4.535
   61CHL1  H27B 5693   5.873   2.274   4.389
   61CHL1  H27C 5694   5.801   2.106   4.395
   62CHL1    C3 5695   0.360   2.182   2.603
   62CHL1    H3 5696   0.385   2.284   2.639
   62CHL1    O3 5697   0.374   2.180   2.460
   62CHL1   H3' 5698   0.370   2.085   2.442
   62CHL1    C4 5699   0.451   2.082   2.669
   62CHL1   H4A 5700   0.437   1.979   2.632
   62CHL1   H4B 5701   0.554   2.109   2.638
   62CHL1    C5 5702   0.453   2.089   2.817
   62CHL1    C6 5703   0.566   2.114   2.886
   62CHL1    H6 5704   0.661   2.132   2.833
   62CHL1    C7 5705   0.580   2.133   3.033
   62CHL1   H7A 5706   0.664   2.075   3.078
   62CHL1   H7B 5707   0.600   2.240   3.053
   62CHL1    C8 5708   0.454   2.080   3.115
   62CHL1    H8 5709   0.463   1.971   3.130
   62CHL1   C14 5710   0.438   2.140   3.255
   62CHL1   H14 5711   0.414   2.246   3.234
   62CHL1   C15 5712   0.564   2.130   3.342
   62CHL1  H15A 5713   0.603   2.026   3.348
   62CHL1  H15B 5714   0.636   2.202   3.298
   62CHL1   C16 5715   0.512   2.159   3.492
   62CHL1  H16A 5716   0.551   2.066   3.539
   62CHL1  H16B 5717   0.557   2.245   3.546
   62CHL1   C17 5718   0.361   2.165   3.479
   62CHL1   H17 5719   0.339   2.273   3.467
   62CHL1   C13 5720   0.322   2.095   3.345
   62CHL1   C18 5721   0.331   1.941   3.370
   62CHL1  H18A 5722   0.327   1.872   3.282
   62CHL1  H18B 5723   0.427   1.916   3.420
   62CHL1  H18C 5724   0.253   1.911   3.443
   62CHL1   C12 5725   0.193   2.143   3.263
   62CHL1  H12A 5726   0.100   2.098   3.305
   62CHL1  H12B 5727   0.184   2.253   3.269
   62CHL1   C11 5728   0.196   2.085   3.121
   62CHL1  H11A 5729   0.186   1.975   3.132
   62CHL1  H11B 5730   0.106   2.107   3.060
   62CHL1    C9 5731   0.324   2.108   3.030
   62CHL1    H9 5732   0.330   2.219   3.027
   62CHL1   C10 5733   0.315   2.065   2.885
   62CHL1   C19 5734   0.285   1.909   2.885
   62CHL1  H19A 5735   0.352   1.861   2.960
   62CHL1  H19B 5736   0.177   1.900   2.910
   62CHL1  H19C 5737   0.301   1.868   2.783
   62CHL1    C1 5738   0.212   2.148   2.804
   62CHL1   H1A 5739   0.106   2.128   2.829
   62CHL1   H1B 5740   0.234   2.253   2.835
   62CHL1    C2 5741   0.220   2.148   2.654
   62CHL1   H2A 5742   0.157   2.231   2.614
   62CHL1   H2B 5743   0.184   2.049   2.619
   62CHL1   C20 5744   0.289   2.118   3.605
   62CHL1   H20 5745   0.315   2.012   3.622
   62CHL1   C21 5746   0.138   2.128   3.590
   62CHL1  H21A 5747   0.104   2.067   3.503
   62CHL1  H21B 5748   0.112   2.235   3.583
   62CHL1  H21C 5749   0.094   2.087   3.684
   62CHL1   C22 5750   0.355   2.192   3.729
   62CHL1  H22A 5751   0.466   2.204   3.728
   62CHL1  H22B 5752   0.315   2.293   3.748
   62CHL1   C23 5753   0.324   2.111   3.857
   62CHL1  H23A 5754   0.214   2.099   3.861
   62CHL1  H23B 5755   0.370   2.010   3.857
   62CHL1   C24 5756   0.373   2.191   3.981
   62CHL1  H24A 5757   0.482   2.177   3.995
   62CHL1  H24B 5758   0.352   2.299   3.968
   62CHL1   C25 5759   0.308   2.144   4.119
   62CHL1   H25 5760   0.198   2.140   4.101
   62CHL1   C26 5761   0.347   1.999   4.153
   62CHL1  H26A 5762   0.448   1.991   4.200
   62CHL1  H26B 5763   0.266   1.949   4.210
   62CHL1  H26C 5764   0.353   1.930   4.066
   62CHL1   C27 5765   0.325   2.239   4.234
   62CHL1  H27A 5766   0.258   2.207   4.317
   62CHL1  H27B 5767   0.431   2.235   4.267
   62CHL1  H27C 5768   0.288   2.340   4.206
   63CHL1    C3 5769   4.874   5.207   2.664
   63CHL1    H3 5770   4.765   5.215   2.647
   63CHL1    O3 5771   4.932   5.193   2.539
   63CHL1   H3' 5772   5.022   5.168   2.562
   63CHL1    C4 5773   4.919   5.338   2.734
   63CHL1   H4A 5774   5.030   5.335   2.743
   63CHL1   H4B 5775   4.912   5.425   2.665
   63CHL1    C5 5776   4.849   5.367   2.864
   63CHL1    C6 5777   4.779   5.479   2.883
   63CHL1    H6 5778   4.773   5.554   2.803
   63CHL1    C7 5779   4.710   5.510   3.018
   63CHL1   H7A 5780   4.699   5.617   3.045
   63CHL1   H7B 5781   4.609   5.467   3.000
   63CHL1    C8 5782   4.768   5.428   3.126
   63CHL1    H8 5783   4.866   5.474   3.152
   63CHL1   C14 5784   4.675   5.447   3.250
   63CHL1   H14 5785   4.571   5.411   3.234
   63CHL1   C15 5786   4.663   5.594   3.303
   63CHL1  H15A 5787   4.767   5.632   3.305
   63CHL1  H15B 5788   4.591   5.657   3.247
   63CHL1   C16 5789   4.615   5.578   3.445
   63CHL1  H16A 5790   4.674   5.651   3.505
   63CHL1  H16B 5791   4.510   5.607   3.467
   63CHL1   C17 5792   4.629   5.424   3.483
   63CHL1   H17 5793   4.525   5.385   3.476
   63CHL1   C13 5794   4.721   5.364   3.372
   63CHL1   C18 5795   4.866   5.380   3.414
   63CHL1  H18A 5796   4.894   5.325   3.506
   63CHL1  H18B 5797   4.934   5.355   3.330
   63CHL1  H18C 5798   4.877   5.486   3.445
   63CHL1   C12 5799   4.698   5.217   3.325
   63CHL1  H12A 5800   4.733   5.145   3.401
   63CHL1  H12B 5801   4.588   5.208   3.313
   63CHL1   C11 5802   4.785   5.177   3.202
   63CHL1  H11A 5803   4.889   5.170   3.238
   63CHL1  H11B 5804   4.761   5.080   3.154
   63CHL1    C9 5805   4.769   5.280   3.084
   63CHL1    H9 5806   4.671   5.253   3.039
   63CHL1   C10 5807   4.868   5.258   2.967
   63CHL1   C19 5808   5.009   5.262   3.023
   63CHL1  H19A 5809   5.030   5.361   3.069
   63CHL1  H19B 5810   5.029   5.173   3.086
   63CHL1  H19C 5811   5.093   5.241   2.953
   63CHL1    C1 5812   4.825   5.125   2.895
   63CHL1   H1A 5813   4.836   5.047   2.973
   63CHL1   H1B 5814   4.718   5.124   2.865
   63CHL1    C2 5815   4.907   5.096   2.769
   63CHL1   H2A 5816   4.872   5.003   2.719
   63CHL1   H2B 5817   5.014   5.079   2.792
   63CHL1   C20 5818   4.663   5.397   3.631
   63CHL1   H20 5819   4.768   5.423   3.654
   63CHL1   C21 5820   4.622   5.255   3.666
   63CHL1  H21A 5821   4.511   5.244   3.665
   63CHL1  H21B 5822   4.663   5.221   3.764
   63CHL1  H21C 5823   4.669   5.189   3.590
   63CHL1   C22 5824   4.591   5.491   3.735
   63CHL1  H22A 5825   4.623   5.597   3.722
   63CHL1  H22B 5826   4.482   5.485   3.718
   63CHL1   C23 5827   4.618   5.465   3.883
   63CHL1  H23A 5828   4.584   5.364   3.912
   63CHL1  H23B 5829   4.724   5.479   3.914
   63CHL1   C24 5830   4.534   5.564   3.970
   63CHL1  H24A 5831   4.557   5.671   3.947
   63CHL1  H24B 5832   4.427   5.550   3.943
   63CHL1   C25 5833   4.534   5.545   4.126
   63CHL1   H25 5834   4.507   5.441   4.157
   63CHL1   C26 5835   4.678   5.566   4.175
   63CHL1  H26A 5836   4.708   5.673   4.165
   63CHL1  H26B 5837   4.688   5.536   4.282
   63CHL1  H26C 5838   4.753   5.521   4.107
   63CHL1   C27 5839   4.428   5.624   4.201
   63CHL1  H27A 5840   4.327   5.583   4.179
   63CHL1  H27B 5841   4.425   5.602   4.310
   63CHL1  H27C 5842   4.443   5.734   4.200
   64CHL1    C3 5843   1.806   5.414   2.818
   64CHL1    H3 5844   1.699   5.421   2.789
   64CHL1    O3 5845   1.888   5.395   2.704
   64CHL1   H3' 5846   1.884   5.477   2.654
   64CHL1    C4 5847   1.840   5.554   2.889
   64CHL1   H4A 5848   1.948   5.557   2.916
   64CHL1   H4B 5849   1.802   5.637   2.827
   64CHL1    C5 5850   1.773   5.571   3.022
   64CHL1    C6 5851   1.696   5.677   3.038
   64CHL1    H6 5852   1.682   5.746   2.953
   64CHL1    C7 5853   1.622   5.711   3.162
   64CHL1   H7A 5854   1.631   5.817   3.194
   64CHL1   H7B 5855   1.514   5.689   3.147
   64CHL1    C8 5856   1.662   5.623   3.286
   64CHL1    H8 5857   1.744   5.687   3.325
   64CHL1   C14 5858   1.557   5.632   3.398
   64CHL1   H14 5859   1.471   5.579   3.352
   64CHL1   C15 5860   1.500   5.768   3.442
   64CHL1  H15A 5861   1.583   5.840   3.459
   64CHL1  H15B 5862   1.434   5.817   3.367
   64CHL1   C16 5863   1.425   5.730   3.578
   64CHL1  H16A 5864   1.471   5.802   3.650
   64CHL1  H16B 5865   1.315   5.747   3.579
   64CHL1   C17 5866   1.459   5.579   3.599
   64CHL1   H17 5867   1.389   5.510   3.547
   64CHL1   C13 5868   1.590   5.543   3.523
   64CHL1   C18 5869   1.714   5.603   3.595
   64CHL1  H18A 5870   1.798   5.611   3.523
   64CHL1  H18B 5871   1.698   5.708   3.628
   64CHL1  H18C 5872   1.745   5.535   3.678
   64CHL1   C12 5873   1.618   5.395   3.488
   64CHL1  H12A 5874   1.659   5.330   3.568
   64CHL1  H12B 5875   1.523   5.353   3.449
   64CHL1   C11 5876   1.723   5.391   3.377
   64CHL1  H11A 5877   1.826   5.420   3.407
   64CHL1  H11B 5878   1.729   5.286   3.340
   64CHL1    C9 5879   1.688   5.479   3.250
   64CHL1    H9 5880   1.594   5.434   3.212
   64CHL1   C10 5881   1.787   5.463   3.122
   64CHL1   C19 5882   1.938   5.477   3.176
   64CHL1  H19A 5883   2.004   5.455   3.090
   64CHL1  H19B 5884   1.951   5.571   3.233
   64CHL1  H19C 5885   1.965   5.390   3.240
   64CHL1    C1 5886   1.746   5.330   3.054
   64CHL1   H1A 5887   1.761   5.250   3.129
   64CHL1   H1B 5888   1.637   5.342   3.036
   64CHL1    C2 5889   1.820   5.296   2.922
   64CHL1   H2A 5890   1.779   5.201   2.881
   64CHL1   H2B 5891   1.925   5.268   2.947
   64CHL1   C20 5892   1.462   5.537   3.746
   64CHL1   H20 5893   1.521   5.444   3.762
   64CHL1   C21 5894   1.316   5.494   3.780
   64CHL1  H21A 5895   1.314   5.463   3.887
   64CHL1  H21B 5896   1.275   5.416   3.711
   64CHL1  H21C 5897   1.255   5.585   3.767
   64CHL1   C22 5898   1.522   5.631   3.846
   64CHL1  H22A 5899   1.630   5.643   3.825
   64CHL1  H22B 5900   1.462   5.725   3.842
   64CHL1   C23 5901   1.517   5.594   3.998
   64CHL1  H23A 5902   1.414   5.591   4.039
   64CHL1  H23B 5903   1.557   5.491   4.003
   64CHL1   C24 5904   1.603   5.691   4.081
   64CHL1  H24A 5905   1.703   5.702   4.033
   64CHL1  H24B 5906   1.544   5.785   4.076
   64CHL1   C25 5907   1.610   5.664   4.242
   64CHL1   H25 5908   1.508   5.674   4.286
   64CHL1   C26 5909   1.670   5.524   4.273
   64CHL1  H26A 5910   1.691   5.515   4.382
   64CHL1  H26B 5911   1.595   5.444   4.254
   64CHL1  H26C 5912   1.763   5.494   4.220
   64CHL1   C27 5913   1.688   5.769   4.324
   64CHL1  H27A 5914   1.793   5.767   4.289
   64CHL1  H27B 5915   1.637   5.867   4.329
   64CHL1  H27C 5916   1.688   5.737   4.431
   65CHL1    C3 5917   0.762   2.645   2.378
   65CHL1    H3 5918   0.813   2.743   2.384
   65CHL1    O3 5919   0.747   2.615   2.238
   65CHL1   H3' 5920   0.825   2.643   2.188
   65CHL1    C4 5921   0.866   2.557   2.444
   65CHL1   H4A 5922   0.821   2.456   2.442
   65CHL1   H4B 5923   0.964   2.566   2.392
   65CHL1    C5 5924   0.883   2.583   2.594
   65CHL1    C6 5925   1.001   2.590   2.649
   65CHL1    H6 5926   1.088   2.578   2.582
   65CHL1    C7 5927   1.038   2.609   2.794
   65CHL1   H7A 5928   1.117   2.536   2.822
   65CHL1   H7B 5929   1.073   2.713   2.813
   65CHL1    C8 5930   0.917   2.578   2.889
   65CHL1    H8 5931   0.911   2.467   2.884
   65CHL1   C14 5932   0.952   2.635   3.028
   65CHL1   H14 5933   0.941   2.746   3.029
   65CHL1   C15 5934   1.083   2.597   3.094
   65CHL1  H15A 5935   1.105   2.488   3.085
   65CHL1  H15B 5936   1.161   2.661   3.047
   65CHL1   C16 5937   1.053   2.627   3.240
   65CHL1  H16A 5938   1.070   2.535   3.300
   65CHL1  H16B 5939   1.131   2.695   3.281
   65CHL1   C17 5940   0.902   2.666   3.249
   65CHL1   H17 5941   0.898   2.776   3.237
   65CHL1   C13 5942   0.838   2.602   3.125
   65CHL1   C18 5943   0.814   2.447   3.136
   65CHL1  H18A 5944   0.718   2.437   3.191
   65CHL1  H18B 5945   0.802   2.395   3.039
   65CHL1  H18C 5946   0.884   2.397   3.206
   65CHL1   C12 5947   0.712   2.681   3.067
   65CHL1  H12A 5948   0.627   2.670   3.137
   65CHL1  H12B 5949   0.732   2.790   3.064
   65CHL1   C11 5950   0.667   2.631   2.930
   65CHL1  H11A 5951   0.622   2.529   2.931
   65CHL1  H11B 5952   0.597   2.702   2.881
   65CHL1    C9 5953   0.785   2.643   2.824
   65CHL1    H9 5954   0.808   2.751   2.813
   65CHL1   C10 5955   0.754   2.591   2.682
   65CHL1   C19 5956   0.689   2.449   2.690
   65CHL1  H19A 5957   0.586   2.459   2.729
   65CHL1  H19B 5958   0.685   2.404   2.588
   65CHL1  H19C 5959   0.747   2.388   2.763
   65CHL1    C1 5960   0.661   2.679   2.603
   65CHL1   H1A 5961   0.572   2.684   2.668
   65CHL1   H1B 5962   0.712   2.778   2.612
   65CHL1    C2 5963   0.632   2.642   2.454
   65CHL1   H2A 5964   0.558   2.715   2.415
   65CHL1   H2B 5965   0.578   2.546   2.442
   65CHL1   C20 5966   0.842   2.627   3.389
   65CHL1   H20 5967   0.821   2.518   3.390
   65CHL1   C21 5968   0.690   2.673   3.405
   65CHL1  H21A 5969   0.687   2.774   3.357
   65CHL1  H21B 5970   0.659   2.662   3.511
   65CHL1  H21C 5971   0.620   2.608   3.348
   65CHL1   C22 5972   0.923   2.682   3.508
   65CHL1  H22A 5973   1.032   2.669   3.490
   65CHL1  H22B 5974   0.914   2.791   3.526
   65CHL1   C23 5975   0.900   2.605   3.642
   65CHL1  H23A 5976   0.794   2.574   3.649
   65CHL1  H23B 5977   0.960   2.512   3.636
   65CHL1   C24 5978   0.955   2.675   3.767
   65CHL1  H24A 5979   1.066   2.679   3.766
   65CHL1  H24B 5980   0.900   2.771   3.781
   65CHL1   C25 5981   0.900   2.597   3.894
   65CHL1   H25 5982   0.932   2.490   3.890
   65CHL1   C26 5983   0.968   2.648   4.018
   65CHL1  H26A 5984   0.936   2.586   4.104
   65CHL1  H26B 5985   1.078   2.651   4.002
   65CHL1  H26C 5986   0.932   2.752   4.028
   65CHL1   C27 5987   0.749   2.599   3.912
   65CHL1  H27A 5988   0.698   2.698   3.922
   65CHL1  H27B 5989   0.693   2.540   3.836
   65CHL1  H27C 5990   0.728   2.545   4.007
   66CHL1    C3 5991   5.204   2.330   2.795
   66CHL1    H3 5992   5.131   2.412   2.810
   66CHL1    O3 5993   5.193   2.281   2.660
   66CHL1   H3' 5994   5.098   2.286   2.645
   66CHL1    C4 5995   5.342   2.399   2.835
   66CHL1   H4A 5996   5.416   2.317   2.823
   66CHL1   H4B 5997   5.363   2.477   2.758
   66CHL1    C5 5998   5.355   2.446   2.979
   66CHL1    C6 5999   5.397   2.570   3.023
   66CHL1    H6 6000   5.427   2.651   2.955
   66CHL1    C7 6001   5.418   2.611   3.159
   66CHL1   H7A 6002   5.512   2.670   3.165
   66CHL1   H7B 6003   5.339   2.671   3.209
   66CHL1    C8 6004   5.431   2.491   3.264
   66CHL1    H8 6005   5.532   2.449   3.245
   66CHL1   C14 6006   5.424   2.538   3.411
   66CHL1   H14 6007   5.322   2.578   3.429
   66CHL1   C15 6008   5.514   2.643   3.473
   66CHL1  H15A 6009   5.622   2.622   3.456
   66CHL1  H15B 6010   5.488   2.747   3.444
   66CHL1   C16 6011   5.509   2.621   3.628
   66CHL1  H16A 6012   5.612   2.624   3.669
   66CHL1  H16B 6013   5.453   2.704   3.677
   66CHL1   C17 6014   5.445   2.484   3.649
   66CHL1   H17 6015   5.338   2.507   3.668
   66CHL1   C13 6016   5.436   2.412   3.512
   66CHL1   C18 6017   5.575   2.339   3.499
   66CHL1  H18A 6018   5.654   2.411   3.531
   66CHL1  H18B 6019   5.573   2.247   3.560
   66CHL1  H18C 6020   5.603   2.319   3.393
   66CHL1   C12 6021   5.314   2.316   3.485
   66CHL1  H12A 6022   5.311   2.223   3.547
   66CHL1  H12B 6023   5.223   2.366   3.522
   66CHL1   C11 6024   5.314   2.270   3.337
   66CHL1  H11A 6025   5.409   2.213   3.331
   66CHL1  H11B 6026   5.229   2.200   3.326
   66CHL1    C9 6027   5.317   2.387   3.237
   66CHL1    H9 6028   5.221   2.440   3.254
   66CHL1   C10 6029   5.318   2.334   3.082
   66CHL1   C19 6030   5.424   2.224   3.074
   66CHL1  H19A 6031   5.524   2.258   3.107
   66CHL1  H19B 6032   5.384   2.135   3.129
   66CHL1  H19C 6033   5.450   2.179   2.976
   66CHL1    C1 6034   5.178   2.272   3.051
   66CHL1   H1A 6035   5.156   2.192   3.125
   66CHL1   H1B 6036   5.098   2.349   3.055
   66CHL1    C2 6037   5.154   2.224   2.906
   66CHL1   H2A 6038   5.046   2.211   2.883
   66CHL1   H2B 6039   5.198   2.123   2.891
   66CHL1   C20 6040   5.503   2.404   3.772
   66CHL1   H20 6041   5.609   2.386   3.744
   66CHL1   C21 6042   5.411   2.287   3.800
   66CHL1  H21A 6043   5.422   2.242   3.901
   66CHL1  H21B 6044   5.418   2.201   3.729
   66CHL1  H21C 6045   5.307   2.323   3.791
   66CHL1   C22 6046   5.515   2.487   3.907
   66CHL1  H22A 6047   5.562   2.586   3.891
   66CHL1  H22B 6048   5.412   2.496   3.948
   66CHL1   C23 6049   5.603   2.424   4.015
   66CHL1  H23A 6050   5.571   2.321   4.044
   66CHL1  H23B 6051   5.698   2.401   3.963
   66CHL1   C24 6052   5.611   2.504   4.140
   66CHL1  H24A 6053   5.678   2.588   4.111
   66CHL1  H24B 6054   5.509   2.541   4.160
   66CHL1   C25 6055   5.679   2.433   4.264
   66CHL1   H25 6056   5.776   2.390   4.229
   66CHL1   C26 6057   5.703   2.531   4.383
   66CHL1  H26A 6058   5.603   2.572   4.411
   66CHL1  H26B 6059   5.750   2.487   4.473
   66CHL1  H26C 6060   5.757   2.616   4.336
   66CHL1   C27 6061   5.595   2.313   4.323
   66CHL1  H27A 6062   5.487   2.338   4.323
   66CHL1  H27B 6063   5.602   2.297   4.433
   66CHL1  H27C 6064   5.604   2.217   4.268
   67CHL1    C3 6065   4.536   6.276   2.630
   67CHL1    H3 6066   4.604   6.199   2.674
   67CHL1    O3 6067   4.522   6.259   2.488
   67CHL1   H3' 6068   4.437   6.299   2.470
   67CHL1    C4 6069   4.393   6.260   2.682
   67CHL1   H4A 6070   4.328   6.333   2.629
   67CHL1   H4B 6071   4.360   6.158   2.652
   67CHL1    C5 6072   4.379   6.287   2.827
   67CHL1    C6 6073   4.323   6.193   2.903
   67CHL1    H6 6074   4.289   6.099   2.856
   67CHL1    C7 6075   4.296   6.217   3.050
   67CHL1   H7A 6076   4.202   6.161   3.068
   67CHL1   H7B 6077   4.375   6.159   3.102
   67CHL1    C8 6078   4.305   6.362   3.094
   67CHL1    H8 6079   4.217   6.421   3.059
   67CHL1   C14 6080   4.315   6.377   3.249
   67CHL1   H14 6081   4.398   6.308   3.274
   67CHL1   C15 6082   4.198   6.318   3.330
   67CHL1  H15A 6083   4.099   6.341   3.284
   67CHL1  H15B 6084   4.199   6.207   3.330
   67CHL1   C16 6085   4.199   6.394   3.461
   67CHL1  H16A 6086   4.113   6.462   3.474
   67CHL1  H16B 6087   4.197   6.319   3.543
   67CHL1   C17 6088   4.326   6.483   3.456
   67CHL1   H17 6089   4.410   6.417   3.486
   67CHL1   C13 6090   4.342   6.515   3.306
   67CHL1   C18 6091   4.238   6.618   3.261
   67CHL1  H18A 6092   4.233   6.608   3.151
   67CHL1  H18B 6093   4.139   6.581   3.293
   67CHL1  H18C 6094   4.258   6.724   3.290
   67CHL1   C12 6095   4.481   6.558   3.250
   67CHL1  H12A 6096   4.502   6.662   3.282
   67CHL1  H12B 6097   4.555   6.480   3.280
   67CHL1   C11 6098   4.473   6.557   3.095
   67CHL1  H11A 6099   4.401   6.635   3.059
   67CHL1  H11B 6100   4.574   6.594   3.069
   67CHL1    C9 6101   4.434   6.423   3.031
   67CHL1    H9 6102   4.509   6.351   3.071
   67CHL1   C10 6103   4.436   6.421   2.881
   67CHL1   C19 6104   4.334   6.532   2.821
   67CHL1  H19A 6105   4.330   6.537   2.710
   67CHL1  H19B 6106   4.229   6.519   2.855
   67CHL1  H19C 6107   4.363   6.633   2.857
   67CHL1    C1 6108   4.585   6.440   2.826
   67CHL1   H1A 6109   4.618   6.542   2.857
   67CHL1   H1B 6110   4.657   6.368   2.870
   67CHL1    C2 6111   4.585   6.421   2.667
   67CHL1   H2A 6112   4.684   6.438   2.620
   67CHL1   H2B 6113   4.511   6.491   2.623
   67CHL1   C20 6114   4.324   6.609   3.550
   67CHL1   H20 6115   4.239   6.672   3.515
   67CHL1   C21 6116   4.457   6.683   3.538
   67CHL1  H21A 6117   4.548   6.620   3.540
   67CHL1  H21B 6118   4.471   6.741   3.632
   67CHL1  H21C 6119   4.456   6.747   3.447
   67CHL1   C22 6120   4.288   6.573   3.702
   67CHL1  H22A 6121   4.244   6.471   3.710
   67CHL1  H22B 6122   4.381   6.574   3.763
   67CHL1   C23 6123   4.194   6.667   3.769
   67CHL1  H23A 6124   4.090   6.671   3.730
   67CHL1  H23B 6125   4.188   6.627   3.873
   67CHL1   C24 6126   4.245   6.816   3.771
   67CHL1  H24A 6127   4.334   6.825   3.837
   67CHL1  H24B 6128   4.266   6.850   3.668
   67CHL1   C25 6129   4.151   6.926   3.835
   67CHL1   H25 6130   4.218   7.013   3.849
   67CHL1   C26 6131   4.032   6.959   3.752
   67CHL1  H26A 6132   3.963   6.872   3.748
   67CHL1  H26B 6133   3.992   7.053   3.796
   67CHL1  H26C 6134   4.065   6.981   3.648
   67CHL1   C27 6135   4.099   6.895   3.977
   67CHL1  H27A 6136   4.041   6.980   4.020
   67CHL1  H27B 6137   4.029   6.809   3.977
   67CHL1  H27C 6138   4.187   6.859   4.035
   68CHL1    C3 6139   1.712   0.379   2.339
   68CHL1    H3 6140   1.602   0.391   2.349
   68CHL1    O3 6141   1.755   0.390   2.205
   68CHL1   H3' 6142   1.844   0.419   2.221
   68CHL1    C4 6143   1.779   0.491   2.424
   68CHL1   H4A 6144   1.890   0.489   2.416
   68CHL1   H4B 6145   1.751   0.584   2.370
   68CHL1    C5 6146   1.742   0.473   2.569
   68CHL1    C6 6147   1.680   0.575   2.639
   68CHL1    H6 6148   1.646   0.661   2.581
   68CHL1    C7 6149   1.650   0.578   2.787
   68CHL1   H7A 6150   1.671   0.676   2.836
   68CHL1   H7B 6151   1.541   0.561   2.800
   68CHL1    C8 6152   1.705   0.456   2.866
   68CHL1    H8 6153   1.811   0.480   2.889
   68CHL1   C14 6154   1.644   0.440   3.002
   68CHL1   H14 6155   1.540   0.405   2.987
   68CHL1   C15 6156   1.648   0.569   3.090
   68CHL1  H15A 6157   1.751   0.611   3.089
   68CHL1  H15B 6158   1.577   0.647   3.055
   68CHL1   C16 6159   1.621   0.514   3.232
   68CHL1  H16A 6160   1.700   0.545   3.304
   68CHL1  H16B 6161   1.518   0.546   3.259
   68CHL1   C17 6162   1.627   0.353   3.219
   68CHL1   H17 6163   1.522   0.325   3.193
   68CHL1   C13 6164   1.712   0.332   3.085
   68CHL1   C18 6165   1.859   0.357   3.113
   68CHL1  H18A 6166   1.921   0.388   3.026
   68CHL1  H18B 6167   1.863   0.449   3.175
   68CHL1  H18C 6168   1.910   0.269   3.159
   68CHL1   C12 6169   1.691   0.204   3.009
   68CHL1  H12A 6170   1.734   0.113   3.056
   68CHL1  H12B 6171   1.583   0.183   2.997
   68CHL1   C11 6172   1.755   0.210   2.869
   68CHL1  H11A 6173   1.864   0.205   2.892
   68CHL1  H11B 6174   1.738   0.117   2.811
   68CHL1    C9 6175   1.710   0.328   2.784
   68CHL1    H9 6176   1.603   0.310   2.760
   68CHL1   C10 6177   1.776   0.335   2.636
   68CHL1   C19 6178   1.922   0.323   2.656
   68CHL1  H19A 6179   1.948   0.226   2.701
   68CHL1  H19B 6180   1.986   0.349   2.569
   68CHL1  H19C 6181   1.942   0.395   2.738
   68CHL1    C1 6182   1.725   0.225   2.549
   68CHL1   H1A 6183   1.779   0.136   2.589
   68CHL1   H1B 6184   1.616   0.209   2.563
   68CHL1    C2 6185   1.756   0.246   2.401
   68CHL1   H2A 6186   1.705   0.157   2.358
   68CHL1   H2B 6187   1.866   0.236   2.394
   68CHL1   C20 6188   1.661   0.282   3.352
   68CHL1   H20 6189   1.767   0.305   3.374
   68CHL1   C21 6190   1.636   0.133   3.335
   68CHL1  H21A 6191   1.529   0.113   3.312
   68CHL1  H21B 6192   1.648   0.078   3.431
   68CHL1  H21C 6193   1.703   0.085   3.261
   68CHL1   C22 6194   1.582   0.335   3.474
   68CHL1  H22A 6195   1.580   0.446   3.477
   68CHL1  H22B 6196   1.481   0.292   3.455
   68CHL1   C23 6197   1.650   0.305   3.612
   68CHL1  H23A 6198   1.661   0.195   3.628
   68CHL1  H23B 6199   1.753   0.343   3.627
   68CHL1   C24 6200   1.566   0.359   3.732
   68CHL1  H24A 6201   1.580   0.469   3.746
   68CHL1  H24B 6202   1.458   0.337   3.720
   68CHL1   C25 6203   1.603   0.284   3.862
   68CHL1   H25 6204   1.592   0.175   3.845
   68CHL1   C26 6205   1.759   0.311   3.891
   68CHL1  H26A 6206   1.774   0.416   3.922
   68CHL1  H26B 6207   1.801   0.236   3.962
   68CHL1  H26C 6208   1.823   0.293   3.802
   68CHL1   C27 6209   1.520   0.330   3.981
   68CHL1  H27A 6210   1.540   0.268   4.071
   68CHL1  H27B 6211   1.536   0.436   4.010
   68CHL1  H27C 6212   1.411   0.313   3.967
   69CHL1    C3 6213   6.523   5.825   2.897
   69CHL1    H3 6214   6.596   5.747   2.926
   69CHL1    O3 6215   6.504   5.827   2.751
   69CHL1   H3' 6216   6.424   5.881   2.748
   69CHL1    C4 6217   6.384   5.805   2.959
   69CHL1   H4A 6218   6.311   5.882   2.928
   69CHL1   H4B 6219   6.350   5.713   2.908
   69CHL1    C5 6220   6.395   5.805   3.110
   69CHL1    C6 6221   6.337   5.708   3.174
   69CHL1    H6 6222   6.300   5.622   3.116
   69CHL1    C7 6223   6.344   5.697   3.326
   69CHL1   H7A 6224   6.253   5.652   3.370
   69CHL1   H7B 6225   6.434   5.649   3.368
   69CHL1    C8 6226   6.352   5.840   3.391
   69CHL1    H8 6227   6.256   5.895   3.385
   69CHL1   C14 6228   6.378   5.820   3.543
   69CHL1   H14 6229   6.464   5.751   3.553
   69CHL1   C15 6230   6.271   5.740   3.630
   69CHL1  H15A 6231   6.171   5.774   3.597
   69CHL1  H15B 6232   6.279   5.634   3.599
   69CHL1   C16 6233   6.298   5.782   3.772
   69CHL1  H16A 6234   6.202   5.828   3.802
   69CHL1  H16B 6235   6.324   5.694   3.834
   69CHL1   C17 6236   6.418   5.873   3.759
   69CHL1   H17 6237   6.511   5.814   3.748
   69CHL1   C13 6238   6.404   5.942   3.619
   69CHL1   C18 6239   6.281   6.035   3.626
   69CHL1  H18A 6240   6.183   5.985   3.640
   69CHL1  H18B 6241   6.299   6.114   3.701
   69CHL1  H18C 6242   6.264   6.086   3.529
   69CHL1   C12 6243   6.524   6.023   3.560
   69CHL1  H12A 6244   6.554   6.109   3.622
   69CHL1  H12B 6245   6.607   5.948   3.561
   69CHL1   C11 6246   6.501   6.041   3.410
   69CHL1  H11A 6247   6.411   6.102   3.390
   69CHL1  H11B 6248   6.588   6.102   3.378
   69CHL1    C9 6249   6.474   5.911   3.332
   69CHL1    H9 6250   6.564   5.850   3.354
   69CHL1   C10 6251   6.456   5.929   3.176
   69CHL1   C19 6252   6.345   6.031   3.155
   69CHL1  H19A 6253   6.339   6.050   3.045
   69CHL1  H19B 6254   6.246   6.002   3.195
   69CHL1  H19C 6255   6.383   6.124   3.202
   69CHL1    C1 6256   6.588   5.963   3.102
   69CHL1   H1A 6257   6.627   6.061   3.137
   69CHL1   H1B 6258   6.673   5.895   3.124
   69CHL1    C2 6259   6.569   5.962   2.949
   69CHL1   H2A 6260   6.669   5.970   2.903
   69CHL1   H2B 6261   6.496   6.038   2.912
   69CHL1   C20 6262   6.443   5.956   3.886
   69CHL1   H20 6263   6.514   6.038   3.865
   69CHL1   C21 6264   6.521   5.869   3.988
   69CHL1  H21A 6265   6.616   5.824   3.951
   69CHL1  H21B 6266   6.456   5.784   4.017
   69CHL1  H21C 6267   6.544   5.928   4.079
   69CHL1   C22 6268   6.325   6.011   3.962
   69CHL1  H22A 6269   6.236   6.031   3.898
   69CHL1  H22B 6270   6.288   5.937   4.036
   69CHL1   C23 6271   6.369   6.132   4.041
   69CHL1  H23A 6272   6.451   6.103   4.110
   69CHL1  H23B 6273   6.409   6.200   3.962
   69CHL1   C24 6274   6.254   6.182   4.133
   69CHL1  H24A 6275   6.180   6.239   4.073
   69CHL1  H24B 6276   6.200   6.104   4.191
   69CHL1   C25 6277   6.294   6.287   4.239
   69CHL1   H25 6278   6.201   6.329   4.284
   69CHL1   C26 6279   6.374   6.230   4.357
   69CHL1  H26A 6280   6.447   6.154   4.322
   69CHL1  H26B 6281   6.425   6.300   4.426
   69CHL1  H26C 6282   6.305   6.178   4.427
   69CHL1   C27 6283   6.356   6.413   4.180
   69CHL1  H27A 6284   6.284   6.457   4.108
   69CHL1  H27B 6285   6.380   6.495   4.251
   69CHL1  H27C 6286   6.450   6.387   4.127
   70CHL1    C3 6287   2.246   1.916   2.628
   70CHL1    H3 6288   2.254   1.805   2.619
   70CHL1    O3 6289   2.200   1.972   2.509
   70CHL1   H3' 6290   2.201   2.067   2.518
   70CHL1    C4 6291   2.130   1.940   2.734
   70CHL1   H4A 6292   2.107   2.047   2.717
   70CHL1   H4B 6293   2.037   1.889   2.702
   70CHL1    C5 6294   2.173   1.909   2.881
   70CHL1    C6 6295   2.084   1.837   2.962
   70CHL1    H6 6296   1.983   1.825   2.920
   70CHL1    C7 6297   2.118   1.822   3.112
   70CHL1   H7A 6298   2.029   1.840   3.176
   70CHL1   H7B 6299   2.156   1.719   3.127
   70CHL1    C8 6300   2.246   1.901   3.160
   70CHL1    H8 6301   2.212   2.003   3.188
   70CHL1   C14 6302   2.298   1.839   3.288
   70CHL1   H14 6303   2.328   1.734   3.267
   70CHL1   C15 6304   2.205   1.820   3.409
   70CHL1  H15A 6305   2.131   1.902   3.422
   70CHL1  H15B 6306   2.144   1.727   3.403
   70CHL1   C16 6307   2.297   1.808   3.532
   70CHL1  H16A 6308   2.277   1.897   3.596
   70CHL1  H16B 6309   2.287   1.713   3.588
   70CHL1   C17 6310   2.443   1.819   3.474
   70CHL1   H17 6311   2.475   1.716   3.445
   70CHL1   C13 6312   2.427   1.894   3.340
   70CHL1   C18 6313   2.411   2.042   3.375
   70CHL1  H18A 6314   2.384   2.094   3.281
   70CHL1  H18B 6315   2.334   2.068   3.450
   70CHL1  H18C 6316   2.510   2.084   3.404
   70CHL1   C12 6317   2.544   1.877   3.238
   70CHL1  H12A 6318   2.642   1.921   3.267
   70CHL1  H12B 6319   2.571   1.770   3.240
   70CHL1   C11 6320   2.496   1.933   3.103
   70CHL1  H11A 6321   2.504   2.044   3.102
   70CHL1  H11B 6322   2.573   1.911   3.027
   70CHL1    C9 6323   2.352   1.886   3.049
   70CHL1    H9 6324   2.355   1.775   3.038
   70CHL1   C10 6325   2.310   1.957   2.921
   70CHL1   C19 6326   2.299   2.111   2.944
   70CHL1  H19A 6327   2.231   2.155   2.868
   70CHL1  H19B 6328   2.251   2.140   3.040
   70CHL1  H19C 6329   2.399   2.161   2.947
   70CHL1    C1 6330   2.421   1.932   2.812
   70CHL1   H1A 6331   2.508   1.995   2.839
   70CHL1   H1B 6332   2.445   1.824   2.809
   70CHL1    C2 6333   2.380   1.977   2.670
   70CHL1   H2A 6334   2.459   1.945   2.598
   70CHL1   H2B 6335   2.373   2.088   2.666
   70CHL1   C20 6336   2.541   1.880   3.574
   70CHL1   H20 6337   2.520   1.987   3.593
   70CHL1   C21 6338   2.682   1.872   3.515
   70CHL1  H21A 6339   2.710   1.962   3.457
   70CHL1  H21B 6340   2.677   1.780   3.452
   70CHL1  H21C 6341   2.761   1.866   3.593
   70CHL1   C22 6342   2.539   1.805   3.708
   70CHL1  H22A 6343   2.435   1.775   3.732
   70CHL1  H22B 6344   2.596   1.711   3.693
   70CHL1   C23 6345   2.609   1.882   3.817
   70CHL1  H23A 6346   2.717   1.903   3.801
   70CHL1  H23B 6347   2.569   1.986   3.818
   70CHL1   C24 6348   2.608   1.822   3.956
   70CHL1  H24A 6349   2.505   1.781   3.964
   70CHL1  H24B 6350   2.686   1.744   3.959
   70CHL1   C25 6351   2.635   1.921   4.072
   70CHL1   H25 6352   2.726   1.980   4.048
   70CHL1   C26 6353   2.524   2.029   4.100
   70CHL1  H26A 6354   2.432   1.968   4.111
   70CHL1  H26B 6355   2.548   2.092   4.188
   70CHL1  H26C 6356   2.519   2.105   4.019
   70CHL1   C27 6357   2.654   1.832   4.192
   70CHL1  H27A 6358   2.557   1.782   4.214
   70CHL1  H27B 6359   2.735   1.757   4.183
   70CHL1  H27C 6360   2.689   1.891   4.279
   71CHL1    C3 6361   6.773   0.778   2.567
   71CHL1    H3 6362   6.715   0.695   2.613
   71CHL1    O3 6363   6.763   0.777   2.425
   71CHL1   H3' 6364   6.679   0.818   2.404
   71CHL1    C4 6365   6.710   0.909   2.620
   71CHL1   H4A 6366   6.773   0.991   2.580
   71CHL1   H4B 6367   6.607   0.925   2.579
   71CHL1    C5 6368   6.711   0.910   2.771
   71CHL1    C6 6369   6.603   0.915   2.847
   71CHL1    H6 6370   6.502   0.918   2.803
   71CHL1    C7 6371   6.610   0.943   2.991
   71CHL1   H7A 6372   6.541   1.029   3.007
   71CHL1   H7B 6373   6.573   0.856   3.049
   71CHL1    C8 6374   6.745   0.986   3.044
   71CHL1    H8 6375   6.769   1.093   3.026
   71CHL1   C14 6376   6.745   0.965   3.198
   71CHL1   H14 6377   6.729   0.857   3.218
   71CHL1   C15 6378   6.641   1.029   3.290
   71CHL1  H15A 6379   6.613   1.129   3.250
   71CHL1  H15B 6380   6.549   0.966   3.289
   71CHL1   C16 6381   6.705   1.029   3.429
   71CHL1  H16A 6382   6.709   1.137   3.455
   71CHL1  H16B 6383   6.645   0.973   3.503
   71CHL1   C17 6384   6.854   0.981   3.420
   71CHL1   H17 6385   6.858   0.871   3.431
   71CHL1   C13 6386   6.887   0.999   3.264
   71CHL1   C18 6387   6.928   1.142   3.234
   71CHL1  H18A 6388   6.952   1.166   3.128
   71CHL1  H18B 6389   6.855   1.216   3.273
   71CHL1  H18C 6390   7.025   1.162   3.286
   71CHL1   C12 6391   6.994   0.900   3.205
   71CHL1  H12A 6392   7.091   0.932   3.249
   71CHL1  H12B 6393   6.975   0.794   3.232
   71CHL1   C11 6394   6.994   0.903   3.055
   71CHL1  H11A 6395   7.059   0.987   3.021
   71CHL1  H11B 6396   7.051   0.812   3.028
   71CHL1    C9 6397   6.853   0.896   2.982
   71CHL1    H9 6398   6.817   0.794   3.007
   71CHL1   C10 6399   6.855   0.910   2.833
   71CHL1   C19 6400   6.925   1.049   2.799
   71CHL1  H19A 6401   6.870   1.130   2.852
   71CHL1  H19B 6402   7.032   1.061   2.825
   71CHL1  H19C 6403   6.928   1.076   2.691
   71CHL1    C1 6404   6.930   0.788   2.771
   71CHL1   H1A 6405   7.037   0.798   2.800
   71CHL1   H1B 6406   6.884   0.694   2.810
   71CHL1    C2 6407   6.923   0.782   2.615
   71CHL1   H2A 6408   6.984   0.702   2.568
   71CHL1   H2B 6409   6.967   0.875   2.573
   71CHL1   C20 6410   6.947   1.052   3.529
   71CHL1   H20 6411   6.934   1.162   3.525
   71CHL1   C21 6412   7.097   1.011   3.509
   71CHL1  H21A 6413   7.113   0.901   3.519
   71CHL1  H21B 6414   7.159   1.072   3.578
   71CHL1  H21C 6415   7.131   1.057   3.413
   71CHL1   C22 6416   6.904   1.007   3.671
   71CHL1  H22A 6417   6.795   1.029   3.679
   71CHL1  H22B 6418   6.912   0.896   3.679
   71CHL1   C23 6419   6.976   1.082   3.784
   71CHL1  H23A 6420   7.078   1.042   3.806
   71CHL1  H23B 6421   6.982   1.189   3.753
   71CHL1   C24 6422   6.902   1.067   3.916
   71CHL1  H24A 6423   6.794   1.092   3.905
   71CHL1  H24B 6424   6.895   0.961   3.947
   71CHL1   C25 6425   6.972   1.146   4.028
   71CHL1   H25 6426   7.081   1.126   4.022
   71CHL1   C26 6427   6.951   1.299   4.027
   71CHL1  H26A 6428   7.003   1.350   3.943
   71CHL1  H26B 6429   6.848   1.332   3.999
   71CHL1  H26C 6430   6.988   1.340   4.123
   71CHL1   C27 6431   6.928   1.093   4.160
   71CHL1  H27A 6432   6.829   1.134   4.186
   71CHL1  H27B 6433   6.929   0.982   4.152
   71CHL1  H27C 6434   6.997   1.111   4.245
   72CHL1    C3 6435   6.594   5.118   2.789
   72CHL1    H3 6436   6.677   5.060   2.835
   72CHL1    O3 6437   6.599   5.096   2.651
   72CHL1   H3' 6438   6.518   5.138   2.620
   72CHL1    C4 6439   6.455   5.058   2.831
   72CHL1   H4A 6440   6.373   5.115   2.783
   72CHL1   H4B 6441   6.452   4.951   2.801
   72CHL1    C5 6442   6.440   5.074   2.982
   72CHL1    C6 6443   6.432   4.965   3.061
   72CHL1    H6 6444   6.416   4.868   3.013
   72CHL1    C7 6445   6.417   4.966   3.211
   72CHL1   H7A 6446   6.333   4.896   3.228
   72CHL1   H7B 6447   6.508   4.920   3.256
   72CHL1    C8 6448   6.398   5.104   3.264
   72CHL1    H8 6449   6.292   5.125   3.240
   72CHL1   C14 6450   6.434   5.107   3.406
   72CHL1   H14 6451   6.542   5.081   3.408
   72CHL1   C15 6452   6.380   5.008   3.503
   72CHL1  H15A 6453   6.275   4.987   3.476
   72CHL1  H15B 6454   6.445   4.917   3.506
   72CHL1   C16 6455   6.388   5.069   3.652
   72CHL1  H16A 6456   6.283   5.064   3.689
   72CHL1  H16B 6457   6.461   5.015   3.716
   72CHL1   C17 6458   6.439   5.214   3.628
   72CHL1   H17 6459   6.549   5.201   3.633
   72CHL1   C13 6460   6.407   5.242   3.474
   72CHL1   C18 6461   6.254   5.277   3.464
   72CHL1  H18A 6462   6.225   5.364   3.527
   72CHL1  H18B 6463   6.213   5.307   3.365
   72CHL1  H18C 6464   6.189   5.195   3.501
   72CHL1   C12 6465   6.496   5.342   3.403
   72CHL1  H12A 6466   6.484   5.435   3.462
   72CHL1  H12B 6467   6.602   5.309   3.416
   72CHL1   C11 6468   6.456   5.354   3.260
   72CHL1  H11A 6469   6.356   5.400   3.246
   72CHL1  H11B 6470   6.527   5.422   3.210
   72CHL1    C9 6471   6.472   5.218   3.190
   72CHL1    H9 6472   6.579   5.201   3.216
   72CHL1   C10 6473   6.465   5.216   3.038
   72CHL1   C19 6474   6.333   5.290   3.001
   72CHL1  H19A 6475   6.309   5.296   2.893
   72CHL1  H19B 6476   6.239   5.260   3.053
   72CHL1  H19C 6477   6.349   5.398   3.024
   72CHL1    C1 6478   6.600   5.274   2.976
   72CHL1   H1A 6479   6.610   5.376   3.018
   72CHL1   H1B 6480   6.681   5.213   3.019
   72CHL1    C2 6481   6.614   5.271   2.828
   72CHL1   H2A 6482   6.718   5.292   2.794
   72CHL1   H2B 6483   6.549   5.341   2.771
   72CHL1   C20 6484   6.398   5.317   3.737
   72CHL1   H20 6485   6.415   5.418   3.693
   72CHL1   C21 6486   6.502   5.302   3.848
   72CHL1  H21A 6487   6.490   5.216   3.916
   72CHL1  H21B 6488   6.495   5.385   3.922
   72CHL1  H21C 6489   6.606   5.305   3.809
   72CHL1   C22 6490   6.256   5.299   3.796
   72CHL1  H22A 6491   6.177   5.289   3.717
   72CHL1  H22B 6492   6.242   5.206   3.854
   72CHL1   C23 6493   6.211   5.424   3.878
   72CHL1  H23A 6494   6.263   5.406   3.975
   72CHL1  H23B 6495   6.245   5.513   3.821
   72CHL1   C24 6496   6.059   5.435   3.905
   72CHL1  H24A 6497   6.005   5.471   3.814
   72CHL1  H24B 6498   6.023   5.333   3.927
   72CHL1   C25 6499   6.018   5.526   4.023
   72CHL1   H25 6500   6.074   5.486   4.110
   72CHL1   C26 6501   6.051   5.677   3.998
   72CHL1  H26A 6502   6.028   5.733   4.092
   72CHL1  H26B 6503   6.160   5.690   3.984
   72CHL1  H26C 6504   5.990   5.726   3.919
   72CHL1   C27 6505   5.863   5.511   4.029
   72CHL1  H27A 6506   5.829   5.540   4.131
   72CHL1  H27B 6507   5.815   5.566   3.945
   72CHL1  H27C 6508   5.829   5.405   4.021
   73CHL1    C3 6509   1.188   0.683   2.596
   73CHL1    H3 6510   1.283   0.630   2.617
   73CHL1    O3 6511   1.160   0.672   2.460
   73CHL1   H3' 6512   1.244   0.683   2.415
   73CHL1    C4 6513   1.073   0.617   2.676
   73CHL1   H4A 6514   0.982   0.677   2.658
   73CHL1   H4B 6515   1.052   0.515   2.638
   73CHL1    C5 6516   1.113   0.626   2.823
   73CHL1    C6 6517   1.133   0.517   2.904
   73CHL1    H6 6518   1.127   0.420   2.852
   73CHL1    C7 6519   1.174   0.517   3.048
   73CHL1   H7A 6520   1.115   0.443   3.107
   73CHL1   H7B 6521   1.284   0.505   3.052
   73CHL1    C8 6522   1.157   0.657   3.119
   73CHL1    H8 6523   1.047   0.668   3.128
   73CHL1   C14 6524   1.228   0.659   3.244
   73CHL1   H14 6525   1.335   0.648   3.217
   73CHL1   C15 6526   1.191   0.555   3.352
   73CHL1  H15A 6527   1.081   0.548   3.365
   73CHL1  H15B 6528   1.229   0.452   3.331
   73CHL1   C16 6529   1.246   0.603   3.481
   73CHL1  H16A 6530   1.163   0.595   3.556
   73CHL1  H16B 6531   1.338   0.551   3.514
   73CHL1   C17 6532   1.286   0.751   3.452
   73CHL1   H17 6533   1.395   0.744   3.431
   73CHL1   C13 6534   1.222   0.793   3.317
   73CHL1   C18 6535   1.072   0.839   3.352
   73CHL1  H18A 6536   1.006   0.850   3.264
   73CHL1  H18B 6537   1.017   0.764   3.414
   73CHL1  H18C 6538   1.089   0.937   3.401
   73CHL1   C12 6539   1.288   0.899   3.224
   73CHL1  H12A 6540   1.294   1.005   3.256
   73CHL1  H12B 6541   1.395   0.879   3.204
   73CHL1   C11 6542   1.222   0.910   3.083
   73CHL1  H11A 6543   1.121   0.954   3.099
   73CHL1  H11B 6544   1.277   0.980   3.016
   73CHL1    C9 6545   1.211   0.765   3.018
   73CHL1    H9 6546   1.314   0.731   2.993
   73CHL1   C10 6547   1.141   0.780   2.872
   73CHL1   C19 6548   1.008   0.848   2.894
   73CHL1  H19A 6549   1.028   0.955   2.917
   73CHL1  H19B 6550   0.964   0.849   2.792
   73CHL1  H19C 6551   0.935   0.798   2.961
   73CHL1    C1 6552   1.232   0.858   2.777
   73CHL1   H1A 6553   1.234   0.968   2.793
   73CHL1   H1B 6554   1.329   0.806   2.787
   73CHL1    C2 6555   1.211   0.835   2.632
   73CHL1   H2A 6556   1.297   0.878   2.576
   73CHL1   H2B 6557   1.116   0.882   2.599
   73CHL1   C20 6558   1.277   0.851   3.570
   73CHL1   H20 6559   1.173   0.889   3.584
   73CHL1   C21 6560   1.364   0.974   3.550
   73CHL1  H21A 6561   1.474   0.960   3.556
   73CHL1  H21B 6562   1.352   1.051   3.629
   73CHL1  H21C 6563   1.343   1.025   3.453
   73CHL1   C22 6564   1.319   0.796   3.705
   73CHL1  H22A 6565   1.259   0.707   3.732
   73CHL1  H22B 6566   1.425   0.767   3.685
   73CHL1   C23 6567   1.308   0.889   3.831
   73CHL1  H23A 6568   1.372   0.980   3.826
   73CHL1  H23B 6569   1.201   0.920   3.836
   73CHL1   C24 6570   1.359   0.818   3.963
   73CHL1  H24A 6571   1.289   0.737   3.993
   73CHL1  H24B 6572   1.462   0.788   3.932
   73CHL1   C25 6573   1.380   0.911   4.074
   73CHL1   H25 6574   1.293   0.979   4.055
   73CHL1   C26 6575   1.371   0.846   4.210
   73CHL1  H26A 6576   1.466   0.791   4.225
   73CHL1  H26B 6577   1.364   0.928   4.285
   73CHL1  H26C 6578   1.288   0.775   4.228
   73CHL1   C27 6579   1.504   1.004   4.063
   73CHL1  H27A 6580   1.503   1.067   3.971
   73CHL1  H27B 6581   1.520   1.076   4.146
   73CHL1  H27C 6582   1.594   0.941   4.046
   74CHL1    C3 6583   0.939   6.303   2.546
   74CHL1    H3 6584   0.936   6.201   2.591
   74CHL1    O3 6585   0.941   6.301   2.409
   74CHL1   H3' 6586   1.028   6.326   2.378
   74CHL1    C4 6587   0.816   6.388   2.589
   74CHL1   H4A 6588   0.829   6.490   2.549
   74CHL1   H4B 6589   0.724   6.349   2.541
   74CHL1    C5 6590   0.809   6.391   2.743
   74CHL1    C6 6591   0.699   6.341   2.806
   74CHL1    H6 6592   0.621   6.297   2.742
   74CHL1    C7 6593   0.682   6.357   2.949
   74CHL1   H7A 6594   0.576   6.380   2.976
   74CHL1   H7B 6595   0.703   6.255   2.988
   74CHL1    C8 6596   0.780   6.450   3.027
   74CHL1    H8 6597   0.745   6.551   2.997
   74CHL1   C14 6598   0.786   6.427   3.174
   74CHL1   H14 6599   0.808   6.320   3.194
   74CHL1   C15 6600   0.651   6.433   3.252
   74CHL1  H15A 6601   0.607   6.519   3.197
   74CHL1  H15B 6602   0.600   6.336   3.230
   74CHL1   C16 6603   0.694   6.442   3.399
   74CHL1  H16A 6604   0.662   6.542   3.435
   74CHL1  H16B 6605   0.648   6.357   3.453
   74CHL1   C17 6606   0.847   6.444   3.403
   74CHL1   H17 6607   0.879   6.338   3.402
   74CHL1   C13 6608   0.891   6.491   3.262
   74CHL1   C18 6609   0.878   6.649   3.261
   74CHL1  H18A 6610   0.963   6.701   3.310
   74CHL1  H18B 6611   0.880   6.666   3.151
   74CHL1  H18C 6612   0.777   6.684   3.290
   74CHL1   C12 6613   1.025   6.446   3.201
   74CHL1  H12A 6614   1.106   6.494   3.260
   74CHL1  H12B 6615   1.033   6.337   3.223
   74CHL1   C11 6616   1.039   6.482   3.052
   74CHL1  H11A 6617   1.057   6.591   3.041
   74CHL1  H11B 6618   1.133   6.437   3.013
   74CHL1    C9 6619   0.922   6.422   2.968
   74CHL1    H9 6620   0.937   6.313   2.983
   74CHL1   C10 6621   0.933   6.444   2.820
   74CHL1   C19 6622   0.936   6.600   2.797
   74CHL1  H19A 6623   0.898   6.628   2.697
   74CHL1  H19B 6624   0.873   6.654   2.870
   74CHL1  H19C 6625   1.034   6.651   2.812
   74CHL1    C1 6626   1.062   6.374   2.760
   74CHL1   H1A 6627   1.148   6.443   2.774
   74CHL1   H1B 6628   1.072   6.286   2.827
   74CHL1    C2 6629   1.067   6.363   2.612
   74CHL1   H2A 6630   1.154   6.296   2.595
   74CHL1   H2B 6631   1.084   6.460   2.562
   74CHL1   C20 6632   0.915   6.503   3.530
   74CHL1   H20 6633   0.876   6.606   3.541
   74CHL1   C21 6634   1.066   6.503   3.520
   74CHL1  H21A 6635   1.113   6.515   3.620
   74CHL1  H21B 6636   1.099   6.585   3.452
   74CHL1  H21C 6637   1.095   6.403   3.482
   74CHL1   C22 6638   0.887   6.436   3.671
   74CHL1  H22A 6639   0.784   6.394   3.678
   74CHL1  H22B 6640   0.941   6.340   3.686
   74CHL1   C23 6641   0.908   6.534   3.786
   74CHL1  H23A 6642   0.993   6.602   3.764
   74CHL1  H23B 6643   0.822   6.603   3.800
   74CHL1   C24 6644   0.937   6.464   3.920
   74CHL1  H24A 6645   1.040   6.422   3.913
   74CHL1  H24B 6646   0.942   6.544   3.996
   74CHL1   C25 6647   0.820   6.366   3.955
   74CHL1   H25 6648   0.805   6.290   3.876
   74CHL1   C26 6649   0.853   6.292   4.087
   74CHL1  H26A 6650   0.931   6.213   4.080
   74CHL1  H26B 6651   0.880   6.359   4.171
   74CHL1  H26C 6652   0.760   6.231   4.100
   74CHL1   C27 6653   0.684   6.439   3.973
   74CHL1  H27A 6654   0.682   6.531   4.035
   74CHL1  H27B 6655   0.648   6.457   3.869
   74CHL1  H27C 6656   0.609   6.371   4.017
   75CHL1    C3 6657   2.034   6.096   2.710
   75CHL1    H3 6658   2.133   6.111   2.758
   75CHL1    O3 6659   2.034   6.075   2.571
   75CHL1   H3' 6660   1.951   6.105   2.532
   75CHL1    C4 6661   1.980   5.970   2.779
   75CHL1   H4A 6662   1.877   5.951   2.743
   75CHL1   H4B 6663   2.032   5.878   2.743
   75CHL1    C5 6664   1.965   5.987   2.927
   75CHL1    C6 6665   2.031   5.911   3.005
   75CHL1    H6 6666   2.092   5.828   2.966
   75CHL1    C7 6667   2.041   5.923   3.155
   75CHL1   H7A 6668   2.028   5.821   3.199
   75CHL1   H7B 6669   2.144   5.959   3.179
   75CHL1    C8 6670   1.938   6.015   3.218
   75CHL1    H8 6671   1.849   5.950   3.222
   75CHL1   C14 6672   1.969   6.042   3.364
   75CHL1   H14 6673   2.068   6.092   3.358
   75CHL1   C15 6674   2.007   5.926   3.461
   75CHL1  H15A 6675   1.921   5.856   3.460
   75CHL1  H15B 6676   2.103   5.876   3.436
   75CHL1   C16 6677   2.017   6.000   3.596
   75CHL1  H16A 6678   1.962   5.941   3.672
   75CHL1  H16B 6679   2.123   6.008   3.630
   75CHL1   C17 6680   1.949   6.138   3.578
   75CHL1   H17 6681   2.037   6.207   3.574
   75CHL1   C13 6682   1.876   6.137   3.441
   75CHL1   C18 6683   1.740   6.071   3.463
   75CHL1  H18A 6684   1.692   6.040   3.368
   75CHL1  H18B 6685   1.738   5.983   3.530
   75CHL1  H18C 6686   1.658   6.130   3.510
   75CHL1   C12 6687   1.870   6.264   3.358
   75CHL1  H12A 6688   1.798   6.335   3.405
   75CHL1  H12B 6689   1.963   6.324   3.352
   75CHL1   C11 6690   1.823   6.240   3.212
   75CHL1  H11A 6691   1.716   6.208   3.219
   75CHL1  H11B 6692   1.823   6.341   3.165
   75CHL1    C9 6693   1.917   6.140   3.135
   75CHL1    H9 6694   2.011   6.199   3.135
   75CHL1   C10 6695   1.887   6.113   2.983
   75CHL1   C19 6696   1.733   6.086   2.977
   75CHL1  H19A 6697   1.671   6.177   2.985
   75CHL1  H19B 6698   1.709   6.047   2.875
   75CHL1  H19C 6699   1.711   6.005   3.050
   75CHL1    C1 6700   1.914   6.236   2.888
   75CHL1   H1A 6701   1.825   6.302   2.893
   75CHL1   H1B 6702   1.999   6.293   2.932
   75CHL1    C2 6703   1.939   6.212   2.739
   75CHL1   H2A 6704   1.991   6.301   2.698
   75CHL1   H2B 6705   1.849   6.193   2.677
   75CHL1   C20 6706   1.882   6.186   3.711
   75CHL1   H20 6707   1.792   6.123   3.730
   75CHL1   C21 6708   1.829   6.329   3.684
   75CHL1  H21A 6709   1.906   6.398   3.644
   75CHL1  H21B 6710   1.790   6.369   3.780
   75CHL1  H21C 6711   1.750   6.335   3.606
   75CHL1   C22 6712   1.982   6.170   3.837
   75CHL1  H22A 6713   2.043   6.077   3.827
   75CHL1  H22B 6714   2.057   6.251   3.841
   75CHL1   C23 6715   1.911   6.156   3.971
   75CHL1  H23A 6716   1.831   6.233   3.972
   75CHL1  H23B 6717   1.862   6.056   3.971
   75CHL1   C24 6718   2.019   6.188   4.086
   75CHL1  H24A 6719   2.098   6.110   4.079
   75CHL1  H24B 6720   2.060   6.291   4.078
   75CHL1   C25 6721   1.969   6.168   4.231
   75CHL1   H25 6722   1.862   6.196   4.233
   75CHL1   C26 6723   1.975   6.018   4.263
   75CHL1  H26A 6724   1.919   5.944   4.202
   75CHL1  H26B 6725   2.082   5.988   4.269
   75CHL1  H26C 6726   1.931   6.006   4.364
   75CHL1   C27 6727   2.059   6.249   4.332
   75CHL1  H27A 6728   2.154   6.193   4.348
   75CHL1  H27B 6729   2.088   6.349   4.292
   75CHL1  H27C 6730   2.018   6.257   4.435
   76CHL1    C3 6731   5.975   5.639   2.759
   76CHL1    H3 6732   5.899   5.717   2.742
   76CHL1    O3 6733   6.042   5.604   2.635
   76CHL1   H3' 6734   6.092   5.528   2.666
   76CHL1    C4 6735   6.077   5.689   2.866
   76CHL1   H4A 6736   6.151   5.609   2.889
   76CHL1   H4B 6737   6.140   5.770   2.823
   76CHL1    C5 6738   6.004   5.731   2.995
   76CHL1    C6 6739   6.012   5.849   3.055
   76CHL1    H6 6740   6.072   5.929   3.009
   76CHL1    C7 6741   5.965   5.878   3.191
   76CHL1   H7A 6742   6.032   5.948   3.244
   76CHL1   H7B 6743   5.870   5.935   3.176
   76CHL1    C8 6744   5.912   5.756   3.271
   76CHL1    H8 6745   5.999   5.716   3.327
   76CHL1   C14 6746   5.816   5.800   3.383
   76CHL1   H14 6747   5.722   5.833   3.335
   76CHL1   C15 6748   5.842   5.932   3.458
   76CHL1  H15A 6749   5.948   5.959   3.478
   76CHL1  H15B 6750   5.815   6.020   3.395
   76CHL1   C16 6751   5.757   5.918   3.588
   76CHL1  H16A 6752   5.815   5.906   3.682
   76CHL1  H16B 6753   5.683   6.001   3.577
   76CHL1   C17 6754   5.685   5.781   3.575
   76CHL1   H17 6755   5.599   5.804   3.507
   76CHL1   C13 6756   5.779   5.691   3.486
   76CHL1   C18 6757   5.900   5.637   3.564
   76CHL1  H18A 6758   5.882   5.561   3.643
   76CHL1  H18B 6759   5.967   5.590   3.489
   76CHL1  H18C 6760   5.964   5.712   3.616
   76CHL1   C12 6761   5.712   5.575   3.403
   76CHL1  H12A 6762   5.697   5.485   3.467
   76CHL1  H12B 6763   5.615   5.619   3.372
   76CHL1   C11 6764   5.796   5.537   3.275
   76CHL1  H11A 6765   5.887   5.487   3.317
   76CHL1  H11B 6766   5.738   5.470   3.208
   76CHL1    C9 6767   5.843   5.653   3.182
   76CHL1    H9 6768   5.752   5.699   3.138
   76CHL1   C10 6769   5.935   5.609   3.060
   76CHL1   C19 6770   6.040   5.506   3.098
   76CHL1  H19A 6771   6.089   5.448   3.017
   76CHL1  H19B 6772   6.111   5.553   3.169
   76CHL1  H19C 6773   5.990   5.424   3.154
   76CHL1    C1 6774   5.838   5.555   2.948
   76CHL1   H1A 6775   5.785   5.470   2.997
   76CHL1   H1B 6776   5.760   5.632   2.934
   76CHL1    C2 6777   5.897   5.513   2.817
   76CHL1   H2A 6778   5.815   5.485   2.748
   76CHL1   H2B 6779   5.975   5.435   2.825
   76CHL1   C20 6780   5.646   5.731   3.716
   76CHL1   H20 6781   5.742   5.709   3.766
   76CHL1   C21 6782   5.558   5.606   3.695
   76CHL1  H21A 6783   5.519   5.564   3.790
   76CHL1  H21B 6784   5.620   5.520   3.664
   76CHL1  H21C 6785   5.470   5.617   3.628
   76CHL1   C22 6786   5.568   5.830   3.810
   76CHL1  H22A 6787   5.635   5.917   3.824
   76CHL1  H22B 6788   5.472   5.857   3.762
   76CHL1   C23 6789   5.546   5.788   3.957
   76CHL1  H23A 6790   5.612   5.704   3.986
   76CHL1  H23B 6791   5.562   5.872   4.029
   76CHL1   C24 6792   5.405   5.742   3.998
   76CHL1  H24A 6793   5.338   5.829   3.978
   76CHL1  H24B 6794   5.367   5.663   3.929
   76CHL1   C25 6795   5.399   5.698   4.145
   76CHL1   H25 6796   5.450   5.776   4.205
   76CHL1   C26 6797   5.251   5.703   4.187
   76CHL1  H26A 6798   5.233   5.813   4.184
   76CHL1  H26B 6799   5.184   5.651   4.114
   76CHL1  H26C 6800   5.244   5.663   4.290
   76CHL1   C27 6801   5.470   5.567   4.173
   76CHL1  H27A 6802   5.573   5.567   4.130
   76CHL1  H27B 6803   5.474   5.554   4.284
   76CHL1  H27C 6804   5.418   5.478   4.133
   77SOPE     N 6805   3.004   5.236   6.456
   77SOPE   HN1 6806   3.046   5.295   6.530
   77SOPE   HN2 6807   3.078   5.209   6.390
   77SOPE   HN3 6808   2.934   5.289   6.401
   77SOPE   C12 6809   2.961   5.119   6.528
   77SOPE  H12A 6810   2.864   5.079   6.490
   77SOPE  H12B 6811   2.941   5.142   6.634
   77SOPE   C11 6812   3.070   5.005   6.520
   77SOPE  H11A 6813   3.065   4.953   6.422
   77SOPE  H11B 6814   3.033   4.930   6.594
   77SOPE     P 6815   3.315   4.976   6.601
   77SOPE   O13 6816   3.259   4.889   6.709
   77SOPE   O14 6817   3.425   5.069   6.641
   77SOPE   O12 6818   3.196   5.057   6.543
   77SOPE   O11 6819   3.374   4.886   6.483
   77SOPE    C1 6820   3.390   4.938   6.352
   77SOPE    HA 6821   3.496   4.966   6.335
   77SOPE    HB 6822   3.328   5.029   6.335
   77SOPE    C2 6823   3.357   4.829   6.238
   77SOPE    HS 6824   3.394   4.729   6.270
   77SOPE   O21 6825   3.423   4.863   6.114
   77SOPE   C21 6826   3.558   4.832   6.105
   77SOPE   O22 6827   3.618   4.755   6.184
   77SOPE   C22 6828   3.621   4.885   5.972
   77SOPE   H2R 6829   3.624   4.995   5.990
   77SOPE   H2S 6830   3.554   4.853   5.890
   77SOPE    C3 6831   3.200   4.824   6.221
   77SOPE    HX 6832   3.148   4.922   6.206
   77SOPE    HY 6833   3.170   4.794   6.324
   77SOPE   O31 6834   3.158   4.726   6.131
   77SOPE   C31 6835   3.034   4.733   6.096
   77SOPE   O32 6836   2.951   4.818   6.131
   77SOPE   C32 6837   3.006   4.621   5.995
   77SOPE   H2X 6838   2.896   4.612   5.993
   77SOPE   H2Y 6839   3.060   4.526   6.018
   77SOPE   C23 6840   3.760   4.828   5.929
   77SOPE   H3R 6841   3.765   4.717   5.925
   77SOPE   H3S 6842   3.830   4.858   6.010
   77SOPE   C24 6843   3.802   4.877   5.788
   77SOPE   H4R 6844   3.805   4.986   5.767
   77SOPE   H4S 6845   3.907   4.844   5.776
   77SOPE   C25 6846   3.718   4.825   5.671
   77SOPE   H5R 6847   3.721   4.717   5.696
   77SOPE   H5S 6848   3.609   4.848   5.666
   77SOPE   C26 6849   3.769   4.859   5.527
   77SOPE   H6R 6850   3.871   4.819   5.511
   77SOPE   H6S 6851   3.705   4.807   5.453
   77SOPE   C27 6852   3.760   5.004   5.475
   77SOPE   H7R 6853   3.654   5.037   5.481
   77SOPE   H7S 6854   3.822   5.052   5.555
   77SOPE   C28 6855   3.822   5.019   5.335
   77SOPE   H8R 6856   3.917   4.964   5.320
   77SOPE   H8S 6857   3.753   4.969   5.263
   77SOPE   C29 6858   3.828   5.171   5.313
   77SOPE   H91 6859   3.728   5.218   5.321
   77SOPE  C210 6860   3.938   5.249   5.295
   77SOPE  H101 6861   3.929   5.356   5.274
   77SOPE  C211 6862   4.071   5.184   5.293
   77SOPE  H11R 6863   4.079   5.110   5.375
   77SOPE  H11S 6864   4.142   5.264   5.322
   77SOPE  C212 6865   4.129   5.136   5.161
   77SOPE  H12R 6866   4.057   5.073   5.104
   77SOPE  H12S 6867   4.213   5.067   5.187
   77SOPE  C213 6868   4.190   5.249   5.073
   77SOPE  H13R 6869   4.250   5.201   4.992
   77SOPE  H13S 6870   4.264   5.302   5.137
   77SOPE  C214 6871   4.088   5.348   5.014
   77SOPE  H14R 6872   4.141   5.420   4.949
   77SOPE  H14S 6873   4.037   5.400   5.097
   77SOPE  C215 6874   3.973   5.288   4.929
   77SOPE  H15R 6875   3.902   5.230   4.991
   77SOPE  H15S 6876   4.027   5.214   4.867
   77SOPE  C216 6877   3.892   5.386   4.847
   77SOPE  H16R 6878   3.826   5.322   4.785
   77SOPE  H16S 6879   3.962   5.439   4.780
   77SOPE  C217 6880   3.799   5.493   4.917
   77SOPE  H17R 6881   3.786   5.573   4.840
   77SOPE  H17S 6882   3.863   5.541   4.994
   77SOPE  C218 6883   3.657   5.455   4.965
   77SOPE  H18R 6884   3.664   5.353   5.007
   77SOPE  H18S 6885   3.578   5.455   4.887
   77SOPE  H18T 6886   3.628   5.527   5.045
   77SOPE   C33 6887   3.042   4.672   5.855
   77SOPE   H3X 6888   3.150   4.696   5.841
   77SOPE   H3Y 6889   2.976   4.761   5.855
   77SOPE   C34 6890   2.984   4.578   5.750
   77SOPE   H4X 6891   2.875   4.580   5.771
   77SOPE   H4Y 6892   3.017   4.473   5.769
   77SOPE   C35 6893   3.025   4.610   5.602
   77SOPE   H5X 6894   3.133   4.588   5.588
   77SOPE   H5Y 6895   2.998   4.717   5.594
   77SOPE   C36 6896   2.946   4.529   5.497
   77SOPE   H6X 6897   2.845   4.571   5.479
   77SOPE   H6Y 6898   2.941   4.422   5.526
   77SOPE   C37 6899   3.011   4.520   5.350
   77SOPE   H7X 6900   2.963   4.439   5.291
   77SOPE   H7Y 6901   3.110   4.470   5.363
   77SOPE   C38 6902   3.024   4.647   5.269
   77SOPE   H8X 6903   3.120   4.696   5.296
   77SOPE   H8Y 6904   2.946   4.725   5.283
   77SOPE   C39 6905   3.022   4.618   5.126
   77SOPE   H9X 6906   2.934   4.552   5.112
   77SOPE   H9Y 6907   3.113   4.563   5.092
   77SOPE  C310 6908   3.024   4.751   5.036
   77SOPE  H10X 6909   3.113   4.807   5.072
   77SOPE  H10Y 6910   2.934   4.813   5.055
   77SOPE  C311 6911   3.040   4.733   4.888
   77SOPE  H11X 6912   2.959   4.679   4.834
   77SOPE  H11Y 6913   3.130   4.673   4.864
   77SOPE  C312 6914   3.041   4.859   4.808
   77SOPE  H12X 6915   3.128   4.925   4.828
   77SOPE  H12Y 6916   2.950   4.919   4.829
   77SOPE  C313 6917   3.040   4.831   4.660
   77SOPE  H13X 6918   2.948   4.771   4.640
   77SOPE  H13Y 6919   3.129   4.768   4.639
   77SOPE  C314 6920   3.052   4.956   4.574
   77SOPE  H14X 6921   3.102   4.928   4.479
   77SOPE  H14Y 6922   3.119   5.026   4.626
   77SOPE  C315 6923   2.916   5.012   4.563
   77SOPE  H15X 6924   2.875   5.055   4.657
   77SOPE  H15Y 6925   2.849   4.932   4.524
   77SOPE  C316 6926   2.904   5.123   4.451
   77SOPE  H16X 6927   3.006   5.136   4.410
   77SOPE  H16Y 6928   2.880   5.211   4.513
   77SOPE  C317 6929   2.793   5.094   4.348
   77SOPE  H17X 6930   2.695   5.089   4.402
   77SOPE  H17Y 6931   2.814   4.993   4.307
   77SOPE  C318 6932   2.793   5.204   4.246
   77SOPE  H18X 6933   2.893   5.204   4.196
   77SOPE  H18Y 6934   2.786   5.310   4.281
   77SOPE  H18Z 6935   2.704   5.185   4.182
   78SOPE     N 6936   2.816   3.779   6.479
   78SOPE   HN1 6937   2.863   3.699   6.526
   78SOPE   HN2 6938   2.906   3.819   6.444
   78SOPE   HN3 6939   2.761   3.833   6.549
   78SOPE   C12 6940   2.736   3.728   6.368
   78SOPE  H12A 6941   2.814   3.686   6.301
   78SOPE  H12B 6942   2.692   3.817   6.319
   78SOPE   C11 6943   2.660   3.604   6.420
   78SOPE  H11A 6944   2.740   3.528   6.433
   78SOPE  H11B 6945   2.588   3.573   6.341
   78SOPE     P 6946   2.482   3.534   6.597
   78SOPE   O13 6947   2.438   3.572   6.734
   78SOPE   O14 6948   2.520   3.394   6.584
   78SOPE   O12 6949   2.598   3.630   6.543
   78SOPE   O11 6950   2.350   3.550   6.508
   78SOPE    C1 6951   2.315   3.678   6.459
   78SOPE    HA 6952   2.396   3.718   6.395
   78SOPE    HB 6953   2.294   3.750   6.541
   78SOPE    C2 6954   2.196   3.681   6.368
   78SOPE    HS 6955   2.102   3.646   6.416
   78SOPE   O21 6956   2.232   3.591   6.257
   78SOPE   C21 6957   2.184   3.464   6.271
   78SOPE   O22 6958   2.130   3.419   6.371
   78SOPE   C22 6959   2.223   3.367   6.165
   78SOPE   H2R 6960   2.144   3.362   6.088
   78SOPE   H2S 6961   2.235   3.270   6.219
   78SOPE    C3 6962   2.177   3.827   6.320
   78SOPE    HX 6963   2.273   3.847   6.267
   78SOPE    HY 6964   2.169   3.897   6.406
   78SOPE   O31 6965   2.067   3.842   6.222
   78SOPE   C31 6966   2.075   3.962   6.167
   78SOPE   O32 6967   2.134   4.059   6.208
   78SOPE   C32 6968   1.994   3.968   6.035
   78SOPE   H2X 6969   1.944   4.067   6.033
   78SOPE   H2Y 6970   1.911   3.893   6.037
   78SOPE   C23 6971   2.363   3.385   6.094
   78SOPE   H3R 6972   2.408   3.286   6.073
   78SOPE   H3S 6973   2.431   3.444   6.160
   78SOPE   C24 6974   2.362   3.468   5.961
   78SOPE   H4R 6975   2.291   3.551   5.981
   78SOPE   H4S 6976   2.459   3.508   5.925
   78SOPE   C25 6977   2.290   3.390   5.854
   78SOPE   H5R 6978   2.218   3.318   5.900
   78SOPE   H5S 6979   2.228   3.449   5.784
   78SOPE   C26 6980   2.392   3.297   5.778
   78SOPE   H6R 6981   2.465   3.351   5.715
   78SOPE   H6S 6982   2.447   3.242   5.857
   78SOPE   C27 6983   2.327   3.192   5.696
   78SOPE   H7R 6984   2.265   3.123   5.757
   78SOPE   H7S 6985   2.248   3.246   5.639
   78SOPE   C28 6986   2.431   3.111   5.622
   78SOPE   H8R 6987   2.519   3.170   5.587
   78SOPE   H8S 6988   2.487   3.051   5.697
   78SOPE   C29 6989   2.355   3.028   5.514
   78SOPE   H91 6990   2.297   2.947   5.560
   78SOPE  C210 6991   2.365   3.040   5.373
   78SOPE  H101 6992   2.281   3.000   5.314
   78SOPE  C211 6993   2.447   3.154   5.307
   78SOPE  H11R 6994   2.531   3.199   5.365
   78SOPE  H11S 6995   2.381   3.238   5.275
   78SOPE  C212 6996   2.494   3.103   5.167
   78SOPE  H12R 6997   2.405   3.083   5.103
   78SOPE  H12S 6998   2.556   3.012   5.181
   78SOPE  C213 6999   2.580   3.202   5.083
   78SOPE  H13R 7000   2.654   3.252   5.148
   78SOPE  H13S 7001   2.512   3.286   5.060
   78SOPE  C214 7002   2.643   3.162   4.949
   78SOPE  H14R 7003   2.737   3.111   4.976
   78SOPE  H14S 7004   2.671   3.260   4.903
   78SOPE  C215 7005   2.534   3.077   4.874
   78SOPE  H15R 7006   2.490   3.000   4.941
   78SOPE  H15S 7007   2.594   3.021   4.799
   78SOPE  C216 7008   2.414   3.150   4.811
   78SOPE  H16R 7009   2.455   3.225   4.740
   78SOPE  H16S 7010   2.350   3.208   4.881
   78SOPE  C217 7011   2.314   3.053   4.743
   78SOPE  H17R 7012   2.271   2.989   4.822
   78SOPE  H17S 7013   2.381   2.994   4.677
   78SOPE  C218 7014   2.209   3.120   4.659
   78SOPE  H18R 7015   2.144   3.051   4.600
   78SOPE  H18S 7016   2.256   3.184   4.582
   78SOPE  H18T 7017   2.143   3.177   4.728
   78SOPE   C33 7018   2.082   3.969   5.905
   78SOPE   H3X 7019   2.176   4.021   5.934
   78SOPE   H3Y 7020   2.028   4.016   5.820
   78SOPE   C34 7021   2.115   3.827   5.857
   78SOPE   H4X 7022   2.026   3.768   5.826
   78SOPE   H4Y 7023   2.163   3.770   5.940
   78SOPE   C35 7024   2.216   3.826   5.744
   78SOPE   H5X 7025   2.255   3.722   5.751
   78SOPE   H5Y 7026   2.305   3.888   5.764
   78SOPE   C36 7027   2.152   3.856   5.613
   78SOPE   H6X 7028   2.102   3.954   5.600
   78SOPE   H6Y 7029   2.073   3.778   5.606
   78SOPE   C37 7030   2.255   3.831   5.498
   78SOPE   H7X 7031   2.288   3.725   5.491
   78SOPE   H7Y 7032   2.344   3.893   5.522
   78SOPE   C38 7033   2.196   3.872   5.355
   78SOPE   H8X 7034   2.202   3.982   5.345
   78SOPE   H8Y 7035   2.094   3.832   5.335
   78SOPE   C39 7036   2.293   3.827   5.246
   78SOPE   H9X 7037   2.300   3.717   5.237
   78SOPE   H9Y 7038   2.398   3.860   5.267
   78SOPE  C310 7039   2.271   3.898   5.116
   78SOPE  H10X 7040   2.255   4.006   5.134
   78SOPE  H10Y 7041   2.171   3.862   5.083
   78SOPE  C311 7042   2.368   3.867   5.006
   78SOPE  H11X 7043   2.375   3.759   4.981
   78SOPE  H11Y 7044   2.472   3.893   5.032
   78SOPE  C312 7045   2.319   3.924   4.873
   78SOPE  H12X 7046   2.279   4.027   4.886
   78SOPE  H12Y 7047   2.229   3.865   4.843
   78SOPE  C313 7048   2.411   3.897   4.748
   78SOPE  H13X 7049   2.423   3.789   4.724
   78SOPE  H13Y 7050   2.509   3.946   4.765
   78SOPE  C314 7051   2.356   3.964   4.618
   78SOPE  H14X 7052   2.258   3.916   4.595
   78SOPE  H14Y 7053   2.416   3.947   4.526
   78SOPE  C315 7054   2.339   4.116   4.643
   78SOPE  H15X 7055   2.404   4.147   4.727
   78SOPE  H15Y 7056   2.231   4.134   4.665
   78SOPE  C316 7057   2.374   4.204   4.522
   78SOPE  H16X 7058   2.306   4.183   4.436
   78SOPE  H16Y 7059   2.474   4.168   4.490
   78SOPE  C317 7060   2.368   4.358   4.543
   78SOPE  H17X 7061   2.438   4.399   4.620
   78SOPE  H17Y 7062   2.265   4.374   4.581
   78SOPE  C318 7063   2.374   4.435   4.408
   78SOPE  H18X 7064   2.376   4.541   4.442
   78SOPE  H18Y 7065   2.284   4.416   4.345
   78SOPE  H18Z 7066   2.463   4.398   4.352
   79SOPE     N 7067   4.501   1.643   6.389
   79SOPE   HN1 7068   4.417   1.645   6.451
   79SOPE   HN2 7069   4.552   1.555   6.406
   79SOPE   HN3 7070   4.568   1.719   6.410
   79SOPE   C12 7071   4.458   1.645   6.244
   79SOPE  H12A 7072   4.414   1.545   6.222
   79SOPE  H12B 7073   4.550   1.650   6.183
   79SOPE   C11 7074   4.362   1.761   6.214
   79SOPE  H11A 7075   4.271   1.751   6.277
   79SOPE  H11B 7076   4.330   1.757   6.107
   79SOPE     P 7077   4.377   1.996   6.329
   79SOPE   O13 7078   4.430   2.117   6.273
   79SOPE   O14 7079   4.403   1.964   6.468
   79SOPE   O12 7080   4.439   1.877   6.248
   79SOPE   O11 7081   4.224   1.990   6.308
   79SOPE    C1 7082   4.161   2.025   6.178
   79SOPE    HA 7083   4.139   1.936   6.115
   79SOPE    HB 7084   4.229   2.092   6.121
   79SOPE    C2 7085   4.027   2.109   6.196
   79SOPE    HS 7086   4.055   2.187   6.269
   79SOPE   O21 7087   3.929   2.023   6.262
   79SOPE   C21 7088   3.821   2.083   6.300
   79SOPE   O22 7089   3.788   2.197   6.278
   79SOPE   C22 7090   3.724   1.965   6.348
   79SOPE   H2R 7091   3.622   2.008   6.340
   79SOPE   H2S 7092   3.753   1.941   6.452
   79SOPE    C3 7093   3.974   2.162   6.060
   79SOPE    HX 7094   3.877   2.213   6.075
   79SOPE    HY 7095   3.952   2.076   5.994
   79SOPE   O31 7096   4.072   2.245   5.997
   79SOPE   C31 7097   4.057   2.376   6.002
   79SOPE   O32 7098   3.973   2.441   6.061
   79SOPE   C32 7099   4.156   2.438   5.901
   79SOPE   H2X 7100   4.186   2.360   5.827
   79SOPE   H2Y 7101   4.248   2.458   5.959
   79SOPE   C23 7102   3.723   1.831   6.264
   79SOPE   H3R 7103   3.652   1.752   6.296
   79SOPE   H3S 7104   3.823   1.784   6.278
   79SOPE   C24 7105   3.695   1.859   6.116
   79SOPE   H4R 7106   3.765   1.925   6.061
   79SOPE   H4S 7107   3.702   1.764   6.059
   79SOPE   C25 7108   3.549   1.908   6.078
   79SOPE   H5R 7109   3.488   1.819   6.103
   79SOPE   H5S 7110   3.511   1.985   6.148
   79SOPE   C26 7111   3.515   1.954   5.941
   79SOPE   H6R 7112   3.519   1.869   5.869
   79SOPE   H6S 7113   3.410   1.992   5.941
   79SOPE   C27 7114   3.604   2.069   5.886
   79SOPE   H7R 7115   3.534   2.133   5.828
   79SOPE   H7S 7116   3.656   2.119   5.971
   79SOPE   C28 7117   3.714   2.032   5.782
   79SOPE   H8R 7118   3.782   1.954   5.823
   79SOPE   H8S 7119   3.655   1.984   5.701
   79SOPE   C29 7120   3.791   2.158   5.747
   79SOPE   H91 7121   3.797   2.237   5.824
   79SOPE  C210 7122   3.851   2.188   5.639
   79SOPE  H101 7123   3.901   2.285   5.624
   79SOPE  C211 7124   3.863   2.103   5.515
   79SOPE  H11R 7125   3.798   2.015   5.535
   79SOPE  H11S 7126   3.968   2.066   5.508
   79SOPE  C212 7127   3.838   2.178   5.379
   79SOPE  H12R 7128   3.917   2.255   5.380
   79SOPE  H12S 7129   3.737   2.223   5.364
   79SOPE  C213 7130   3.862   2.081   5.266
   79SOPE  H13R 7131   3.782   2.004   5.278
   79SOPE  H13S 7132   3.958   2.028   5.283
   79SOPE  C214 7133   3.854   2.136   5.122
   79SOPE  H14R 7134   3.918   2.225   5.105
   79SOPE  H14S 7135   3.749   2.161   5.096
   79SOPE  C215 7136   3.898   2.021   5.027
   79SOPE  H15R 7137   3.871   2.055   4.925
   79SOPE  H15S 7138   3.845   1.927   5.054
   79SOPE  C216 7139   4.054   2.001   5.016
   79SOPE  H16R 7140   4.086   1.943   5.105
   79SOPE  H16S 7141   4.107   2.099   5.010
   79SOPE  C217 7142   4.094   1.908   4.899
   79SOPE  H17R 7143   4.027   1.819   4.900
   79SOPE  H17S 7144   4.197   1.873   4.920
   79SOPE  C218 7145   4.095   1.983   4.764
   79SOPE  H18R 7146   4.123   1.921   4.677
   79SOPE  H18S 7147   4.168   2.067   4.768
   79SOPE  H18T 7148   3.994   2.023   4.739
   79SOPE   C33 7149   4.109   2.569   5.833
   79SOPE   H3X 7150   4.104   2.652   5.906
   79SOPE   H3Y 7151   4.002   2.548   5.811
   79SOPE   C34 7152   4.203   2.602   5.714
   79SOPE   H4X 7153   4.209   2.511   5.652
   79SOPE   H4Y 7154   4.307   2.610   5.751
   79SOPE   C35 7155   4.158   2.720   5.632
   79SOPE   H5X 7156   4.179   2.807   5.698
   79SOPE   H5Y 7157   4.050   2.716   5.607
   79SOPE   C36 7158   4.257   2.736   5.525
   79SOPE   H6X 7159   4.364   2.722   5.552
   79SOPE   H6Y 7160   4.243   2.843   5.498
   79SOPE   C37 7161   4.240   2.649   5.399
   79SOPE   H7X 7162   4.135   2.625   5.370
   79SOPE   H7Y 7163   4.277   2.544   5.409
   79SOPE   C38 7164   4.312   2.702   5.270
   79SOPE   H8X 7165   4.338   2.612   5.211
   79SOPE   H8Y 7166   4.412   2.748   5.288
   79SOPE   C39 7167   4.226   2.789   5.184
   79SOPE   H9X 7168   4.177   2.877   5.232
   79SOPE   H9Y 7169   4.152   2.725   5.131
   79SOPE  C310 7170   4.312   2.862   5.072
   79SOPE  H10X 7171   4.398   2.910   5.123
   79SOPE  H10Y 7172   4.245   2.939   5.026
   79SOPE  C311 7173   4.366   2.773   4.960
   79SOPE  H11X 7174   4.292   2.699   4.923
   79SOPE  H11Y 7175   4.439   2.717   5.023
   79SOPE  C312 7176   4.438   2.849   4.849
   79SOPE  H12X 7177   4.529   2.893   4.895
   79SOPE  H12Y 7178   4.377   2.937   4.820
   79SOPE  C313 7179   4.487   2.760   4.735
   79SOPE  H13X 7180   4.401   2.714   4.682
   79SOPE  H13Y 7181   4.544   2.680   4.785
   79SOPE  C314 7182   4.573   2.827   4.628
   79SOPE  H14X 7183   4.635   2.755   4.571
   79SOPE  H14Y 7184   4.647   2.897   4.672
   79SOPE  C315 7185   4.491   2.879   4.514
   79SOPE  H15X 7186   4.427   2.959   4.558
   79SOPE  H15Y 7187   4.429   2.795   4.476
   79SOPE  C316 7188   4.558   2.949   4.392
   79SOPE  H16X 7189   4.634   3.011   4.444
   79SOPE  H16Y 7190   4.493   3.020   4.336
   79SOPE  C317 7191   4.641   2.860   4.300
   79SOPE  H17X 7192   4.701   2.788   4.360
   79SOPE  H17Y 7193   4.722   2.919   4.251
   79SOPE  C318 7194   4.556   2.790   4.194
   79SOPE  H18X 7195   4.478   2.726   4.240
   79SOPE  H18Y 7196   4.618   2.727   4.126
   79SOPE  H18Z 7197   4.502   2.866   4.133
   80SOPE     N 7198   1.159   3.560   6.630
   80SOPE   HN1 7199   1.142   3.654   6.672
   80SOPE   HN2 7200   1.122   3.550   6.534
   80SOPE   HN3 7201   1.119   3.486   6.692
   80SOPE   C12 7202   1.312   3.547   6.627
   80SOPE  H12A 7203   1.332   3.452   6.573
   80SOPE  H12B 7204   1.334   3.533   6.735
   80SOPE   C11 7205   1.402   3.660   6.566
   80SOPE  H11A 7206   1.404   3.644   6.456
   80SOPE  H11B 7207   1.508   3.646   6.599
   80SOPE     P 7208   1.452   3.899   6.655
   80SOPE   O13 7209   1.501   3.829   6.778
   80SOPE   O14 7210   1.392   4.032   6.677
   80SOPE   O12 7211   1.351   3.796   6.588
   80SOPE   O11 7212   1.555   3.923   6.538
   80SOPE    C1 7213   1.517   3.958   6.405
   80SOPE    HA 7214   1.455   4.050   6.406
   80SOPE    HB 7215   1.442   3.884   6.369
   80SOPE    C2 7216   1.634   3.964   6.309
   80SOPE    HS 7217   1.592   3.966   6.206
   80SOPE   O21 7218   1.731   3.858   6.326
   80SOPE   C21 7219   1.672   3.733   6.312
   80SOPE   O22 7220   1.559   3.710   6.270
   80SOPE   C22 7221   1.779   3.623   6.342
   80SOPE   H2R 7222   1.767   3.593   6.448
   80SOPE   H2S 7223   1.884   3.657   6.327
   80SOPE    C3 7224   1.719   4.096   6.328
   80SOPE    HX 7225   1.813   4.087   6.269
   80SOPE    HY 7226   1.751   4.114   6.433
   80SOPE   O31 7227   1.637   4.207   6.294
   80SOPE   C31 7228   1.685   4.279   6.197
   80SOPE   O32 7229   1.790   4.270   6.136
   80SOPE   C32 7230   1.584   4.386   6.169
   80SOPE   H2X 7231   1.596   4.472   6.100
   80SOPE   H2Y 7232   1.560   4.436   6.266
   80SOPE   C23 7233   1.753   3.503   6.247
   80SOPE   H3R 7234   1.648   3.472   6.232
   80SOPE   H3S 7235   1.816   3.416   6.278
   80SOPE   C24 7236   1.804   3.559   6.107
   80SOPE   H4R 7237   1.730   3.632   6.070
   80SOPE   H4S 7238   1.902   3.608   6.127
   80SOPE   C25 7239   1.806   3.456   5.989
   80SOPE   H5R 7240   1.887   3.381   6.004
   80SOPE   H5S 7241   1.712   3.397   5.990
   80SOPE   C26 7242   1.834   3.528   5.855
   80SOPE   H6R 7243   1.740   3.579   5.825
   80SOPE   H6S 7244   1.912   3.604   5.878
   80SOPE   C27 7245   1.870   3.428   5.738
   80SOPE   H7R 7246   1.962   3.379   5.775
   80SOPE   H7S 7247   1.783   3.359   5.738
   80SOPE   C28 7248   1.878   3.493   5.600
   80SOPE   H8R 7249   1.797   3.569   5.602
   80SOPE   H8S 7250   1.960   3.567   5.584
   80SOPE   C29 7251   1.872   3.386   5.491
   80SOPE   H91 7252   1.814   3.297   5.520
   80SOPE  C210 7253   1.930   3.389   5.370
   80SOPE  H101 7254   1.917   3.306   5.298
   80SOPE  C211 7255   2.023   3.494   5.320
   80SOPE  H11R 7256   2.053   3.563   5.401
   80SOPE  H11S 7257   1.982   3.561   5.240
   80SOPE  C212 7258   2.143   3.409   5.259
   80SOPE  H12R 7259   2.158   3.313   5.312
   80SOPE  H12S 7260   2.232   3.474   5.248
   80SOPE  C213 7261   2.118   3.368   5.112
   80SOPE  H13R 7262   2.022   3.312   5.110
   80SOPE  H13S 7263   2.201   3.300   5.084
   80SOPE  C214 7264   2.117   3.492   5.018
   80SOPE  H14R 7265   2.202   3.558   5.045
   80SOPE  H14S 7266   2.025   3.551   5.033
   80SOPE  C215 7267   2.139   3.441   4.876
   80SOPE  H15R 7268   2.058   3.369   4.854
   80SOPE  H15S 7269   2.242   3.400   4.865
   80SOPE  C216 7270   2.136   3.560   4.769
   80SOPE  H16R 7271   2.154   3.496   4.680
   80SOPE  H16S 7272   2.219   3.633   4.781
   80SOPE  C217 7273   2.006   3.637   4.756
   80SOPE  H17R 7274   1.993   3.711   4.838
   80SOPE  H17S 7275   1.923   3.564   4.772
   80SOPE  C218 7276   1.982   3.704   4.617
   80SOPE  H18R 7277   1.972   3.631   4.535
   80SOPE  H18S 7278   2.051   3.789   4.599
   80SOPE  H18T 7279   1.881   3.749   4.625
   80SOPE   C33 7280   1.451   4.320   6.115
   80SOPE   H3X 7281   1.375   4.401   6.108
   80SOPE   H3Y 7282   1.421   4.251   6.197
   80SOPE   C34 7283   1.462   4.252   5.971
   80SOPE   H4X 7284   1.369   4.190   5.970
   80SOPE   H4Y 7285   1.540   4.175   5.952
   80SOPE   C35 7286   1.454   4.352   5.856
   80SOPE   H5X 7287   1.533   4.428   5.873
   80SOPE   H5Y 7288   1.353   4.397   5.869
   80SOPE   C36 7289   1.470   4.276   5.722
   80SOPE   H6X 7290   1.374   4.227   5.694
   80SOPE   H6Y 7291   1.561   4.214   5.721
   80SOPE   C37 7292   1.485   4.382   5.617
   80SOPE   H7X 7293   1.551   4.465   5.651
   80SOPE   H7Y 7294   1.383   4.427   5.608
   80SOPE   C38 7295   1.527   4.326   5.479
   80SOPE   H8X 7296   1.466   4.236   5.460
   80SOPE   H8Y 7297   1.634   4.300   5.492
   80SOPE   C39 7298   1.516   4.430   5.367
   80SOPE   H9X 7299   1.591   4.511   5.382
   80SOPE   H9Y 7300   1.411   4.464   5.380
   80SOPE  C310 7301   1.526   4.358   5.232
   80SOPE  H10X 7302   1.446   4.281   5.236
   80SOPE  H10Y 7303   1.620   4.307   5.202
   80SOPE  C311 7304   1.503   4.446   5.112
   80SOPE  H11X 7305   1.572   4.531   5.096
   80SOPE  H11Y 7306   1.403   4.490   5.133
   80SOPE  C312 7307   1.486   4.361   4.982
   80SOPE  H12X 7308   1.416   4.280   5.010
   80SOPE  H12Y 7309   1.588   4.318   4.968
   80SOPE  C313 7310   1.446   4.439   4.858
   80SOPE  H13X 7311   1.534   4.501   4.828
   80SOPE  H13Y 7312   1.364   4.510   4.879
   80SOPE  C314 7313   1.404   4.348   4.738
   80SOPE  H14X 7314   1.487   4.277   4.716
   80SOPE  H14Y 7315   1.399   4.419   4.652
   80SOPE  C315 7316   1.269   4.275   4.758
   80SOPE  H15X 7317   1.191   4.342   4.800
   80SOPE  H15Y 7318   1.290   4.198   4.835
   80SOPE  C316 7319   1.205   4.195   4.639
   80SOPE  H16X 7320   1.292   4.138   4.600
   80SOPE  H16Y 7321   1.192   4.277   4.564
   80SOPE  C317 7322   1.076   4.120   4.682
   80SOPE  H17X 7323   1.009   4.198   4.726
   80SOPE  H17Y 7324   1.102   4.042   4.757
   80SOPE  C318 7325   1.004   4.053   4.568
   80SOPE  H18X 7326   0.916   4.000   4.609
   80SOPE  H18Y 7327   1.074   3.979   4.525
   80SOPE  H18Z 7328   0.965   4.122   4.490
   81SOPE     N 7329   4.554   0.604   6.669
   81SOPE   HN1 7330   4.632   0.666   6.698
   81SOPE   HN2 7331   4.531   0.630   6.571
   81SOPE   HN3 7332   4.467   0.612   6.724
   81SOPE   C12 7333   4.594   0.464   6.643
   81SOPE  H12A 7334   4.507   0.408   6.602
   81SOPE  H12B 7335   4.631   0.427   6.741
   81SOPE   C11 7336   4.699   0.458   6.528
   81SOPE  H11A 7337   4.657   0.502   6.435
   81SOPE  H11B 7338   4.737   0.355   6.514
   81SOPE     P 7339   4.955   0.525   6.531
   81SOPE   O13 7340   4.986   0.385   6.559
   81SOPE   O14 7341   5.033   0.627   6.595
   81SOPE   O12 7342   4.799   0.552   6.569
   81SOPE   O11 7343   4.966   0.544   6.374
   81SOPE    C1 7344   4.887   0.464   6.282
   81SOPE    HA 7345   4.783   0.502   6.276
   81SOPE    HB 7346   4.872   0.360   6.319
   81SOPE    C2 7347   4.957   0.461   6.142
   81SOPE    HS 7348   5.053   0.412   6.168
   81SOPE   O21 7349   4.968   0.591   6.090
   81SOPE   C21 7350   5.077   0.617   6.017
   81SOPE   O22 7351   5.146   0.527   5.975
   81SOPE   C22 7352   5.098   0.769   5.988
   81SOPE   H2R 7353   5.107   0.810   6.091
   81SOPE   H2S 7354   5.001   0.804   5.947
   81SOPE    C3 7355   4.872   0.367   6.050
   81SOPE    HX 7356   4.864   0.261   6.081
   81SOPE    HY 7357   4.908   0.351   5.946
   81SOPE   O31 7358   4.735   0.407   6.041
   81SOPE   C31 7359   4.702   0.492   5.938
   81SOPE   O32 7360   4.775   0.541   5.857
   81SOPE   C32 7361   4.548   0.495   5.930
   81SOPE   H2X 7362   4.513   0.433   6.015
   81SOPE   H2Y 7363   4.517   0.450   5.833
   81SOPE   C23 7364   5.215   0.797   5.895
   81SOPE   H3R 7365   5.211   0.908   5.887
   81SOPE   H3S 7366   5.197   0.761   5.791
   81SOPE   C24 7367   5.352   0.760   5.954
   81SOPE   H4R 7368   5.350   0.794   6.059
   81SOPE   H4S 7369   5.359   0.649   5.960
   81SOPE   C25 7370   5.471   0.810   5.880
   81SOPE   H5R 7371   5.468   0.921   5.873
   81SOPE   H5S 7372   5.558   0.790   5.945
   81SOPE   C26 7373   5.479   0.759   5.734
   81SOPE   H6R 7374   5.491   0.649   5.741
   81SOPE   H6S 7375   5.385   0.783   5.681
   81SOPE   C27 7376   5.591   0.810   5.639
   81SOPE   H7R 7377   5.593   0.921   5.632
   81SOPE   H7S 7378   5.682   0.777   5.693
   81SOPE   C28 7379   5.577   0.747   5.501
   81SOPE   H8R 7380   5.663   0.783   5.440
   81SOPE   H8S 7381   5.593   0.638   5.510
   81SOPE   C29 7382   5.454   0.774   5.419
   81SOPE   H91 7383   5.365   0.720   5.454
   81SOPE  C210 7384   5.437   0.852   5.311
   81SOPE  H101 7385   5.350   0.846   5.245
   81SOPE  C211 7386   5.546   0.935   5.247
   81SOPE  H11R 7387   5.631   0.965   5.312
   81SOPE  H11S 7388   5.500   1.032   5.218
   81SOPE  C212 7389   5.612   0.877   5.124
   81SOPE  H12R 7390   5.669   0.790   5.162
   81SOPE  H12S 7391   5.677   0.953   5.078
   81SOPE  C213 7392   5.509   0.824   5.017
   81SOPE  H13R 7393   5.424   0.895   5.010
   81SOPE  H13S 7394   5.475   0.729   5.064
   81SOPE  C214 7395   5.573   0.784   4.881
   81SOPE  H14R 7396   5.663   0.729   4.917
   81SOPE  H14S 7397   5.615   0.873   4.830
   81SOPE  C215 7398   5.472   0.718   4.789
   81SOPE  H15R 7399   5.379   0.778   4.784
   81SOPE  H15S 7400   5.455   0.615   4.829
   81SOPE  C216 7401   5.523   0.716   4.643
   81SOPE  H16R 7402   5.612   0.650   4.632
   81SOPE  H16S 7403   5.556   0.819   4.615
   81SOPE  C217 7404   5.405   0.672   4.556
   81SOPE  H17R 7405   5.308   0.700   4.601
   81SOPE  H17S 7406   5.412   0.562   4.565
   81SOPE  C218 7407   5.423   0.716   4.413
   81SOPE  H18R 7408   5.340   0.680   4.348
   81SOPE  H18S 7409   5.517   0.671   4.374
   81SOPE  H18T 7410   5.434   0.826   4.412
   81SOPE   C33 7411   4.488   0.639   5.945
   81SOPE   H3X 7412   4.512   0.686   6.043
   81SOPE   H3Y 7413   4.378   0.623   5.948
   81SOPE   C34 7414   4.500   0.733   5.824
   81SOPE   H4X 7415   4.611   0.745   5.820
   81SOPE   H4Y 7416   4.449   0.830   5.839
   81SOPE   C35 7417   4.440   0.679   5.691
   81SOPE   H5X 7418   4.331   0.673   5.711
   81SOPE   H5Y 7419   4.494   0.584   5.669
   81SOPE   C36 7420   4.459   0.784   5.580
   81SOPE   H6X 7421   4.445   0.886   5.621
   81SOPE   H6Y 7422   4.373   0.771   5.512
   81SOPE   C37 7423   4.591   0.779   5.495
   81SOPE   H7X 7424   4.610   0.672   5.472
   81SOPE   H7Y 7425   4.673   0.798   5.568
   81SOPE   C38 7426   4.599   0.878   5.378
   81SOPE   H8X 7427   4.706   0.905   5.359
   81SOPE   H8Y 7428   4.537   0.968   5.396
   81SOPE   C39 7429   4.561   0.813   5.242
   81SOPE   H9X 7430   4.451   0.797   5.247
   81SOPE   H9Y 7431   4.612   0.717   5.218
   81SOPE  C310 7432   4.568   0.912   5.122
   81SOPE  H10X 7433   4.661   0.972   5.130
   81SOPE  H10Y 7434   4.483   0.982   5.136
   81SOPE  C311 7435   4.558   0.833   4.989
   81SOPE  H11X 7436   4.458   0.783   4.987
   81SOPE  H11Y 7437   4.629   0.749   4.982
   81SOPE  C312 7438   4.582   0.924   4.859
   81SOPE  H12X 7439   4.667   0.992   4.881
   81SOPE  H12Y 7440   4.495   0.994   4.857
   81SOPE  C313 7441   4.615   0.862   4.734
   81SOPE  H13X 7442   4.544   0.781   4.709
   81SOPE  H13Y 7443   4.720   0.826   4.733
   81SOPE  C314 7444   4.608   0.953   4.616
   81SOPE  H14X 7445   4.684   1.031   4.633
   81SOPE  H14Y 7446   4.509   1.003   4.611
   81SOPE  C315 7447   4.629   0.875   4.489
   81SOPE  H15X 7448   4.570   0.781   4.490
   81SOPE  H15Y 7449   4.730   0.827   4.495
   81SOPE  C316 7450   4.606   0.954   4.357
   81SOPE  H16X 7451   4.688   1.029   4.357
   81SOPE  H16Y 7452   4.503   0.992   4.372
   81SOPE  C317 7453   4.597   0.885   4.223
   81SOPE  H17X 7454   4.697   0.847   4.194
   81SOPE  H17Y 7455   4.549   0.936   4.137
   81SOPE  C318 7456   4.510   0.757   4.234
   81SOPE  H18X 7457   4.555   0.677   4.296
   81SOPE  H18Y 7458   4.488   0.719   4.132
   81SOPE  H18Z 7459   4.414   0.783   4.283
   82SOPE     N 7460   1.729   6.677   6.396
   82SOPE   HN1 7461   1.745   6.777   6.419
   82SOPE   HN2 7462   1.808   6.625   6.350
   82SOPE   HN3 7463   1.653   6.694   6.327
   82SOPE   C12 7464   1.677   6.594   6.514
   82SOPE  H12A 7465   1.744   6.600   6.602
   82SOPE  H12B 7466   1.675   6.486   6.486
   82SOPE   C11 7467   1.542   6.642   6.567
   82SOPE  H11A 7468   1.520   6.564   6.643
   82SOPE  H11B 7469   1.467   6.623   6.487
   82SOPE     P 7470   1.412   6.847   6.651
   82SOPE   O13 7471   1.443   6.990   6.670
   82SOPE   O14 7472   1.346   6.766   6.755
   82SOPE   O12 7473   1.552   6.777   6.612
   82SOPE   O11 7474   1.340   6.838   6.514
   82SOPE    C1 7475   1.394   6.905   6.397
   82SOPE    HA 7476   1.501   6.884   6.376
   82SOPE    HB 7477   1.378   7.014   6.406
   82SOPE    C2 7478   1.326   6.858   6.269
   82SOPE    HS 7479   1.304   6.750   6.278
   82SOPE   O21 7480   1.408   6.874   6.148
   82SOPE   C21 7481   1.519   6.815   6.123
   82SOPE   O22 7482   1.570   6.729   6.190
   82SOPE   C22 7483   1.572   6.892   5.995
   82SOPE   H2R 7484   1.666   6.942   6.026
   82SOPE   H2S 7485   1.498   6.972   5.977
   82SOPE    C3 7486   1.186   6.925   6.252
   82SOPE    HX 7487   1.172   7.031   6.283
   82SOPE    HY 7488   1.124   6.875   6.329
   82SOPE   O31 7489   1.120   6.887   6.131
   82SOPE   C31 7490   1.165   6.972   6.030
   82SOPE   O32 7491   1.238   7.064   6.045
   82SOPE   C32 7492   1.115   6.919   5.896
   82SOPE   H2X 7493   1.012   6.960   5.887
   82SOPE   H2Y 7494   1.098   6.810   5.900
   82SOPE   C23 7495   1.598   6.788   5.890
   82SOPE   H3R 7496   1.509   6.777   5.824
   82SOPE   H3S 7497   1.629   6.686   5.923
   82SOPE   C24 7498   1.710   6.821   5.791
   82SOPE   H4R 7499   1.688   6.912   5.732
   82SOPE   H4S 7500   1.808   6.827   5.844
   82SOPE   C25 7501   1.726   6.717   5.686
   82SOPE   H5R 7502   1.819   6.753   5.635
   82SOPE   H5S 7503   1.754   6.617   5.725
   82SOPE   C26 7504   1.597   6.685   5.608
   82SOPE   H6R 7505   1.528   6.634   5.678
   82SOPE   H6S 7506   1.541   6.780   5.592
   82SOPE   C27 7507   1.613   6.601   5.484
   82SOPE   H7R 7508   1.673   6.655   5.407
   82SOPE   H7S 7509   1.688   6.525   5.517
   82SOPE   C28 7510   1.500   6.512   5.438
   82SOPE   H8R 7511   1.546   6.433   5.375
   82SOPE   H8S 7512   1.470   6.451   5.526
   82SOPE   C29 7513   1.392   6.591   5.374
   82SOPE   H91 7514   1.370   6.691   5.414
   82SOPE  C210 7515   1.323   6.543   5.267
   82SOPE  H101 7516   1.240   6.602   5.224
   82SOPE  C211 7517   1.334   6.414   5.189
   82SOPE  H11R 7518   1.243   6.352   5.200
   82SOPE  H11S 7519   1.422   6.351   5.214
   82SOPE  C212 7520   1.348   6.453   5.036
   82SOPE  H12R 7521   1.446   6.489   4.997
   82SOPE  H12S 7522   1.282   6.539   5.013
   82SOPE  C213 7523   1.305   6.330   4.955
   82SOPE  H13R 7524   1.207   6.282   4.973
   82SOPE  H13S 7525   1.378   6.255   4.993
   82SOPE  C214 7526   1.322   6.348   4.803
   82SOPE  H14R 7527   1.272   6.440   4.767
   82SOPE  H14S 7528   1.273   6.263   4.752
   82SOPE  C215 7529   1.468   6.347   4.764
   82SOPE  H15R 7530   1.529   6.274   4.821
   82SOPE  H15S 7531   1.504   6.448   4.794
   82SOPE  C216 7532   1.478   6.324   4.608
   82SOPE  H16R 7533   1.420   6.405   4.558
   82SOPE  H16S 7534   1.443   6.221   4.587
   82SOPE  C217 7535   1.623   6.343   4.554
   82SOPE  H17R 7536   1.613   6.306   4.450
   82SOPE  H17S 7537   1.683   6.265   4.607
   82SOPE  C218 7538   1.673   6.487   4.566
   82SOPE  H18R 7539   1.696   6.510   4.673
   82SOPE  H18S 7540   1.595   6.561   4.540
   82SOPE  H18T 7541   1.763   6.491   4.500
   82SOPE   C33 7542   1.213   6.953   5.777
   82SOPE   H3X 7543   1.308   6.897   5.772
   82SOPE   H3Y 7544   1.257   7.055   5.786
   82SOPE   C34 7545   1.142   6.933   5.640
   82SOPE   H4X 7546   1.044   6.984   5.636
   82SOPE   H4Y 7547   1.125   6.824   5.628
   82SOPE   C35 7548   1.227   6.966   5.516
   82SOPE   H5X 7549   1.331   6.934   5.540
   82SOPE   H5Y 7550   1.229   7.077   5.508
   82SOPE   C36 7551   1.176   6.909   5.381
   82SOPE   H6X 7552   1.172   6.798   5.375
   82SOPE   H6Y 7553   1.254   6.942   5.309
   82SOPE   C37 7554   1.048   6.965   5.336
   82SOPE   H7X 7555   1.042   7.066   5.383
   82SOPE   H7Y 7556   0.952   6.925   5.377
   82SOPE   C38 7557   1.027   6.975   5.181
   82SOPE   H8X 7558   1.123   6.990   5.128
   82SOPE   H8Y 7559   0.971   7.067   5.153
   82SOPE   C39 7560   0.977   6.836   5.134
   82SOPE   H9X 7561   0.867   6.832   5.149
   82SOPE   H9Y 7562   1.022   6.750   5.188
   82SOPE  C310 7563   1.008   6.815   4.984
   82SOPE  H10X 7564   1.118   6.805   4.975
   82SOPE  H10Y 7565   0.964   6.905   4.937
   82SOPE  C311 7566   0.945   6.694   4.919
   82SOPE  H11X 7567   0.837   6.699   4.942
   82SOPE  H11Y 7568   0.986   6.594   4.944
   82SOPE  C312 7569   0.963   6.699   4.765
   82SOPE  H12X 7570   1.072   6.690   4.749
   82SOPE  H12Y 7571   0.920   6.796   4.733
   82SOPE  C313 7572   0.909   6.581   4.683
   82SOPE  H13X 7573   0.802   6.599   4.707
   82SOPE  H13Y 7574   0.926   6.482   4.732
   82SOPE  C314 7575   0.943   6.574   4.536
   82SOPE  H14X 7576   0.945   6.675   4.489
   82SOPE  H14Y 7577   0.859   6.518   4.489
   82SOPE  C315 7578   1.080   6.514   4.513
   82SOPE  H15X 7579   1.083   6.417   4.567
   82SOPE  H15Y 7580   1.163   6.570   4.560
   82SOPE  C316 7581   1.102   6.488   4.355
   82SOPE  H16X 7582   1.110   6.592   4.317
   82SOPE  H16Y 7583   1.004   6.461   4.309
   82SOPE  C317 7584   1.209   6.390   4.313
   82SOPE  H17X 7585   1.182   6.286   4.338
   82SOPE  H17Y 7586   1.292   6.420   4.381
   82SOPE  C318 7587   1.260   6.408   4.169
   82SOPE  H18X 7588   1.290   6.515   4.165
   82SOPE  H18Y 7589   1.189   6.386   4.086
   82SOPE  H18Z 7590   1.347   6.341   4.155
   83SOPE     N 7591   1.388   5.605   1.916
   83SOPE   HN1 7592   1.468   5.642   1.860
   83SOPE   HN2 7593   1.306   5.577   1.859
   83SOPE   HN3 7594   1.355   5.684   1.975
   83SOPE   C12 7595   1.433   5.487   1.992
   83SOPE  H12A 7596   1.517   5.514   2.060
   83SOPE  H12B 7597   1.463   5.406   1.923
   83SOPE   C11 7598   1.321   5.409   2.073
   83SOPE  H11A 7599   1.362   5.316   2.117
   83SOPE  H11B 7600   1.246   5.374   1.999
   83SOPE     P 7601   1.287   5.504   2.316
   83SOPE   O13 7602   1.175   5.583   2.377
   83SOPE   O14 7603   1.420   5.558   2.334
   83SOPE   O12 7604   1.259   5.505   2.160
   83SOPE   O11 7605   1.279   5.349   2.353
   83SOPE    C1 7606   1.400   5.282   2.390
   83SOPE    HA 7607   1.488   5.322   2.335
   83SOPE    HB 7608   1.386   5.177   2.358
   83SOPE    C2 7609   1.412   5.289   2.541
   83SOPE    HS 7610   1.317   5.243   2.576
   83SOPE   O21 7611   1.448   5.422   2.592
   83SOPE   C21 7612   1.356   5.463   2.683
   83SOPE   O22 7613   1.259   5.405   2.722
   83SOPE   C22 7614   1.401   5.605   2.735
   83SOPE   H2R 7615   1.348   5.683   2.677
   83SOPE   H2S 7616   1.508   5.620   2.708
   83SOPE    C3 7617   1.530   5.196   2.579
   83SOPE    HX 7618   1.628   5.237   2.549
   83SOPE    HY 7619   1.535   5.102   2.520
   83SOPE   O31 7620   1.525   5.163   2.724
   83SOPE   C31 7621   1.477   5.036   2.744
   83SOPE   O32 7622   1.413   4.972   2.664
   83SOPE   C32 7623   1.505   4.985   2.891
   83SOPE   H2X 7624   1.612   5.005   2.914
   83SOPE   H2Y 7625   1.474   4.879   2.898
   83SOPE   C23 7626   1.375   5.624   2.886
   83SOPE   H3R 7627   1.428   5.715   2.919
   83SOPE   H3S 7628   1.414   5.541   2.949
   83SOPE   C24 7629   1.220   5.643   2.917
   83SOPE   H4R 7630   1.193   5.732   2.856
   83SOPE   H4S 7631   1.168   5.552   2.882
   83SOPE   C25 7632   1.178   5.671   3.062
   83SOPE   H5R 7633   1.233   5.755   3.109
   83SOPE   H5S 7634   1.071   5.699   3.056
   83SOPE   C26 7635   1.204   5.545   3.152
   83SOPE   H6R 7636   1.151   5.454   3.114
   83SOPE   H6S 7637   1.311   5.519   3.145
   83SOPE   C27 7638   1.152   5.581   3.291
   83SOPE   H7R 7639   1.235   5.625   3.350
   83SOPE   H7S 7640   1.080   5.665   3.277
   83SOPE   C28 7641   1.088   5.466   3.368
   83SOPE   H8R 7642   1.001   5.414   3.323
   83SOPE   H8S 7643   1.169   5.390   3.368
   83SOPE   C29 7644   1.051   5.514   3.503
   83SOPE   H91 7645   1.074   5.620   3.526
   83SOPE  C210 7646   1.008   5.433   3.601
   83SOPE  H101 7647   1.005   5.474   3.703
   83SOPE  C211 7648   0.975   5.290   3.594
   83SOPE  H11R 7649   1.048   5.237   3.659
   83SOPE  H11S 7650   0.981   5.239   3.495
   83SOPE  C212 7651   0.838   5.251   3.657
   83SOPE  H12R 7652   0.813   5.148   3.621
   83SOPE  H12S 7653   0.754   5.309   3.613
   83SOPE  C213 7654   0.826   5.254   3.809
   83SOPE  H13R 7655   0.728   5.212   3.840
   83SOPE  H13S 7656   0.804   5.359   3.838
   83SOPE  C214 7657   0.939   5.210   3.895
   83SOPE  H14R 7658   1.032   5.270   3.893
   83SOPE  H14S 7659   0.976   5.113   3.855
   83SOPE  C215 7660   0.896   5.180   4.040
   83SOPE  H15R 7661   0.806   5.114   4.047
   83SOPE  H15S 7662   0.871   5.277   4.088
   83SOPE  C216 7663   1.011   5.117   4.120
   83SOPE  H16R 7664   1.102   5.180   4.128
   83SOPE  H16S 7665   1.038   5.025   4.065
   83SOPE  C217 7666   0.971   5.079   4.262
   83SOPE  H17R 7667   0.872   5.029   4.255
   83SOPE  H17S 7668   0.976   5.170   4.325
   83SOPE  C218 7669   1.066   4.985   4.340
   83SOPE  H18R 7670   1.108   4.904   4.276
   83SOPE  H18S 7671   1.019   4.945   4.433
   83SOPE  H18T 7672   1.154   5.047   4.364
   83SOPE   C33 7673   1.416   5.061   2.989
   83SOPE   H3X 7674   1.310   5.030   2.981
   83SOPE   H3Y 7675   1.427   5.171   2.980
   83SOPE   C34 7676   1.456   5.031   3.129
   83SOPE   H4X 7677   1.561   5.062   3.150
   83SOPE   H4Y 7678   1.444   4.922   3.148
   83SOPE   C35 7679   1.373   5.114   3.232
   83SOPE   H5X 7680   1.267   5.107   3.201
   83SOPE   H5Y 7681   1.397   5.222   3.236
   83SOPE   C36 7682   1.407   5.074   3.375
   83SOPE   H6X 7683   1.511   5.107   3.397
   83SOPE   H6Y 7684   1.400   4.964   3.376
   83SOPE   C37 7685   1.306   5.142   3.471
   83SOPE   H7X 7686   1.202   5.105   3.465
   83SOPE   H7Y 7687   1.307   5.253   3.461
   83SOPE   C38 7688   1.362   5.100   3.611
   83SOPE   H8X 7689   1.454   5.156   3.639
   83SOPE   H8Y 7690   1.392   4.993   3.601
   83SOPE   C39 7691   1.256   5.106   3.729
   83SOPE   H9X 7692   1.165   5.051   3.698
   83SOPE   H9Y 7693   1.230   5.214   3.738
   83SOPE  C310 7694   1.314   5.055   3.862
   83SOPE  H10X 7695   1.375   4.963   3.860
   83SOPE  H10Y 7696   1.225   5.017   3.916
   83SOPE  C311 7697   1.402   5.150   3.942
   83SOPE  H11X 7698   1.340   5.228   3.992
   83SOPE  H11Y 7699   1.477   5.207   3.883
   83SOPE  C312 7700   1.485   5.077   4.047
   83SOPE  H12X 7701   1.562   5.146   4.085
   83SOPE  H12Y 7702   1.531   4.993   3.991
   83SOPE  C313 7703   1.405   5.033   4.163
   83SOPE  H13X 7704   1.333   4.950   4.146
   83SOPE  H13Y 7705   1.349   5.119   4.205
   83SOPE  C314 7706   1.501   4.970   4.263
   83SOPE  H14X 7707   1.605   4.987   4.228
   83SOPE  H14Y 7708   1.485   4.861   4.262
   83SOPE  C315 7709   1.505   5.030   4.407
   83SOPE  H15X 7710   1.403   5.023   4.452
   83SOPE  H15Y 7711   1.525   5.139   4.394
   83SOPE  C316 7712   1.621   4.975   4.498
   83SOPE  H16X 7713   1.716   4.980   4.440
   83SOPE  H16Y 7714   1.598   4.868   4.521
   83SOPE  C317 7715   1.640   5.049   4.635
   83SOPE  H17X 7716   1.634   4.979   4.721
   83SOPE  H17Y 7717   1.558   5.123   4.648
   83SOPE  C318 7718   1.775   5.125   4.640
   83SOPE  H18X 7719   1.774   5.199   4.723
   83SOPE  H18Y 7720   1.789   5.182   4.545
   83SOPE  H18Z 7721   1.851   5.048   4.665
   84SOPE     N 7722   0.965   2.886   1.964
   84SOPE   HN1 7723   1.023   2.846   1.887
   84SOPE   HN2 7724   1.001   2.867   2.059
   84SOPE   HN3 7725   0.876   2.834   1.973
   84SOPE   C12 7726   0.946   3.033   1.922
   84SOPE  H12A 7727   1.047   3.080   1.919
   84SOPE  H12B 7728   0.891   3.102   1.990
   84SOPE   C11 7729   0.893   3.033   1.773
   84SOPE  H11A 7730   0.960   2.978   1.703
   84SOPE  H11B 7731   0.889   3.139   1.741
   84SOPE     P 7732   0.640   3.048   1.760
   84SOPE   O13 7733   0.531   2.963   1.717
   84SOPE   O14 7734   0.663   3.172   1.683
   84SOPE   O12 7735   0.767   2.964   1.759
   84SOPE   O11 7736   0.625   3.098   1.911
   84SOPE    C1 7737   0.612   3.011   2.024
   84SOPE    HA 7738   0.704   2.951   2.039
   84SOPE    HB 7739   0.529   2.937   2.013
   84SOPE    C2 7740   0.585   3.087   2.158
   84SOPE    HS 7741   0.484   3.132   2.148
   84SOPE   O21 7742   0.690   3.191   2.164
   84SOPE   C21 7743   0.652   3.296   2.231
   84SOPE   O22 7744   0.540   3.323   2.270
   84SOPE   C22 7745   0.767   3.402   2.240
   84SOPE   H2R 7746   0.787   3.438   2.137
   84SOPE   H2S 7747   0.859   3.365   2.290
   84SOPE    C3 7748   0.590   2.988   2.276
   84SOPE    HX 7749   0.689   2.938   2.267
   84SOPE    HY 7750   0.515   2.905   2.269
   84SOPE   O31 7751   0.589   3.048   2.405
   84SOPE   C31 7752   0.472   3.083   2.454
   84SOPE   O32 7753   0.365   3.065   2.399
   84SOPE   C32 7754   0.497   3.153   2.598
   84SOPE   H2X 7755   0.399   3.198   2.622
   84SOPE   H2Y 7756   0.571   3.234   2.579
   84SOPE   C23 7757   0.744   3.526   2.327
   84SOPE   H3R 7758   0.651   3.579   2.299
   84SOPE   H3S 7759   0.827   3.598   2.309
   84SOPE   C24 7760   0.730   3.493   2.476
   84SOPE   H4R 7761   0.671   3.576   2.521
   84SOPE   H4S 7762   0.668   3.402   2.486
   84SOPE   C25 7763   0.861   3.478   2.539
   84SOPE   H5R 7764   0.919   3.408   2.476
   84SOPE   H5S 7765   0.911   3.576   2.554
   84SOPE   C26 7766   0.859   3.423   2.692
   84SOPE   H6R 7767   0.810   3.324   2.699
   84SOPE   H6S 7768   0.965   3.401   2.715
   84SOPE   C27 7769   0.793   3.518   2.794
   84SOPE   H7R 7770   0.854   3.610   2.803
   84SOPE   H7S 7771   0.686   3.528   2.768
   84SOPE   C28 7772   0.798   3.456   2.937
   84SOPE   H8R 7773   0.756   3.353   2.934
   84SOPE   H8S 7774   0.906   3.438   2.954
   84SOPE   C29 7775   0.727   3.529   3.044
   84SOPE   H91 7776   0.619   3.516   3.056
   84SOPE  C210 7777   0.791   3.610   3.133
   84SOPE  H101 7778   0.741   3.656   3.219
   84SOPE  C211 7779   0.940   3.628   3.138
   84SOPE  H11R 7780   0.973   3.734   3.147
   84SOPE  H11S 7781   0.989   3.583   3.048
   84SOPE  C212 7782   0.994   3.552   3.258
   84SOPE  H12R 7783   1.102   3.532   3.238
   84SOPE  H12S 7784   0.952   3.450   3.258
   84SOPE  C213 7785   0.979   3.608   3.398
   84SOPE  H13R 7786   0.871   3.626   3.412
   84SOPE  H13S 7787   1.030   3.706   3.406
   84SOPE  C214 7788   1.029   3.512   3.500
   84SOPE  H14R 7789   1.001   3.412   3.459
   84SOPE  H14S 7790   0.987   3.522   3.602
   84SOPE  C215 7791   1.181   3.519   3.506
   84SOPE  H15R 7792   1.204   3.625   3.528
   84SOPE  H15S 7793   1.224   3.498   3.406
   84SOPE  C216 7794   1.242   3.417   3.603
   84SOPE  H16R 7795   1.217   3.314   3.569
   84SOPE  H16S 7796   1.186   3.436   3.697
   84SOPE  C217 7797   1.391   3.447   3.644
   84SOPE  H17R 7798   1.455   3.416   3.558
   84SOPE  H17S 7799   1.412   3.389   3.736
   84SOPE  C218 7800   1.431   3.595   3.666
   84SOPE  H18R 7801   1.351   3.646   3.725
   84SOPE  H18S 7802   1.450   3.652   3.573
   84SOPE  H18T 7803   1.516   3.605   3.737
   84SOPE   C33 7804   0.544   3.062   2.700
   84SOPE   H3X 7805   0.651   3.035   2.693
   84SOPE   H3Y 7806   0.477   2.973   2.703
   84SOPE   C34 7807   0.529   3.130   2.834
   84SOPE   H4X 7808   0.423   3.164   2.844
   84SOPE   H4Y 7809   0.596   3.218   2.826
   84SOPE   C35 7810   0.546   3.030   2.950
   84SOPE   H5X 7811   0.650   2.991   2.949
   84SOPE   H5Y 7812   0.479   2.946   2.923
   84SOPE   C36 7813   0.500   3.095   3.079
   84SOPE   H6X 7814   0.391   3.111   3.068
   84SOPE   H6Y 7815   0.543   3.198   3.080
   84SOPE   C37 7816   0.533   3.001   3.198
   84SOPE   H7X 7817   0.641   2.997   3.224
   84SOPE   H7Y 7818   0.494   2.897   3.187
   84SOPE   C38 7819   0.458   3.042   3.323
   84SOPE   H8X 7820   0.494   3.143   3.353
   84SOPE   H8Y 7821   0.492   2.975   3.405
   84SOPE   C39 7822   0.301   3.046   3.317
   84SOPE   H9X 7823   0.262   2.950   3.278
   84SOPE   H9Y 7824   0.265   3.118   3.241
   84SOPE  C310 7825   0.249   3.071   3.457
   84SOPE  H10X 7826   0.275   3.167   3.507
   84SOPE  H10Y 7827   0.296   2.991   3.518
   84SOPE  C311 7828   0.096   3.046   3.472
   84SOPE  H11X 7829   0.068   2.949   3.427
   84SOPE  H11Y 7830   0.039   3.123   3.415
   84SOPE  C312 7831   0.043   3.052   3.616
   84SOPE  H12X 7832   0.118   2.996   3.676
   84SOPE  H12Y 7833  -0.052   2.995   3.624
   84SOPE  C313 7834   0.040   3.200   3.664
   84SOPE  H13X 7835  -0.031   3.252   3.597
   84SOPE  H13Y 7836   0.138   3.252   3.653
   84SOPE  C314 7837  -0.004   3.213   3.811
   84SOPE  H14X 7838  -0.108   3.177   3.824
   84SOPE  H14Y 7839  -0.006   3.323   3.826
   84SOPE  C315 7840   0.100   3.151   3.909
   84SOPE  H15X 7841   0.206   3.178   3.887
   84SOPE  H15Y 7842   0.098   3.040   3.907
   84SOPE  C316 7843   0.058   3.188   4.057
   84SOPE  H16X 7844  -0.035   3.133   4.083
   84SOPE  H16Y 7845   0.030   3.295   4.068
   84SOPE  C317 7846   0.159   3.155   4.169
   84SOPE  H17X 7847   0.119   3.171   4.272
   84SOPE  H17Y 7848   0.240   3.229   4.155
   84SOPE  C318 7849   0.206   3.006   4.156
   84SOPE  H18X 7850   0.116   2.943   4.169
   84SOPE  H18Y 7851   0.268   2.976   4.243
   84SOPE  H18Z 7852   0.255   2.980   4.059
   85SOPE     N 7853   4.751   5.458   2.081
   85SOPE   HN1 7854   4.827   5.522   2.052
   85SOPE   HN2 7855   4.769   5.439   2.182
   85SOPE   HN3 7856   4.756   5.378   2.014
   85SOPE   C12 7857   4.620   5.541   2.051
   85SOPE  H12A 7858   4.626   5.587   1.950
   85SOPE  H12B 7859   4.614   5.625   2.124
   85SOPE   C11 7860   4.506   5.448   2.074
   85SOPE  H11A 7861   4.417   5.506   2.045
   85SOPE  H11B 7862   4.494   5.425   2.182
   85SOPE     P 7863   4.406   5.215   1.999
   85SOPE   O13 7864   4.463   5.102   1.927
   85SOPE   O14 7865   4.272   5.267   1.958
   85SOPE   O12 7866   4.519   5.328   1.997
   85SOPE   O11 7867   4.409   5.188   2.157
   85SOPE    C1 7868   4.465   5.067   2.199
   85SOPE    HA 7869   4.572   5.053   2.172
   85SOPE    HB 7870   4.413   4.985   2.146
   85SOPE    C2 7871   4.451   5.053   2.349
   85SOPE    HS 7872   4.496   4.953   2.369
   85SOPE   O21 7873   4.305   5.056   2.383
   85SOPE   C21 7874   4.237   4.953   2.346
   85SOPE   O22 7875   4.276   4.855   2.289
   85SOPE   C22 7876   4.087   4.975   2.396
   85SOPE   H2R 7877   4.038   5.008   2.302
   85SOPE   H2S 7878   4.091   5.057   2.471
   85SOPE    C3 7879   4.538   5.163   2.419
   85SOPE    HX 7880   4.517   5.268   2.391
   85SOPE    HY 7881   4.643   5.138   2.392
   85SOPE   O31 7882   4.527   5.151   2.558
   85SOPE   C31 7883   4.417   5.205   2.619
   85SOPE   O32 7884   4.330   5.272   2.571
   85SOPE   C32 7885   4.433   5.188   2.770
   85SOPE   H2X 7886   4.527   5.245   2.781
   85SOPE   H2Y 7887   4.457   5.082   2.793
   85SOPE   C23 7888   4.034   4.847   2.456
   85SOPE   H3R 7889   4.029   4.770   2.376
   85SOPE   H3S 7890   3.926   4.863   2.474
   85SOPE   C24 7891   4.105   4.793   2.586
   85SOPE   H4R 7892   4.067   4.690   2.604
   85SOPE   H4S 7893   4.210   4.769   2.559
   85SOPE   C25 7894   4.079   4.876   2.711
   85SOPE   H5R 7895   4.140   4.969   2.713
   85SOPE   H5S 7896   3.977   4.918   2.703
   85SOPE   C26 7897   4.098   4.796   2.843
   85SOPE   H6R 7898   4.017   4.720   2.840
   85SOPE   H6S 7899   4.202   4.757   2.842
   85SOPE   C27 7900   4.088   4.878   2.966
   85SOPE   H7R 7901   4.191   4.911   2.994
   85SOPE   H7S 7902   4.033   4.970   2.938
   85SOPE   C28 7903   4.028   4.822   3.092
   85SOPE   H8R 7904   3.988   4.905   3.153
   85SOPE   H8S 7905   3.937   4.763   3.067
   85SOPE   C29 7906   4.132   4.738   3.163
   85SOPE   H91 7907   4.234   4.751   3.124
   85SOPE  C210 7908   4.122   4.711   3.297
   85SOPE  H101 7909   4.202   4.671   3.360
   85SOPE  C211 7910   4.004   4.756   3.378
   85SOPE  H11R 7911   3.984   4.673   3.449
   85SOPE  H11S 7912   3.909   4.755   3.321
   85SOPE  C212 7913   4.014   4.893   3.444
   85SOPE  H12R 7914   4.029   4.963   3.359
   85SOPE  H12S 7915   4.108   4.892   3.503
   85SOPE  C213 7916   3.894   4.932   3.535
   85SOPE  H13R 7917   3.798   4.913   3.482
   85SOPE  H13S 7918   3.889   5.041   3.557
   85SOPE  C214 7919   3.898   4.858   3.675
   85SOPE  H14R 7920   4.000   4.858   3.718
   85SOPE  H14S 7921   3.882   4.750   3.655
   85SOPE  C215 7922   3.803   4.910   3.785
   85SOPE  H15R 7923   3.705   4.916   3.733
   85SOPE  H15S 7924   3.831   5.018   3.788
   85SOPE  C216 7925   3.791   4.840   3.921
   85SOPE  H16R 7926   3.892   4.836   3.967
   85SOPE  H16S 7927   3.750   4.738   3.909
   85SOPE  C217 7928   3.703   4.932   4.016
   85SOPE  H17R 7929   3.663   4.865   4.094
   85SOPE  H17S 7930   3.612   4.979   3.972
   85SOPE  C218 7931   3.780   5.035   4.095
   85SOPE  H18R 7932   3.722   5.079   4.179
   85SOPE  H18S 7933   3.819   5.116   4.030
   85SOPE  H18T 7934   3.875   4.991   4.133
   85SOPE   C33 7935   4.321   5.249   2.850
   85SOPE   H3X 7936   4.221   5.205   2.828
   85SOPE   H3Y 7937   4.331   5.360   2.843
   85SOPE   C34 7938   4.361   5.207   2.987
   85SOPE   H4X 7939   4.470   5.223   2.996
   85SOPE   H4Y 7940   4.342   5.098   2.999
   85SOPE   C35 7941   4.285   5.280   3.102
   85SOPE   H5X 7942   4.188   5.326   3.072
   85SOPE   H5Y 7943   4.344   5.373   3.119
   85SOPE   C36 7944   4.255   5.200   3.230
   85SOPE   H6X 7945   4.355   5.158   3.251
   85SOPE   H6Y 7946   4.189   5.111   3.222
   85SOPE   C37 7947   4.216   5.282   3.352
   85SOPE   H7X 7948   4.108   5.308   3.345
   85SOPE   H7Y 7949   4.281   5.372   3.358
   85SOPE   C38 7950   4.222   5.194   3.476
   85SOPE   H8X 7951   4.322   5.150   3.494
   85SOPE   H8Y 7952   4.145   5.114   3.483
   85SOPE   C39 7953   4.200   5.283   3.597
   85SOPE   H9X 7954   4.102   5.334   3.589
   85SOPE   H9Y 7955   4.273   5.367   3.595
   85SOPE  C310 7956   4.200   5.219   3.736
   85SOPE  H10X 7957   4.296   5.165   3.756
   85SOPE  H10Y 7958   4.125   5.137   3.726
   85SOPE  C311 7959   4.181   5.318   3.853
   85SOPE  H11X 7960   4.083   5.370   3.845
   85SOPE  H11Y 7961   4.268   5.388   3.856
   85SOPE  C312 7962   4.183   5.238   3.976
   85SOPE  H12X 7963   4.285   5.196   3.963
   85SOPE  H12Y 7964   4.102   5.161   3.979
   85SOPE  C313 7965   4.165   5.333   4.099
   85SOPE  H13X 7966   4.061   5.372   4.100
   85SOPE  H13Y 7967   4.234   5.418   4.078
   85SOPE  C314 7968   4.211   5.261   4.228
   85SOPE  H14X 7969   4.310   5.211   4.221
   85SOPE  H14Y 7970   4.142   5.175   4.239
   85SOPE  C315 7971   4.218   5.333   4.364
   85SOPE  H15X 7972   4.119   5.377   4.386
   85SOPE  H15Y 7973   4.273   5.427   4.343
   85SOPE  C316 7974   4.253   5.242   4.479
   85SOPE  H16X 7975   4.357   5.208   4.459
   85SOPE  H16Y 7976   4.187   5.153   4.468
   85SOPE  C317 7977   4.244   5.297   4.623
   85SOPE  H17X 7978   4.280   5.216   4.689
   85SOPE  H17Y 7979   4.139   5.323   4.649
   85SOPE  C318 7980   4.323   5.423   4.651
   85SOPE  H18X 7981   4.276   5.513   4.605
   85SOPE  H18Y 7982   4.421   5.417   4.599
   85SOPE  H18Z 7983   4.332   5.444   4.760
   86SOPE     N 7984   5.054   1.036   1.995
   86SOPE   HN1 7985   4.995   1.108   1.950
   86SOPE   HN2 7986   5.143   1.051   1.942
   86SOPE   HN3 7987   5.027   0.937   1.983
   86SOPE   C12 7988   5.056   1.062   2.142
   86SOPE  H12A 7989   5.133   0.994   2.184
   86SOPE  H12B 7990   4.966   1.024   2.193
   86SOPE   C11 7991   5.077   1.212   2.177
   86SOPE  H11A 7992   5.115   1.210   2.281
   86SOPE  H11B 7993   4.973   1.252   2.173
   86SOPE     P 7994   5.195   1.435   2.101
   86SOPE   O13 7995   5.072   1.518   2.100
   86SOPE   O14 7996   5.300   1.464   1.996
   86SOPE   O12 7997   5.168   1.283   2.091
   86SOPE   O11 7998   5.254   1.444   2.242
   86SOPE    C1 7999   5.380   1.363   2.262
   86SOPE    HA 8000   5.476   1.418   2.252
   86SOPE    HB 8001   5.386   1.271   2.200
   86SOPE    C2 8002   5.382   1.316   2.413
   86SOPE    HS 8003   5.308   1.234   2.428
   86SOPE   O21 8004   5.336   1.422   2.500
   86SOPE   C21 8005   5.209   1.417   2.545
   86SOPE   O22 8006   5.127   1.338   2.506
   86SOPE   C22 8007   5.187   1.512   2.663
   86SOPE   H2R 8008   5.096   1.568   2.635
   86SOPE   H2S 8009   5.271   1.585   2.665
   86SOPE    C3 8010   5.524   1.286   2.457
   86SOPE    HX 8011   5.601   1.363   2.434
   86SOPE    HY 8012   5.550   1.191   2.406
   86SOPE   O31 8013   5.525   1.237   2.592
   86SOPE   C31 8014   5.594   1.315   2.674
   86SOPE   O32 8015   5.631   1.427   2.642
   86SOPE   C32 8016   5.629   1.243   2.814
   86SOPE   H2X 8017   5.705   1.171   2.777
   86SOPE   H2Y 8018   5.541   1.187   2.853
   86SOPE   C23 8019   5.162   1.434   2.798
   86SOPE   H3R 8020   5.084   1.355   2.792
   86SOPE   H3S 8021   5.135   1.511   2.874
   86SOPE   C24 8022   5.297   1.374   2.847
   86SOPE   H4R 8023   5.309   1.299   2.766
   86SOPE   H4S 8024   5.373   1.453   2.833
   86SOPE   C25 8025   5.309   1.312   2.985
   86SOPE   H5R 8026   5.221   1.244   2.991
   86SOPE   H5S 8027   5.406   1.258   2.978
   86SOPE   C26 8028   5.286   1.414   3.099
   86SOPE   H6R 8029   5.371   1.485   3.103
   86SOPE   H6S 8030   5.192   1.471   3.086
   86SOPE   C27 8031   5.286   1.339   3.226
   86SOPE   H7R 8032   5.197   1.273   3.232
   86SOPE   H7S 8033   5.373   1.269   3.225
   86SOPE   C28 8034   5.281   1.419   3.355
   86SOPE   H8R 8035   5.370   1.486   3.353
   86SOPE   H8S 8036   5.190   1.483   3.357
   86SOPE   C29 8037   5.304   1.342   3.485
   86SOPE   H91 8038   5.352   1.245   3.464
   86SOPE  C210 8039   5.295   1.401   3.604
   86SOPE  H101 8040   5.327   1.339   3.690
   86SOPE  C211 8041   5.223   1.523   3.646
   86SOPE  H11R 8042   5.137   1.487   3.706
   86SOPE  H11S 8043   5.193   1.583   3.557
   86SOPE  C212 8044   5.314   1.599   3.746
   86SOPE  H12R 8045   5.412   1.614   3.695
   86SOPE  H12S 8046   5.324   1.542   3.841
   86SOPE  C213 8047   5.263   1.730   3.799
   86SOPE  H13R 8048   5.160   1.716   3.840
   86SOPE  H13S 8049   5.269   1.814   3.726
   86SOPE  C214 8050   5.346   1.784   3.919
   86SOPE  H14R 8051   5.451   1.781   3.883
   86SOPE  H14S 8052   5.336   1.714   4.006
   86SOPE  C215 8053   5.313   1.928   3.954
   86SOPE  H15R 8054   5.319   1.994   3.865
   86SOPE  H15S 8055   5.394   1.969   4.018
   86SOPE  C216 8056   5.172   1.954   4.021
   86SOPE  H16R 8057   5.176   1.892   4.113
   86SOPE  H16S 8058   5.087   1.913   3.962
   86SOPE  C217 8059   5.138   2.094   4.062
   86SOPE  H17R 8060   5.042   2.086   4.118
   86SOPE  H17S 8061   5.120   2.169   3.981
   86SOPE  C218 8062   5.248   2.160   4.150
   86SOPE  H18R 8063   5.271   2.100   4.240
   86SOPE  H18S 8064   5.210   2.255   4.194
   86SOPE  H18T 8065   5.342   2.185   4.097
   86SOPE   C33 8066   5.667   1.335   2.934
   86SOPE   H3X 8067   5.578   1.402   2.944
   86SOPE   H3Y 8068   5.748   1.404   2.901
   86SOPE   C34 8069   5.690   1.255   3.068
   86SOPE   H4X 8070   5.788   1.203   3.069
   86SOPE   H4Y 8071   5.606   1.183   3.067
   86SOPE   C35 8072   5.675   1.343   3.187
   86SOPE   H5X 8073   5.582   1.402   3.172
   86SOPE   H5Y 8074   5.758   1.417   3.184
   86SOPE   C36 8075   5.665   1.269   3.320
   86SOPE   H6X 8076   5.754   1.203   3.333
   86SOPE   H6Y 8077   5.578   1.201   3.320
   86SOPE   C37 8078   5.646   1.370   3.431
   86SOPE   H7X 8079   5.610   1.314   3.520
   86SOPE   H7Y 8080   5.576   1.447   3.393
   86SOPE   C38 8081   5.779   1.436   3.469
   86SOPE   H8X 8082   5.756   1.509   3.549
   86SOPE   H8Y 8083   5.819   1.488   3.380
   86SOPE   C39 8084   5.888   1.339   3.533
   86SOPE   H9X 8085   5.937   1.274   3.458
   86SOPE   H9Y 8086   5.840   1.271   3.606
   86SOPE  C310 8087   5.990   1.418   3.610
   86SOPE  H10X 8088   5.942   1.494   3.675
   86SOPE  H10Y 8089   6.062   1.475   3.547
   86SOPE  C311 8090   6.083   1.328   3.700
   86SOPE  H11X 8091   6.163   1.398   3.732
   86SOPE  H11Y 8092   6.114   1.238   3.643
   86SOPE  C312 8093   6.018   1.277   3.825
   86SOPE  H12X 8094   5.938   1.208   3.793
   86SOPE  H12Y 8095   5.968   1.353   3.889
   86SOPE  C313 8096   6.109   1.203   3.919
   86SOPE  H13X 8097   6.192   1.261   3.966
   86SOPE  H13Y 8098   6.153   1.114   3.868
   86SOPE  C314 8099   6.030   1.151   4.041
   86SOPE  H14X 8100   5.950   1.084   4.003
   86SOPE  H14Y 8101   5.987   1.232   4.104
   86SOPE  C315 8102   6.121   1.074   4.140
   86SOPE  H15X 8103   6.173   0.996   4.081
   86SOPE  H15Y 8104   6.061   1.031   4.223
   86SOPE  C316 8105   6.206   1.166   4.216
   86SOPE  H16X 8106   6.143   1.235   4.276
   86SOPE  H16Y 8107   6.269   1.227   4.148
   86SOPE  C317 8108   6.301   1.093   4.313
   86SOPE  H17X 8109   6.247   1.015   4.371
   86SOPE  H17Y 8110   6.336   1.161   4.393
   86SOPE  C318 8111   6.424   1.013   4.251
   86SOPE  H18X 8112   6.507   1.077   4.216
   86SOPE  H18Y 8113   6.398   0.950   4.164
   86SOPE  H18Z 8114   6.449   0.943   4.334
   87SOPE     N 8115   5.596   0.727   2.314
   87SOPE   HN1 8116   5.559   0.654   2.378
   87SOPE   HN2 8117   5.661   0.786   2.370
   87SOPE   HN3 8118   5.515   0.785   2.284
   87SOPE   C12 8119   5.656   0.655   2.196
   87SOPE  H12A 8120   5.717   0.739   2.155
   87SOPE  H12B 8121   5.569   0.627   2.134
   87SOPE   C11 8122   5.749   0.539   2.247
   87SOPE  H11A 8123   5.765   0.477   2.156
   87SOPE  H11B 8124   5.699   0.475   2.323
   87SOPE     P 8125   6.013   0.580   2.231
   87SOPE   O13 8126   6.103   0.686   2.278
   87SOPE   O14 8127   5.987   0.565   2.084
   87SOPE   O12 8128   5.875   0.593   2.299
   87SOPE   O11 8129   6.072   0.437   2.274
   87SOPE    C1 8130   6.032   0.377   2.393
   87SOPE    HA 8131   6.059   0.270   2.376
   87SOPE    HB 8132   5.921   0.384   2.401
   87SOPE    C2 8133   6.105   0.422   2.517
   87SOPE    HS 8134   6.098   0.531   2.533
   87SOPE   O21 8135   6.244   0.384   2.493
   87SOPE   C21 8136   6.346   0.460   2.542
   87SOPE   O22 8137   6.330   0.568   2.590
   87SOPE   C22 8138   6.473   0.363   2.547
   87SOPE   H2R 8139   6.507   0.369   2.441
   87SOPE   H2S 8140   6.437   0.262   2.575
   87SOPE    C3 8141   6.044   0.354   2.643
   87SOPE    HX 8142   6.055   0.248   2.613
   87SOPE    HY 8143   5.933   0.363   2.650
   87SOPE   O31 8144   6.114   0.383   2.770
   87SOPE   C31 8145   6.075   0.491   2.830
   87SOPE   O32 8146   5.979   0.557   2.798
   87SOPE   C32 8147   6.170   0.540   2.946
   87SOPE   H2X 8148   6.277   0.521   2.923
   87SOPE   H2Y 8149   6.150   0.484   3.040
   87SOPE   C23 8150   6.580   0.401   2.648
   87SOPE   H3R 8151   6.616   0.503   2.623
   87SOPE   H3S 8152   6.667   0.336   2.628
   87SOPE   C24 8153   6.533   0.409   2.796
   87SOPE   H4R 8154   6.447   0.479   2.807
   87SOPE   H4S 8155   6.491   0.313   2.832
   87SOPE   C25 8156   6.639   0.453   2.892
   87SOPE   H5R 8157   6.723   0.381   2.892
   87SOPE   H5S 8158   6.676   0.549   2.851
   87SOPE   C26 8159   6.575   0.465   3.032
   87SOPE   H6R 8160   6.484   0.526   3.015
   87SOPE   H6S 8161   6.543   0.365   3.069
   87SOPE   C27 8162   6.655   0.530   3.146
   87SOPE   H7R 8163   6.745   0.468   3.160
   87SOPE   H7S 8164   6.697   0.630   3.122
   87SOPE   C28 8165   6.580   0.541   3.275
   87SOPE   H8R 8166   6.474   0.570   3.258
   87SOPE   H8S 8167   6.562   0.434   3.301
   87SOPE   C29 8168   6.640   0.619   3.384
   87SOPE   H91 8169   6.726   0.683   3.356
   87SOPE  C210 8170   6.622   0.589   3.515
   87SOPE  H101 8171   6.671   0.657   3.587
   87SOPE  C211 8172   6.528   0.488   3.580
   87SOPE  H11R 8173   6.472   0.449   3.493
   87SOPE  H11S 8174   6.466   0.544   3.653
   87SOPE  C212 8175   6.588   0.370   3.650
   87SOPE  H12R 8176   6.669   0.325   3.588
   87SOPE  H12S 8177   6.504   0.298   3.652
   87SOPE  C213 8178   6.638   0.409   3.792
   87SOPE  H13R 8179   6.567   0.468   3.853
   87SOPE  H13S 8180   6.726   0.472   3.769
   87SOPE  C214 8181   6.703   0.304   3.882
   87SOPE  H14R 8182   6.630   0.227   3.915
   87SOPE  H14S 8183   6.755   0.350   3.969
   87SOPE  C215 8184   6.823   0.236   3.815
   87SOPE  H15R 8185   6.898   0.310   3.778
   87SOPE  H15S 8186   6.790   0.186   3.722
   87SOPE  C216 8187   6.874   0.117   3.901
   87SOPE  H16R 8188   6.786   0.050   3.917
   87SOPE  H16S 8189   6.905   0.157   4.000
   87SOPE  C217 8190   6.985   0.033   3.831
   87SOPE  H17R 8191   7.078   0.093   3.824
   87SOPE  H17S 8192   6.949  -0.004   3.733
   87SOPE  C218 8193   7.013  -0.086   3.925
   87SOPE  H18R 8194   6.926  -0.154   3.937
   87SOPE  H18S 8195   7.056  -0.048   4.020
   87SOPE  H18T 8196   7.097  -0.136   3.872
   87SOPE   C33 8197   6.157   0.693   2.962
   87SOPE   H3X 8198   6.051   0.720   2.979
   87SOPE   H3Y 8199   6.179   0.742   2.864
   87SOPE   C34 8200   6.243   0.751   3.074
   87SOPE   H4X 8201   6.238   0.861   3.061
   87SOPE   H4Y 8202   6.349   0.716   3.070
   87SOPE   C35 8203   6.195   0.725   3.216
   87SOPE   H5X 8204   6.196   0.615   3.232
   87SOPE   H5Y 8205   6.093   0.768   3.224
   87SOPE   C36 8206   6.296   0.791   3.314
   87SOPE   H6X 8207   6.301   0.899   3.286
   87SOPE   H6Y 8208   6.403   0.769   3.296
   87SOPE   C37 8209   6.267   0.768   3.460
   87SOPE   H7X 8210   6.297   0.666   3.493
   87SOPE   H7Y 8211   6.159   0.773   3.486
   87SOPE   C38 8212   6.345   0.868   3.549
   87SOPE   H8X 8213   6.301   0.966   3.520
   87SOPE   H8Y 8214   6.452   0.868   3.519
   87SOPE   C39 8215   6.339   0.828   3.697
   87SOPE   H9X 8216   6.311   0.721   3.708
   87SOPE   H9Y 8217   6.259   0.893   3.737
   87SOPE  C310 8218   6.476   0.856   3.758
   87SOPE  H10X 8219   6.494   0.965   3.751
   87SOPE  H10Y 8220   6.545   0.800   3.691
   87SOPE  C311 8221   6.495   0.790   3.899
   87SOPE  H11X 8222   6.496   0.681   3.881
   87SOPE  H11Y 8223   6.406   0.822   3.958
   87SOPE  C312 8224   6.628   0.817   3.965
   87SOPE  H12X 8225   6.623   0.918   4.011
   87SOPE  H12Y 8226   6.708   0.813   3.888
   87SOPE  C313 8227   6.674   0.710   4.065
   87SOPE  H13X 8228   6.693   0.613   4.016
   87SOPE  H13Y 8229   6.593   0.698   4.140
   87SOPE  C314 8230   6.802   0.761   4.127
   87SOPE  H14X 8231   6.779   0.844   4.197
   87SOPE  H14Y 8232   6.879   0.787   4.051
   87SOPE  C315 8233   6.861   0.654   4.213
   87SOPE  H15X 8234   6.892   0.565   4.155
   87SOPE  H15Y 8235   6.778   0.624   4.280
   87SOPE  C316 8236   6.986   0.695   4.298
   87SOPE  H16X 8237   6.975   0.780   4.369
   87SOPE  H16Y 8238   7.050   0.735   4.216
   87SOPE  C317 8239   7.067   0.576   4.354
   87SOPE  H17X 8240   7.174   0.605   4.348
   87SOPE  H17Y 8241   7.041   0.491   4.288
   87SOPE  C318 8242   7.011   0.551   4.491
   87SOPE  H18X 8243   7.035   0.449   4.527
   87SOPE  H18Y 8244   6.901   0.553   4.475
   87SOPE  H18Z 8245   7.048   0.626   4.564
   88SOPE     N 8246   0.213   0.902   2.291
   88SOPE   HN1 8247   0.224   0.962   2.207
   88SOPE   HN2 8248   0.112   0.890   2.315
   88SOPE   HN3 8249   0.261   0.951   2.369
   88SOPE   C12 8250   0.270   0.763   2.279
   88SOPE  H12A 8251   0.212   0.715   2.198
   88SOPE  H12B 8252   0.255   0.708   2.374
   88SOPE   C11 8253   0.420   0.760   2.241
   88SOPE  H11A 8254   0.439   0.788   2.135
   88SOPE  H11B 8255   0.447   0.653   2.253
   88SOPE     P 8256   0.566   0.975   2.273
   88SOPE   O13 8257   0.459   1.077   2.255
   88SOPE   O14 8258   0.650   0.936   2.160
   88SOPE   O12 8259   0.503   0.840   2.329
   88SOPE   O11 8260   0.655   1.025   2.393
   88SOPE    C1 8261   0.781   0.958   2.393
   88SOPE    HA 8262   0.838   0.996   2.305
   88SOPE    HB 8263   0.774   0.847   2.387
   88SOPE    C2 8264   0.866   0.986   2.524
   88SOPE    HS 8265   0.940   0.905   2.544
   88SOPE   O21 8266   0.779   1.011   2.637
   88SOPE   C21 8267   0.687   0.916   2.656
   88SOPE   O22 8268   0.694   0.804   2.610
   88SOPE   C22 8269   0.568   0.976   2.729
   88SOPE   H2R 8270   0.476   0.953   2.672
   88SOPE   H2S 8271   0.576   1.087   2.729
   88SOPE    C3 8272   0.953   1.120   2.498
   88SOPE    HX 8273   0.892   1.198   2.446
   88SOPE    HY 8274   1.040   1.086   2.438
   88SOPE   O31 8275   1.010   1.182   2.618
   88SOPE   C31 8276   0.929   1.253   2.686
   88SOPE   O32 8277   0.813   1.284   2.665
   88SOPE   C32 8278   0.998   1.276   2.821
   88SOPE   H2X 8279   1.082   1.347   2.804
   88SOPE   H2Y 8280   1.029   1.174   2.853
   88SOPE   C23 8281   0.547   0.918   2.872
   88SOPE   H3R 8282   0.536   0.807   2.866
   88SOPE   H3S 8283   0.456   0.955   2.923
   88SOPE   C24 8284   0.653   0.963   2.971
   88SOPE   H4R 8285   0.759   0.947   2.941
   88SOPE   H4S 8286   0.641   1.072   2.991
   88SOPE   C25 8287   0.637   0.894   3.107
   88SOPE   H5R 8288   0.533   0.888   3.146
   88SOPE   H5S 8289   0.659   0.788   3.085
   88SOPE   C26 8290   0.732   0.943   3.217
   88SOPE   H6R 8291   0.725   0.866   3.297
   88SOPE   H6S 8292   0.832   0.951   3.171
   88SOPE   C27 8293   0.690   1.079   3.272
   88SOPE   H7R 8294   0.693   1.149   3.186
   88SOPE   H7S 8295   0.584   1.076   3.304
   88SOPE   C28 8296   0.775   1.132   3.387
   88SOPE   H8R 8297   0.881   1.136   3.354
   88SOPE   H8S 8298   0.733   1.232   3.413
   88SOPE   C29 8299   0.770   1.038   3.507
   88SOPE   H91 8300   0.816   0.939   3.490
   88SOPE  C210 8301   0.718   1.067   3.629
   88SOPE  H101 8302   0.711   0.995   3.712
   88SOPE  C211 8303   0.662   1.200   3.665
   88SOPE  H11R 8304   0.577   1.226   3.598
   88SOPE  H11S 8305   0.741   1.277   3.653
   88SOPE  C212 8306   0.591   1.203   3.806
   88SOPE  H12R 8307   0.513   1.124   3.810
   88SOPE  H12S 8308   0.538   1.300   3.820
   88SOPE  C213 8309   0.685   1.182   3.924
   88SOPE  H13R 8310   0.764   1.260   3.922
   88SOPE  H13S 8311   0.730   1.080   3.920
   88SOPE  C214 8312   0.609   1.178   4.056
   88SOPE  H14R 8313   0.533   1.097   4.049
   88SOPE  H14S 8314   0.558   1.276   4.066
   88SOPE  C215 8315   0.703   1.163   4.179
   88SOPE  H15R 8316   0.639   1.170   4.269
   88SOPE  H15S 8317   0.776   1.247   4.171
   88SOPE  C216 8318   0.773   1.029   4.186
   88SOPE  H16R 8319   0.846   1.021   4.103
   88SOPE  H16S 8320   0.696   0.951   4.170
   88SOPE  C217 8321   0.853   1.018   4.314
   88SOPE  H17R 8322   0.799   1.031   4.410
   88SOPE  H17S 8323   0.917   1.109   4.309
   88SOPE  C218 8324   0.933   0.885   4.313
   88SOPE  H18R 8325   0.993   0.882   4.407
   88SOPE  H18S 8326   0.995   0.879   4.221
   88SOPE  H18T 8327   0.872   0.792   4.308
   88SOPE   C33 8328   0.901   1.339   2.920
   88SOPE   H3X 8329   0.799   1.296   2.927
   88SOPE   H3Y 8330   0.901   1.450   2.913
   88SOPE   C34 8331   0.955   1.297   3.061
   88SOPE   H4X 8332   0.946   1.187   3.058
   88SOPE   H4Y 8333   0.881   1.340   3.132
   88SOPE   C35 8334   1.106   1.326   3.093
   88SOPE   H5X 8335   1.135   1.433   3.087
   88SOPE   H5Y 8336   1.170   1.275   3.017
   88SOPE   C36 8337   1.144   1.267   3.227
   88SOPE   H6X 8338   1.254   1.285   3.234
   88SOPE   H6Y 8339   1.116   1.160   3.229
   88SOPE   C37 8340   1.093   1.340   3.346
   88SOPE   H7X 8341   0.984   1.324   3.358
   88SOPE   H7Y 8342   1.120   1.447   3.334
   88SOPE   C38 8343   1.162   1.273   3.464
   88SOPE   H8X 8344   1.272   1.266   3.454
   88SOPE   H8Y 8345   1.120   1.170   3.465
   88SOPE   C39 8346   1.131   1.339   3.599
   88SOPE   H9X 8347   1.021   1.353   3.601
   88SOPE   H9Y 8348   1.181   1.438   3.609
   88SOPE  C310 8349   1.173   1.246   3.722
   88SOPE  H10X 8350   1.277   1.209   3.718
   88SOPE  H10Y 8351   1.114   1.152   3.729
   88SOPE  C311 8352   1.150   1.317   3.860
   88SOPE  H11X 8353   1.041   1.338   3.859
   88SOPE  H11Y 8354   1.215   1.408   3.856
   88SOPE  C312 8355   1.187   1.229   3.982
   88SOPE  H12X 8356   1.293   1.196   3.974
   88SOPE  H12Y 8357   1.122   1.139   3.982
   88SOPE  C313 8358   1.168   1.300   4.121
   88SOPE  H13X 8359   1.060   1.323   4.136
   88SOPE  H13Y 8360   1.219   1.398   4.128
   88SOPE  C314 8361   1.219   1.208   4.233
   88SOPE  H14X 8362   1.324   1.174   4.219
   88SOPE  H14Y 8363   1.150   1.121   4.231
   88SOPE  C315 8364   1.197   1.265   4.372
   88SOPE  H15X 8365   1.087   1.277   4.386
   88SOPE  H15Y 8366   1.251   1.362   4.369
   88SOPE  C316 8367   1.243   1.178   4.490
   88SOPE  H16X 8368   1.348   1.206   4.510
   88SOPE  H16Y 8369   1.245   1.069   4.469
   88SOPE  C317 8370   1.181   1.203   4.621
   88SOPE  H17X 8371   1.070   1.204   4.614
   88SOPE  H17Y 8372   1.211   1.307   4.648
   88SOPE  C318 8373   1.220   1.112   4.732
   88SOPE  H18X 8374   1.148   1.107   4.817
   88SOPE  H18Y 8375   1.317   1.143   4.776
   88SOPE  H18Z 8376   1.221   1.009   4.690
   89SAPC     N 8377   4.388   3.115   6.756
   89SAPC   C12 8378   4.246   3.135   6.722
   89SAPC  H12A 8379   4.184   3.188   6.793
   89SAPC  H12B 8380   4.211   3.034   6.706
   89SAPC   C13 8381   4.402   3.023   6.870
   89SAPC  H13A 8382   4.379   3.069   6.965
   89SAPC  H13B 8383   4.345   2.932   6.857
   89SAPC  H13C 8384   4.504   2.994   6.888
   89SAPC   C14 8385   4.469   3.069   6.636
   89SAPC  H14A 8386   4.467   3.139   6.554
   89SAPC  H14B 8387   4.572   3.061   6.667
   89SAPC  H14C 8388   4.443   2.968   6.608
   89SAPC   C15 8389   4.435   3.246   6.804
   89SAPC  H15A 8390   4.452   3.322   6.729
   89SAPC  H15B 8391   4.361   3.291   6.869
   89SAPC  H15C 8392   4.532   3.251   6.851
   89SAPC   C11 8393   4.211   3.195   6.586
   89SAPC  H11A 8394   4.101   3.183   6.575
   89SAPC  H11B 8395   4.258   3.129   6.510
   89SAPC     P 8396   4.201   3.465   6.628
   89SAPC   O13 8397   4.129   3.431   6.756
   89SAPC   O14 8398   4.312   3.565   6.635
   89SAPC   O12 8399   4.258   3.335   6.573
   89SAPC   O11 8400   4.097   3.514   6.522
   89SAPC    C1 8401   4.023   3.435   6.429
   89SAPC    HA 8402   4.023   3.326   6.451
   89SAPC    HB 8403   3.920   3.476   6.438
   89SAPC    C2 8404   4.080   3.457   6.288
   89SAPC    HS 8405   4.190   3.442   6.298
   89SAPC   O21 8406   4.055   3.592   6.252
   89SAPC   C21 8407   4.155   3.659   6.188
   89SAPC   O22 8408   4.265   3.613   6.158
   89SAPC   C22 8409   4.113   3.795   6.138
   89SAPC   H2R 8410   4.015   3.824   6.181
   89SAPC   H2S 8411   4.197   3.863   6.166
   89SAPC    C3 8412   4.017   3.358   6.184
   89SAPC    HX 8413   3.909   3.379   6.179
   89SAPC    HY 8414   4.037   3.253   6.213
   89SAPC   O31 8415   4.068   3.387   6.052
   89SAPC   C31 8416   4.170   3.323   6.008
   89SAPC   O32 8417   4.231   3.231   6.064
   89SAPC   C32 8418   4.196   3.366   5.864
   89SAPC   H2X 8419   4.125   3.444   5.829
   89SAPC   H2Y 8420   4.174   3.279   5.799
   89SAPC   C23 8421   4.110   3.791   5.982
   89SAPC   H3R 8422   4.038   3.713   5.950
   89SAPC   H3S 8423   4.210   3.763   5.945
   89SAPC   C24 8424   4.063   3.923   5.922
   89SAPC   H4R 8425   4.119   4.010   5.965
   89SAPC   H4S 8426   3.958   3.938   5.955
   89SAPC   C25 8427   4.062   3.918   5.768
   89SAPC   H5R 8428   3.981   3.855   5.728
   89SAPC   C26 8429   4.146   3.970   5.684
   89SAPC   H6R 8430   4.140   3.946   5.577
   89SAPC   C27 8431   4.250   4.068   5.724
   89SAPC   H7R 8432   4.220   4.138   5.805
   89SAPC   H7S 8433   4.273   4.143   5.646
   89SAPC   C28 8434   4.384   4.006   5.765
   89SAPC   H8R 8435   4.396   4.026   5.873
   89SAPC   C29 8436   4.468   3.941   5.684
   89SAPC   H9R 8437   4.562   3.906   5.729
   89SAPC  C210 8438   4.446   3.912   5.537
   89SAPC  H10R 8439   4.516   3.978   5.482
   89SAPC  H10S 8440   4.341   3.927   5.507
   89SAPC  C211 8441   4.486   3.769   5.508
   89SAPC  H11R 8442   4.464   3.699   5.589
   89SAPC  C212 8443   4.547   3.727   5.396
   89SAPC  H12R 8444   4.553   3.618   5.385
   89SAPC  C213 8445   4.590   3.813   5.276
   89SAPC  H13R 8446   4.683   3.868   5.302
   89SAPC  H13S 8447   4.499   3.873   5.254
   89SAPC  C214 8448   4.608   3.730   5.146
   89SAPC  H14R 8449   4.608   3.621   5.162
   89SAPC  C215 8450   4.608   3.759   5.021
   89SAPC  H15R 8451   4.637   3.685   4.946
   89SAPC  C216 8452   4.586   3.900   4.967
   89SAPC  H16R 8453   4.680   3.927   4.914
   89SAPC  H16S 8454   4.582   3.973   5.051
   89SAPC  C217 8455   4.460   3.913   4.887
   89SAPC  H17R 8456   4.376   3.930   4.958
   89SAPC  H17S 8457   4.442   3.829   4.816
   89SAPC  C218 8458   4.474   4.038   4.791
   89SAPC  H18R 8459   4.542   4.020   4.705
   89SAPC  H18S 8460   4.499   4.132   4.845
   89SAPC  C219 8461   4.330   4.080   4.738
   89SAPC  H19R 8462   4.341   4.183   4.698
   89SAPC  H19S 8463   4.256   4.065   4.819
   89SAPC  C220 8464   4.302   3.988   4.622
   89SAPC  H20R 8465   4.301   3.881   4.650
   89SAPC  H20S 8466   4.389   3.990   4.552
   89SAPC  H20T 8467   4.200   4.017   4.587
   89SAPC   C33 8468   4.339   3.404   5.838
   89SAPC   H3X 8469   4.412   3.322   5.853
   89SAPC   H3Y 8470   4.365   3.497   5.892
   89SAPC   C34 8471   4.361   3.453   5.683
   89SAPC   H4X 8472   4.465   3.488   5.668
   89SAPC   H4Y 8473   4.287   3.532   5.656
   89SAPC   C35 8474   4.330   3.341   5.586
   89SAPC   H5X 8475   4.220   3.324   5.578
   89SAPC   H5Y 8476   4.405   3.260   5.599
   89SAPC   C36 8477   4.370   3.401   5.448
   89SAPC   H6X 8478   4.477   3.430   5.456
   89SAPC   H6Y 8479   4.323   3.500   5.428
   89SAPC   C37 8480   4.362   3.298   5.331
   89SAPC   H7X 8481   4.261   3.259   5.307
   89SAPC   H7Y 8482   4.424   3.208   5.355
   89SAPC   C38 8483   4.407   3.362   5.196
   89SAPC   H8X 8484   4.502   3.419   5.203
   89SAPC   H8Y 8485   4.334   3.442   5.172
   89SAPC   C39 8486   4.400   3.259   5.073
   89SAPC   H9X 8487   4.297   3.217   5.080
   89SAPC   H9Y 8488   4.487   3.190   5.083
   89SAPC  C310 8489   4.408   3.344   4.947
   89SAPC  H10X 8490   4.487   3.422   4.955
   89SAPC  H10Y 8491   4.313   3.398   4.928
   89SAPC  C311 8492   4.450   3.259   4.831
   89SAPC  H11X 8493   4.375   3.177   4.839
   89SAPC  H11Y 8494   4.551   3.225   4.860
   89SAPC  C312 8495   4.438   3.311   4.690
   89SAPC  H12X 8496   4.334   3.324   4.656
   89SAPC  H12Y 8497   4.499   3.235   4.637
   89SAPC  C313 8498   4.532   3.437   4.675
   89SAPC  H13X 8499   4.636   3.397   4.675
   89SAPC  H13Y 8500   4.536   3.490   4.772
   89SAPC  C314 8501   4.540   3.515   4.539
   89SAPC  H14X 8502   4.629   3.578   4.516
   89SAPC  H14Y 8503   4.452   3.583   4.542
   89SAPC  C315 8504   4.512   3.429   4.421
   89SAPC  H15X 8505   4.404   3.401   4.424
   89SAPC  H15Y 8506   4.573   3.341   4.448
   89SAPC  C316 8507   4.558   3.486   4.286
   89SAPC  H16X 8508   4.661   3.529   4.293
   89SAPC  H16Y 8509   4.488   3.572   4.275
   89SAPC  C317 8510   4.558   3.395   4.166
   89SAPC  H17X 8511   4.592   3.453   4.078
   89SAPC  H17Y 8512   4.451   3.365   4.154
   89SAPC  C318 8513   4.639   3.266   4.178
   89SAPC  H18X 8514   4.580   3.197   4.242
   89SAPC  H18Y 8515   4.733   3.279   4.236
   89SAPC  H18Z 8516   4.660   3.216   4.081
   90SAPC     N 8517   1.883   0.244   6.676
   90SAPC   C12 8518   1.955   0.230   6.540
   90SAPC  H12A 8519   1.910   0.143   6.494
   90SAPC  H12B 8520   2.058   0.205   6.561
   90SAPC   C13 8521   1.737   0.255   6.661
   90SAPC  H13A 8522   1.687   0.169   6.620
   90SAPC  H13B 8523   1.691   0.302   6.747
   90SAPC  H13C 8524   1.713   0.320   6.578
   90SAPC   C14 8525   1.924   0.126   6.760
   90SAPC  H14A 8526   1.870   0.129   6.854
   90SAPC  H14B 8527   1.915   0.032   6.709
   90SAPC  H14C 8528   2.031   0.133   6.769
   90SAPC   C15 8529   1.932   0.373   6.738
   90SAPC  H15A 8530   1.877   0.387   6.830
   90SAPC  H15B 8531   2.035   0.365   6.772
   90SAPC  H15C 8532   1.912   0.454   6.670
   90SAPC   C11 8533   1.947   0.355   6.452
   90SAPC  H11A 8534   2.011   0.332   6.364
   90SAPC  H11B 8535   1.992   0.440   6.507
   90SAPC     P 8536   1.735   0.282   6.316
   90SAPC   O13 8537   1.770   0.139   6.344
   90SAPC   O14 8538   1.599   0.324   6.322
   90SAPC   O12 8539   1.814   0.388   6.409
   90SAPC   O11 8540   1.789   0.316   6.171
   90SAPC    C1 8541   1.798   0.447   6.119
   90SAPC    HA 8542   1.706   0.505   6.141
   90SAPC    HB 8543   1.878   0.497   6.178
   90SAPC    C2 8544   1.821   0.443   5.963
   90SAPC    HS 8545   1.875   0.533   5.928
   90SAPC   O21 8546   1.692   0.417   5.906
   90SAPC   C21 8547   1.631   0.519   5.842
   90SAPC   O22 8548   1.675   0.628   5.816
   90SAPC   C22 8549   1.483   0.483   5.819
   90SAPC   H2R 8550   1.477   0.372   5.828
   90SAPC   H2S 8551   1.427   0.541   5.895
   90SAPC    C3 8552   1.912   0.327   5.934
   90SAPC    HX 8553   1.880   0.227   5.971
   90SAPC    HY 8554   2.009   0.353   5.980
   90SAPC   O31 8555   1.931   0.303   5.796
   90SAPC   C31 8556   2.026   0.382   5.740
   90SAPC   O32 8557   2.090   0.470   5.794
   90SAPC   C32 8558   2.041   0.348   5.590
   90SAPC   H2X 8559   2.130   0.403   5.553
   90SAPC   H2Y 8560   1.944   0.385   5.549
   90SAPC   C23 8561   1.433   0.506   5.671
   90SAPC   H3R 8562   1.466   0.606   5.636
   90SAPC   H3S 8563   1.322   0.497   5.679
   90SAPC   C24 8564   1.490   0.396   5.585
   90SAPC   H4R 8565   1.450   0.295   5.607
   90SAPC   H4S 8566   1.597   0.383   5.612
   90SAPC   C25 8567   1.481   0.426   5.441
   90SAPC   H5R 8568   1.430   0.517   5.408
   90SAPC   C26 8569   1.530   0.341   5.339
   90SAPC   H6R 8570   1.521   0.376   5.235
   90SAPC   C27 8571   1.597   0.203   5.340
   90SAPC   H7R 8572   1.519   0.124   5.351
   90SAPC   H7S 8573   1.670   0.186   5.422
   90SAPC   C28 8574   1.682   0.182   5.213
   90SAPC   H8R 8575   1.784   0.144   5.225
   90SAPC   C29 8576   1.631   0.154   5.091
   90SAPC   H9R 8577   1.702   0.137   5.008
   90SAPC  C210 8578   1.488   0.150   5.053
   90SAPC  H10R 8579   1.461   0.229   4.979
   90SAPC  H10S 8580   1.437   0.180   5.148
   90SAPC  C211 8581   1.433   0.013   5.018
   90SAPC  H11R 8582   1.424  -0.054   5.105
   90SAPC  C212 8583   1.415  -0.039   4.893
   90SAPC  H12R 8584   1.393  -0.145   4.875
   90SAPC  C213 8585   1.431   0.031   4.761
   90SAPC  H13R 8586   1.482  -0.038   4.690
   90SAPC  H13S 8587   1.498   0.118   4.771
   90SAPC  C214 8588   1.297   0.073   4.696
   90SAPC  H14R 8589   1.227   0.114   4.770
   90SAPC  C215 8590   1.255   0.051   4.571
   90SAPC  H15R 8591   1.161   0.098   4.537
   90SAPC  C216 8592   1.326  -0.019   4.460
   90SAPC  H16R 8593   1.253  -0.081   4.405
   90SAPC  H16S 8594   1.379  -0.110   4.496
   90SAPC  C217 8595   1.415   0.079   4.380
   90SAPC  H17R 8596   1.371   0.181   4.374
   90SAPC  H17S 8597   1.430   0.036   4.279
   90SAPC  C218 8598   1.558   0.102   4.443
   90SAPC  H18R 8599   1.618   0.009   4.452
   90SAPC  H18S 8600   1.542   0.142   4.546
   90SAPC  C219 8601   1.639   0.208   4.364
   90SAPC  H19R 8602   1.605   0.313   4.375
   90SAPC  H19S 8603   1.624   0.183   4.257
   90SAPC  C220 8604   1.783   0.207   4.408
   90SAPC  H20R 8605   1.835   0.293   4.360
   90SAPC  H20S 8606   1.826   0.107   4.386
   90SAPC  H20T 8607   1.786   0.220   4.518
   90SAPC   C33 8608   2.055   0.196   5.567
   90SAPC   H3X 8609   1.986   0.146   5.638
   90SAPC   H3Y 8610   2.151   0.162   5.610
   90SAPC   C34 8611   2.025   0.142   5.432
   90SAPC   H4X 8612   1.929   0.191   5.402
   90SAPC   H4Y 8613   2.002   0.034   5.435
   90SAPC   C35 8614   2.128   0.173   5.325
   90SAPC   H5X 8615   2.233   0.142   5.345
   90SAPC   H5Y 8616   2.131   0.284   5.318
   90SAPC   C36 8617   2.096   0.112   5.188
   90SAPC   H6X 8618   1.991   0.139   5.165
   90SAPC   H6Y 8619   2.102   0.002   5.182
   90SAPC   C37 8620   2.191   0.169   5.074
   90SAPC   H7X 8621   2.171   0.116   4.979
   90SAPC   H7Y 8622   2.297   0.156   5.105
   90SAPC   C38 8623   2.172   0.315   5.053
   90SAPC   H8X 8624   2.251   0.362   5.115
   90SAPC   H8Y 8625   2.065   0.339   5.071
   90SAPC   C39 8626   2.210   0.359   4.914
   90SAPC   H9X 8627   2.132   0.319   4.845
   90SAPC   H9Y 8628   2.310   0.322   4.882
   90SAPC  C310 8629   2.218   0.510   4.900
   90SAPC  H10X 8630   2.316   0.542   4.941
   90SAPC  H10Y 8631   2.142   0.546   4.973
   90SAPC  C311 8632   2.193   0.560   4.755
   90SAPC  H11X 8633   2.185   0.671   4.753
   90SAPC  H11Y 8634   2.109   0.507   4.706
   90SAPC  C312 8635   2.317   0.525   4.666
   90SAPC  H12X 8636   2.341   0.417   4.665
   90SAPC  H12Y 8637   2.409   0.578   4.700
   90SAPC  C313 8638   2.292   0.562   4.518
   90SAPC  H13X 8639   2.244   0.468   4.482
   90SAPC  H13Y 8640   2.393   0.565   4.474
   90SAPC  C314 8641   2.225   0.703   4.484
   90SAPC  H14X 8642   2.280   0.780   4.542
   90SAPC  H14Y 8643   2.120   0.713   4.518
   90SAPC  C315 8644   2.228   0.744   4.336
   90SAPC  H15X 8645   2.167   0.672   4.276
   90SAPC  H15Y 8646   2.330   0.723   4.297
   90SAPC  C316 8647   2.180   0.893   4.311
   90SAPC  H16X 8648   2.091   0.917   4.374
   90SAPC  H16Y 8649   2.151   0.904   4.204
   90SAPC  C317 8650   2.291   0.993   4.335
   90SAPC  H17X 8651   2.382   0.974   4.274
   90SAPC  H17Y 8652   2.317   0.987   4.443
   90SAPC  C318 8653   2.248   1.131   4.301
   90SAPC  H18X 8654   2.151   1.165   4.343
   90SAPC  H18Y 8655   2.233   1.139   4.192
   90SAPC  H18Z 8656   2.324   1.204   4.337
   91SAPC     N 8657   5.208   1.024   6.774
   91SAPC   C12 8658   5.254   1.019   6.628
   91SAPC  H12A 8659   5.318   1.104   6.606
   91SAPC  H12B 8660   5.165   1.026   6.568
   91SAPC   C13 8661   5.105   1.130   6.794
   91SAPC  H13A 8662   5.025   1.119   6.722
   91SAPC  H13B 8663   5.056   1.125   6.890
   91SAPC  H13C 8664   5.142   1.230   6.780
   91SAPC   C14 8665   5.145   0.895   6.815
   91SAPC  H14A 8666   5.129   0.889   6.922
   91SAPC  H14B 8667   5.054   0.871   6.763
   91SAPC  H14C 8668   5.219   0.821   6.788
   91SAPC   C15 8669   5.322   1.046   6.874
   91SAPC  H15A 8670   5.367   1.141   6.851
   91SAPC  H15B 8671   5.293   1.051   6.977
   91SAPC  H15C 8672   5.393   0.965   6.866
   91SAPC   C11 8673   5.341   0.897   6.588
   91SAPC  H11A 8674   5.366   0.906   6.481
   91SAPC  H11B 8675   5.291   0.797   6.587
   91SAPC     P 8676   5.585   0.976   6.621
   91SAPC   O13 8677   5.553   1.118   6.630
   91SAPC   O14 8678   5.706   0.938   6.699
   91SAPC   O12 8679   5.459   0.885   6.658
   91SAPC   O11 8680   5.618   0.950   6.467
   91SAPC    C1 8681   5.702   0.834   6.435
   91SAPC    HA 8682   5.804   0.877   6.445
   91SAPC    HB 8683   5.688   0.750   6.506
   91SAPC    C2 8684   5.687   0.793   6.285
   91SAPC    HS 8685   5.767   0.719   6.263
   91SAPC   O21 8686   5.675   0.898   6.189
   91SAPC   C21 8687   5.768   0.988   6.191
   91SAPC   O22 8688   5.879   0.968   6.230
   91SAPC   C22 8689   5.720   1.121   6.136
   91SAPC   H2R 8690   5.634   1.162   6.193
   91SAPC   H2S 8691   5.803   1.195   6.146
   91SAPC    C3 8692   5.559   0.707   6.270
   91SAPC    HX 8693   5.464   0.765   6.262
   91SAPC    HY 8694   5.539   0.632   6.349
   91SAPC   O31 8695   5.571   0.636   6.146
   91SAPC   C31 8696   5.629   0.514   6.153
   91SAPC   O32 8697   5.680   0.472   6.252
   91SAPC   C32 8698   5.623   0.442   6.015
   91SAPC   H2X 8699   5.530   0.471   5.961
   91SAPC   H2Y 8700   5.627   0.333   6.036
   91SAPC   C23 8701   5.679   1.127   5.983
   91SAPC   H3R 8702   5.654   1.234   5.966
   91SAPC   H3S 8703   5.584   1.070   5.971
   91SAPC   C24 8704   5.785   1.082   5.884
   91SAPC   H4R 8705   5.735   1.069   5.785
   91SAPC   H4S 8706   5.822   0.978   5.899
   91SAPC   C25 8707   5.903   1.169   5.876
   91SAPC   H5R 8708   5.957   1.192   5.969
   91SAPC   C26 8709   5.948   1.238   5.770
   91SAPC   H6R 8710   6.030   1.308   5.793
   91SAPC   C27 8711   5.897   1.243   5.628
   91SAPC   H7R 8712   5.869   1.144   5.586
   91SAPC   H7S 8713   5.981   1.279   5.565
   91SAPC   C28 8714   5.795   1.343   5.598
   91SAPC   H8R 8715   5.795   1.431   5.664
   91SAPC   C29 8716   5.699   1.328   5.503
   91SAPC   H9R 8717   5.622   1.405   5.487
   91SAPC  C210 8718   5.690   1.222   5.396
   91SAPC  H10R 8719   5.604   1.154   5.418
   91SAPC  H10S 8720   5.791   1.175   5.398
   91SAPC  C211 8721   5.671   1.294   5.262
   91SAPC  H11R 8722   5.579   1.354   5.255
   91SAPC  C212 8723   5.741   1.275   5.152
   91SAPC  H12R 8724   5.713   1.317   5.054
   91SAPC  C213 8725   5.855   1.189   5.124
   91SAPC  H13R 8726   5.832   1.118   5.042
   91SAPC  H13S 8727   5.873   1.120   5.210
   91SAPC  C214 8728   5.977   1.261   5.078
   91SAPC  H14R 8729   5.998   1.231   4.974
   91SAPC  C215 8730   6.047   1.359   5.136
   91SAPC  H15R 8731   6.137   1.398   5.087
   91SAPC  C216 8732   6.039   1.410   5.278
   91SAPC  H16R 8733   5.954   1.363   5.331
   91SAPC  H16S 8734   6.021   1.520   5.276
   91SAPC  C217 8735   6.162   1.373   5.358
   91SAPC  H17R 8736   6.175   1.263   5.355
   91SAPC  H17S 8737   6.131   1.412   5.458
   91SAPC  C218 8738   6.289   1.443   5.304
   91SAPC  H18R 8739   6.270   1.550   5.277
   91SAPC  H18S 8740   6.314   1.377   5.218
   91SAPC  C219 8741   6.395   1.422   5.411
   91SAPC  H19R 8742   6.411   1.313   5.429
   91SAPC  H19S 8743   6.365   1.458   5.512
   91SAPC  C220 8744   6.522   1.494   5.379
   91SAPC  H20R 8745   6.515   1.605   5.374
   91SAPC  H20S 8746   6.560   1.442   5.288
   91SAPC  H20T 8747   6.594   1.480   5.462
   91SAPC   C33 8748   5.744   0.475   5.927
   91SAPC   H3X 8749   5.838   0.436   5.970
   91SAPC   H3Y 8750   5.747   0.585   5.910
   91SAPC   C34 8751   5.734   0.416   5.784
   91SAPC   H4X 8752   5.682   0.486   5.716
   91SAPC   H4Y 8753   5.691   0.315   5.803
   91SAPC   C35 8754   5.872   0.373   5.725
   91SAPC   H5X 8755   5.914   0.286   5.780
   91SAPC   H5Y 8756   5.944   0.457   5.725
   91SAPC   C36 8757   5.862   0.335   5.571
   91SAPC   H6X 8758   5.814   0.421   5.520
   91SAPC   H6Y 8759   5.788   0.254   5.550
   91SAPC   C37 8760   5.989   0.299   5.496
   91SAPC   H7X 8761   6.029   0.209   5.548
   91SAPC   H7Y 8762   6.063   0.380   5.516
   91SAPC   C38 8763   5.967   0.256   5.351
   91SAPC   H8X 8764   5.900   0.167   5.344
   91SAPC   H8Y 8765   6.067   0.219   5.320
   91SAPC   C39 8766   5.927   0.378   5.261
   91SAPC   H9X 8767   6.007   0.455   5.259
   91SAPC   H9Y 8768   5.833   0.429   5.292
   91SAPC  C310 8769   5.917   0.333   5.115
   91SAPC  H10X 8770   5.823   0.280   5.089
   91SAPC  H10Y 8771   6.003   0.267   5.093
   91SAPC  C311 8772   5.925   0.456   5.018
   91SAPC  H11X 8773   6.010   0.516   5.056
   91SAPC  H11Y 8774   5.838   0.524   5.025
   91SAPC  C312 8775   5.941   0.420   4.867
   91SAPC  H12X 8776   5.853   0.357   4.842
   91SAPC  H12Y 8777   6.027   0.353   4.845
   91SAPC  C313 8778   5.937   0.548   4.787
   91SAPC  H13X 8779   6.046   0.567   4.771
   91SAPC  H13Y 8780   5.883   0.622   4.849
   91SAPC  C314 8781   5.872   0.544   4.649
   91SAPC  H14X 8782   5.890   0.644   4.605
   91SAPC  H14Y 8783   5.766   0.517   4.669
   91SAPC  C315 8784   5.934   0.434   4.564
   91SAPC  H15X 8785   5.914   0.334   4.608
   91SAPC  H15Y 8786   6.043   0.453   4.576
   91SAPC  C316 8787   5.900   0.434   4.412
   91SAPC  H16X 8788   5.908   0.539   4.376
   91SAPC  H16Y 8789   5.794   0.401   4.405
   91SAPC  C317 8790   5.986   0.331   4.339
   91SAPC  H17X 8791   5.973   0.234   4.392
   91SAPC  H17Y 8792   6.094   0.358   4.347
   91SAPC  C318 8793   5.943   0.318   4.192
   91SAPC  H18X 8794   5.935   0.420   4.148
   91SAPC  H18Y 8795   5.842   0.271   4.190
   91SAPC  H18Z 8796   6.015   0.255   4.137
   92SAPC     N 8797   6.435   6.252   6.857
   92SAPC   C12 8798   6.383   6.125   6.800
   92SAPC  H12A 8799   6.455   6.090   6.727
   92SAPC  H12B 8800   6.295   6.154   6.744
   92SAPC   C13 8801   6.336   6.331   6.939
   92SAPC  H13A 8802   6.243   6.339   6.884
   92SAPC  H13B 8803   6.316   6.269   7.025
   92SAPC  H13C 8804   6.379   6.426   6.967
   92SAPC   C14 8805   6.558   6.234   6.940
   92SAPC  H14A 8806   6.638   6.192   6.882
   92SAPC  H14B 8807   6.594   6.327   6.982
   92SAPC  H14C 8808   6.524   6.174   7.024
   92SAPC   C15 8809   6.475   6.351   6.747
   92SAPC  H15A 8810   6.530   6.295   6.672
   92SAPC  H15B 8811   6.388   6.393   6.699
   92SAPC  H15C 8812   6.540   6.426   6.791
   92SAPC   C11 8813   6.340   6.017   6.899
   92SAPC  H11A 8814   6.432   5.984   6.952
   92SAPC  H11B 8815   6.302   5.937   6.833
   92SAPC     P 8816   6.086   6.077   6.936
   92SAPC   O13 8817   6.010   5.957   6.986
   92SAPC   O14 8818   6.041   6.212   6.976
   92SAPC   O12 8819   6.243   6.074   6.981
   92SAPC   O11 8820   6.088   6.063   6.780
   92SAPC    C1 8821   5.986   5.978   6.717
   92SAPC    HA 8822   5.889   5.975   6.771
   92SAPC    HB 8823   5.961   6.014   6.614
   92SAPC    C2 8824   6.032   5.826   6.686
   92SAPC    HS 8825   6.080   5.784   6.777
   92SAPC   O21 8826   6.130   5.833   6.585
   92SAPC   C21 8827   6.202   5.727   6.562
   92SAPC   O22 8828   6.206   5.631   6.636
   92SAPC   C22 8829   6.274   5.748   6.435
   92SAPC   H2R 8830   6.240   5.838   6.379
   92SAPC   H2S 8831   6.377   5.773   6.469
   92SAPC    C3 8832   5.907   5.743   6.637
   92SAPC    HX 8833   5.840   5.747   6.726
   92SAPC    HY 8834   5.937   5.637   6.619
   92SAPC   O31 8835   5.849   5.803   6.522
   92SAPC   C31 8836   5.784   5.724   6.438
   92SAPC   O32 8837   5.761   5.608   6.463
   92SAPC   C32 8838   5.760   5.801   6.304
   92SAPC   H2X 8839   5.837   5.881   6.305
   92SAPC   H2Y 8840   5.662   5.852   6.302
   92SAPC   C23 8841   6.259   5.638   6.327
   92SAPC   H3R 8842   6.257   5.540   6.378
   92SAPC   H3S 8843   6.347   5.648   6.260
   92SAPC   C24 8844   6.129   5.659   6.243
   92SAPC   H4R 8845   6.044   5.647   6.313
   92SAPC   H4S 8846   6.121   5.572   6.174
   92SAPC   C25 8847   6.109   5.793   6.176
   92SAPC   H5R 8848   6.035   5.858   6.225
   92SAPC   C26 8849   6.176   5.846   6.077
   92SAPC   H6R 8850   6.134   5.935   6.026
   92SAPC   C27 8851   6.283   5.770   5.996
   92SAPC   H7R 8852   6.357   5.743   6.074
   92SAPC   H7S 8853   6.340   5.838   5.929
   92SAPC   C28 8854   6.244   5.644   5.915
   92SAPC   H8R 8855   6.286   5.554   5.962
   92SAPC   C29 8856   6.190   5.646   5.794
   92SAPC   H9R 8857   6.193   5.552   5.736
   92SAPC  C210 8858   6.167   5.772   5.710
   92SAPC  H10R 8859   6.122   5.854   5.769
   92SAPC  H10S 8860   6.082   5.746   5.642
   92SAPC  C211 8861   6.273   5.846   5.630
   92SAPC  H11R 8862   6.343   5.892   5.701
   92SAPC  C212 8863   6.288   5.859   5.497
   92SAPC  H12R 8864   6.367   5.921   5.452
   92SAPC  C213 8865   6.213   5.791   5.389
   92SAPC  H13R 8866   6.145   5.867   5.345
   92SAPC  H13S 8867   6.152   5.709   5.433
   92SAPC  C214 8868   6.296   5.728   5.279
   92SAPC  H14R 8869   6.371   5.657   5.317
   92SAPC  C215 8870   6.312   5.765   5.152
   92SAPC  H15R 8871   6.375   5.704   5.086
   92SAPC  C216 8872   6.240   5.884   5.094
   92SAPC  H16R 8873   6.319   5.962   5.089
   92SAPC  H16S 8874   6.156   5.921   5.157
   92SAPC  C217 8875   6.196   5.870   4.946
   92SAPC  H17R 8876   6.117   5.938   4.908
   92SAPC  H17S 8877   6.148   5.770   4.939
   92SAPC  C218 8878   6.306   5.861   4.840
   92SAPC  H18R 8879   6.373   5.773   4.854
   92SAPC  H18S 8880   6.368   5.953   4.844
   92SAPC  C219 8881   6.262   5.836   4.695
   92SAPC  H19R 8882   6.208   5.739   4.692
   92SAPC  H19S 8883   6.357   5.821   4.638
   92SAPC  C220 8884   6.181   5.954   4.640
   92SAPC  H20R 8885   6.229   6.053   4.656
   92SAPC  H20S 8886   6.082   5.979   4.685
   92SAPC  H20T 8887   6.147   5.931   4.537
   92SAPC   C33 8888   5.771   5.707   6.181
   92SAPC   H3X 8889   5.701   5.621   6.186
   92SAPC   H3Y 8890   5.871   5.659   6.182
   92SAPC   C34 8891   5.746   5.783   6.050
   92SAPC   H4X 8892   5.814   5.872   6.052
   92SAPC   H4Y 8893   5.642   5.822   6.054
   92SAPC   C35 8894   5.771   5.697   5.920
   92SAPC   H5X 8895   5.699   5.612   5.920
   92SAPC   H5Y 8896   5.875   5.659   5.916
   92SAPC   C36 8897   5.752   5.777   5.795
   92SAPC   H6X 8898   5.836   5.850   5.786
   92SAPC   H6Y 8899   5.660   5.840   5.797
   92SAPC   C37 8900   5.745   5.700   5.666
   92SAPC   H7X 8901   5.640   5.662   5.666
   92SAPC   H7Y 8902   5.814   5.614   5.682
   92SAPC   C38 8903   5.778   5.773   5.532
   92SAPC   H8X 8904   5.889   5.777   5.539
   92SAPC   H8Y 8905   5.734   5.875   5.536
   92SAPC   C39 8906   5.741   5.690   5.410
   92SAPC   H9X 8907   5.634   5.661   5.411
   92SAPC   H9Y 8908   5.803   5.598   5.412
   92SAPC  C310 8909   5.761   5.776   5.284
   92SAPC  H10X 8910   5.866   5.814   5.283
   92SAPC  H10Y 8911   5.696   5.866   5.294
   92SAPC  C311 8912   5.729   5.706   5.151
   92SAPC  H11X 8913   5.621   5.698   5.130
   92SAPC  H11Y 8914   5.762   5.601   5.164
   92SAPC  C312 8915   5.814   5.771   5.041
   92SAPC  H12X 8916   5.919   5.736   5.047
   92SAPC  H12Y 8917   5.804   5.881   5.050
   92SAPC  C313 8918   5.782   5.738   4.892
   92SAPC  H13X 8919   5.678   5.769   4.869
   92SAPC  H13Y 8920   5.785   5.627   4.889
   92SAPC  C314 8921   5.876   5.782   4.791
   92SAPC  H14X 8922   5.970   5.728   4.817
   92SAPC  H14Y 8923   5.888   5.890   4.813
   92SAPC  C315 8924   5.827   5.760   4.643
   92SAPC  H15X 8925   5.897   5.812   4.574
   92SAPC  H15Y 8926   5.733   5.817   4.630
   92SAPC  C316 8927   5.816   5.610   4.611
   92SAPC  H16X 8928   5.729   5.574   4.670
   92SAPC  H16Y 8929   5.903   5.547   4.638
   92SAPC  C317 8930   5.796   5.580   4.461
   92SAPC  H17X 8931   5.758   5.476   4.454
   92SAPC  H17Y 8932   5.892   5.571   4.407
   92SAPC  C318 8933   5.715   5.685   4.380
   92SAPC  H18X 8934   5.700   5.650   4.275
   92SAPC  H18Y 8935   5.767   5.782   4.369
   92SAPC  H18Z 8936   5.611   5.692   4.418
   93SAPC     N 8937   1.179   1.352   6.528
   93SAPC   C12 8938   1.129   1.385   6.389
   93SAPC  H12A 8939   1.196   1.453   6.338
   93SAPC  H12B 8940   1.027   1.421   6.390
   93SAPC   C13 8941   1.306   1.265   6.531
   93SAPC  H13A 8942   1.314   1.179   6.465
   93SAPC  H13B 8943   1.389   1.326   6.496
   93SAPC  H13C 8944   1.321   1.226   6.630
   93SAPC   C14 8945   1.207   1.479   6.605
   93SAPC  H14A 8946   1.226   1.569   6.548
   93SAPC  H14B 8947   1.122   1.491   6.670
   93SAPC  H14C 8948   1.289   1.467   6.675
   93SAPC   C15 8949   1.075   1.277   6.591
   93SAPC  H15A 8950   0.982   1.332   6.597
   93SAPC  H15B 8951   1.061   1.186   6.535
   93SAPC  H15C 8952   1.091   1.247   6.693
   93SAPC   C11 8953   1.115   1.267   6.290
   93SAPC  H11A 8954   1.209   1.225   6.249
   93SAPC  H11B 8955   1.076   1.320   6.201
   93SAPC     P 8956   1.065   1.012   6.335
   93SAPC   O13 8957   1.214   0.993   6.334
   93SAPC   O14 8958   0.994   0.937   6.440
   93SAPC   O12 8959   1.021   1.168   6.325
   93SAPC   O11 8960   1.002   0.965   6.197
   93SAPC    C1 8961   0.872   1.001   6.151
   93SAPC    HA 8962   0.810   1.045   6.232
   93SAPC    HB 8963   0.902   1.075   6.074
   93SAPC    C2 8964   0.799   0.878   6.080
   93SAPC    HS 8965   0.817   0.791   6.146
   93SAPC   O21 8966   0.851   0.875   5.951
   93SAPC   C21 8967   0.830   0.764   5.889
   93SAPC   O22 8968   0.810   0.650   5.936
   93SAPC   C22 8969   0.830   0.784   5.738
   93SAPC   H2R 8970   0.779   0.702   5.683
   93SAPC   H2S 8971   0.771   0.876   5.718
   93SAPC    C3 8972   0.647   0.904   6.079
   93SAPC    HX 8973   0.631   0.992   6.014
   93SAPC    HY 8974   0.616   0.940   6.180
   93SAPC   O31 8975   0.581   0.790   6.025
   93SAPC   C31 8976   0.534   0.694   6.113
   93SAPC   O32 8977   0.542   0.708   6.234
   93SAPC   C32 8978   0.463   0.586   6.035
   93SAPC   H2X 8979   0.535   0.513   5.993
   93SAPC   H2Y 8980   0.411   0.638   5.952
   93SAPC   C23 8981   0.974   0.807   5.690
   93SAPC   H3R 8982   1.015   0.904   5.726
   93SAPC   H3S 8983   0.972   0.799   5.579
   93SAPC   C24 8984   1.072   0.696   5.729
   93SAPC   H4R 8985   1.100   0.712   5.835
   93SAPC   H4S 8986   1.164   0.721   5.672
   93SAPC   C25 8987   1.028   0.559   5.691
   93SAPC   H5R 8988   0.977   0.511   5.775
   93SAPC   C26 8989   1.037   0.494   5.568
   93SAPC   H6R 8990   0.981   0.400   5.557
   93SAPC   C27 8991   1.093   0.549   5.429
   93SAPC   H7R 8992   1.170   0.482   5.385
   93SAPC   H7S 8993   1.140   0.648   5.447
   93SAPC   C28 8994   0.989   0.569   5.320
   93SAPC   H8R 8995   0.882   0.563   5.344
   93SAPC   C29 8996   1.019   0.596   5.192
   93SAPC   H9R 8997   0.930   0.617   5.132
   93SAPC  C210 8998   1.159   0.605   5.127
   93SAPC  H10R 8999   1.233   0.640   5.201
   93SAPC  H10S 9000   1.163   0.683   5.048
   93SAPC  C211 9001   1.190   0.463   5.074
   93SAPC  H11R 9002   1.223   0.392   5.151
   93SAPC  C212 9003   1.181   0.415   4.948
   93SAPC  H12R 9004   1.206   0.309   4.937
   93SAPC  C213 9005   1.137   0.502   4.831
   93SAPC  H13R 9006   1.090   0.599   4.855
   93SAPC  H13S 9007   1.052   0.452   4.780
   93SAPC  C214 9008   1.254   0.523   4.742
   93SAPC  H14R 9009   1.353   0.504   4.785
   93SAPC  C215 9010   1.257   0.549   4.616
   93SAPC  H15R 9011   1.358   0.568   4.577
   93SAPC  C216 9012   1.156   0.592   4.510
   93SAPC  H16R 9013   1.184   0.693   4.474
   93SAPC  H16S 9014   1.049   0.582   4.538
   93SAPC  C217 9015   1.168   0.490   4.394
   93SAPC  H17R 9016   1.128   0.392   4.428
   93SAPC  H17S 9017   1.271   0.482   4.354
   93SAPC  C218 9018   1.080   0.526   4.278
   93SAPC  H18R 9019   1.113   0.627   4.247
   93SAPC  H18S 9020   0.978   0.523   4.322
   93SAPC  C219 9021   1.092   0.441   4.152
   93SAPC  H19R 9022   1.107   0.335   4.178
   93SAPC  H19S 9023   1.183   0.481   4.101
   93SAPC  C220 9024   0.975   0.463   4.054
   93SAPC  H20R 9025   0.890   0.405   4.097
   93SAPC  H20S 9026   1.007   0.436   3.952
   93SAPC  H20T 9027   0.953   0.569   4.077
   93SAPC   C33 9028   0.354   0.513   6.115
   93SAPC   H3X 9029   0.281   0.576   6.170
   93SAPC   H3Y 9030   0.397   0.437   6.184
   93SAPC   C34 9031   0.265   0.449   6.008
   93SAPC   H4X 9032   0.338   0.383   5.956
   93SAPC   H4Y 9033   0.215   0.509   5.929
   93SAPC   C35 9034   0.168   0.348   6.067
   93SAPC   H5X 9035   0.086   0.409   6.113
   93SAPC   H5Y 9036   0.209   0.275   6.140
   93SAPC   C36 9037   0.104   0.270   5.955
   93SAPC   H6X 9038   0.177   0.196   5.918
   93SAPC   H6Y 9039   0.087   0.331   5.864
   93SAPC   C37 9040  -0.030   0.211   5.988
   93SAPC   H7X 9041  -0.108   0.287   6.007
   93SAPC   H7Y 9042  -0.003   0.166   6.085
   93SAPC   C38 9043  -0.080   0.100   5.897
   93SAPC   H8X 9044  -0.169   0.056   5.947
   93SAPC   H8Y 9045  -0.010   0.014   5.891
   93SAPC   C39 9046  -0.101   0.149   5.752
   93SAPC   H9X 9047  -0.007   0.185   5.706
   93SAPC   H9Y 9048  -0.168   0.236   5.771
   93SAPC  C310 9049  -0.182   0.056   5.663
   93SAPC  H10X 9050  -0.280   0.054   5.714
   93SAPC  H10Y 9051  -0.130  -0.042   5.663
   93SAPC  C311 9052  -0.193   0.092   5.518
   93SAPC  H11X 9053  -0.229   0.010   5.453
   93SAPC  H11Y 9054  -0.100   0.136   5.476
   93SAPC  C312 9055  -0.296   0.199   5.484
   93SAPC  H12X 9056  -0.276   0.298   5.532
   93SAPC  H12Y 9057  -0.389   0.164   5.535
   93SAPC  C313 9058  -0.316   0.215   5.331
   93SAPC  H13X 9059  -0.307   0.117   5.278
   93SAPC  H13Y 9060  -0.234   0.272   5.282
   93SAPC  C314 9061  -0.456   0.271   5.288
   93SAPC  H14X 9062  -0.467   0.378   5.317
   93SAPC  H14Y 9063  -0.530   0.215   5.349
   93SAPC  C315 9064  -0.469   0.253   5.136
   93SAPC  H15X 9065  -0.570   0.217   5.110
   93SAPC  H15Y 9066  -0.399   0.183   5.085
   93SAPC  C316 9067  -0.459   0.385   5.070
   93SAPC  H16X 9068  -0.369   0.440   5.106
   93SAPC  H16Y 9069  -0.550   0.437   5.108
   93SAPC  C317 9070  -0.472   0.398   4.913
   93SAPC  H17X 9071  -0.482   0.507   4.895
   93SAPC  H17Y 9072  -0.563   0.353   4.868
   93SAPC  C318 9073  -0.344   0.352   4.852
   93SAPC  H18X 9074  -0.334   0.241   4.851
   93SAPC  H18Y 9075  -0.258   0.400   4.904
   93SAPC  H18Z 9076  -0.337   0.383   4.746
   94SAPC     N 9077   6.491   5.378   6.729
   94SAPC   C12 9078   6.632   5.343   6.710
   94SAPC  H12A 9079   6.641   5.241   6.673
   94SAPC  H12B 9080   6.674   5.342   6.810
   94SAPC   C13 9081   6.417   5.275   6.809
   94SAPC  H13A 9082   6.419   5.180   6.759
   94SAPC  H13B 9083   6.460   5.256   6.907
   94SAPC  H13C 9084   6.315   5.308   6.819
   94SAPC   C14 9085   6.487   5.504   6.805
   94SAPC  H14A 9086   6.547   5.501   6.894
   94SAPC  H14B 9087   6.522   5.587   6.746
   94SAPC  H14C 9088   6.387   5.537   6.832
   94SAPC   C15 9089   6.424   5.390   6.587
   94SAPC  H15A 9090   6.497   5.448   6.531
   94SAPC  H15B 9091   6.421   5.291   6.545
   94SAPC  H15C 9092   6.328   5.439   6.594
   94SAPC   C11 9093   6.726   5.436   6.637
   94SAPC  H11A 9094   6.829   5.404   6.663
   94SAPC  H11B 9095   6.708   5.539   6.674
   94SAPC     P 9096   6.814   5.426   6.390
   94SAPC   O13 9097   6.894   5.549   6.392
   94SAPC   O14 9098   6.889   5.298   6.425
   94SAPC   O12 9099   6.699   5.444   6.494
   94SAPC   O11 9100   6.747   5.423   6.245
   94SAPC    C1 9101   6.620   5.489   6.225
   94SAPC    HA 9102   6.561   5.437   6.147
   94SAPC    HB 9103   6.552   5.475   6.311
   94SAPC    C2 9104   6.629   5.645   6.194
   94SAPC    HS 9105   6.535   5.684   6.150
   94SAPC   O21 9106   6.735   5.691   6.119
   94SAPC   C21 9107   6.767   5.642   5.995
   94SAPC   O22 9108   6.690   5.576   5.929
   94SAPC   C22 9109   6.919   5.681   5.967
   94SAPC   H2R 9110   6.928   5.790   5.955
   94SAPC   H2S 9111   6.966   5.661   6.066
   94SAPC    C3 9112   6.645   5.742   6.321
   94SAPC    HX 9113   6.751   5.737   6.356
   94SAPC    HY 9114   6.589   5.696   6.405
   94SAPC   O31 9115   6.602   5.878   6.289
   94SAPC   C31 9116   6.704   5.963   6.263
   94SAPC   O32 9117   6.821   5.938   6.277
   94SAPC   C32 9118   6.642   6.087   6.199
   94SAPC   H2X 9119   6.724   6.162   6.187
   94SAPC   H2Y 9120   6.566   6.117   6.274
   94SAPC   C23 9121   6.967   5.603   5.844
   94SAPC   H3R 9122   6.912   5.635   5.753
   94SAPC   H3S 9123   6.950   5.493   5.851
   94SAPC   C24 9124   7.121   5.609   5.828
   94SAPC   H4R 9125   7.152   5.531   5.754
   94SAPC   H4S 9126   7.165   5.566   5.921
   94SAPC   C25 9127   7.165   5.747   5.796
   94SAPC   H5R 9128   7.206   5.806   5.879
   94SAPC   C26 9129   7.183   5.795   5.672
   94SAPC   H6R 9130   7.204   5.902   5.660
   94SAPC   C27 9131   7.142   5.729   5.538
   94SAPC   H7R 9132   7.070   5.646   5.554
   94SAPC   H7S 9133   7.234   5.682   5.499
   94SAPC   C28 9134   7.078   5.825   5.448
   94SAPC   H8R 9135   7.005   5.898   5.488
   94SAPC   C29 9136   7.097   5.841   5.312
   94SAPC   H9R 9137   7.036   5.921   5.269
   94SAPC  C210 9138   7.203   5.772   5.228
   94SAPC  H10R 9139   7.141   5.737   5.142
   94SAPC  H10S 9140   7.248   5.681   5.274
   94SAPC  C211 9141   7.311   5.863   5.178
   94SAPC  H11R 9142   7.384   5.886   5.257
   94SAPC  C212 9143   7.333   5.920   5.058
   94SAPC  H12R 9144   7.419   5.988   5.043
   94SAPC  C213 9145   7.238   5.914   4.941
   94SAPC  H13R 9146   7.158   5.988   4.962
   94SAPC  H13S 9147   7.197   5.811   4.939
   94SAPC  C214 9148   7.306   5.962   4.815
   94SAPC  H14R 9149   7.314   6.072   4.816
   94SAPC  C215 9150   7.364   5.887   4.721
   94SAPC  H15R 9151   7.421   5.933   4.639
   94SAPC  C216 9152   7.358   5.731   4.724
   94SAPC  H16R 9153   7.369   5.704   4.617
   94SAPC  H16S 9154   7.257   5.699   4.758
   94SAPC  C217 9155   7.462   5.663   4.814
   94SAPC  H17R 9156   7.451   5.552   4.813
   94SAPC  H17S 9157   7.445   5.690   4.921
   94SAPC  C218 9158   7.607   5.692   4.780
   94SAPC  H18R 9159   7.622   5.802   4.783
   94SAPC  H18S 9160   7.640   5.653   4.682
   94SAPC  C219 9161   7.701   5.617   4.878
   94SAPC  H19R 9162   7.805   5.605   4.841
   94SAPC  H19S 9163   7.658   5.515   4.882
   94SAPC  C220 9164   7.714   5.687   5.007
   94SAPC  H20R 9165   7.619   5.720   5.055
   94SAPC  H20S 9166   7.770   5.780   4.982
   94SAPC  H20T 9167   7.779   5.630   5.077
   94SAPC   C33 9168   6.581   6.049   6.063
   94SAPC   H3X 9169   6.515   6.129   6.024
   94SAPC   H3Y 9170   6.510   5.965   6.079
   94SAPC   C34 9171   6.686   6.021   5.961
   94SAPC   H4X 9172   6.751   5.937   5.994
   94SAPC   H4Y 9173   6.748   6.110   5.939
   94SAPC   C35 9174   6.638   5.980   5.822
   94SAPC   H5X 9175   6.567   6.058   5.785
   94SAPC   H5Y 9176   6.573   5.891   5.836
   94SAPC   C36 9177   6.756   5.956   5.734
   94SAPC   H6X 9178   6.825   5.884   5.783
   94SAPC   H6Y 9179   6.815   6.046   5.706
   94SAPC   C37 9180   6.710   5.898   5.595
   94SAPC   H7X 9181   6.632   5.826   5.628
   94SAPC   H7Y 9182   6.794   5.851   5.541
   94SAPC   C38 9183   6.642   5.998   5.493
   94SAPC   H8X 9184   6.702   6.091   5.486
   94SAPC   H8Y 9185   6.540   6.012   5.536
   94SAPC   C39 9186   6.622   5.934   5.354
   94SAPC   H9X 9187   6.558   6.014   5.308
   94SAPC   H9Y 9188   6.563   5.840   5.358
   94SAPC  C310 9189   6.750   5.909   5.272
   94SAPC  H10X 9190   6.810   5.823   5.308
   94SAPC  H10Y 9191   6.819   5.995   5.280
   94SAPC  C311 9192   6.711   5.896   5.118
   94SAPC  H11X 9193   6.665   5.990   5.080
   94SAPC  H11Y 9194   6.630   5.820   5.106
   94SAPC  C312 9195   6.836   5.848   5.038
   94SAPC  H12X 9196   6.864   5.747   5.076
   94SAPC  H12Y 9197   6.923   5.917   5.034
   94SAPC  C313 9198   6.797   5.837   4.886
   94SAPC  H13X 9199   6.725   5.913   4.847
   94SAPC  H13Y 9200   6.746   5.739   4.874
   94SAPC  C314 9201   6.923   5.830   4.800
   94SAPC  H14X 9202   6.996   5.781   4.867
   94SAPC  H14Y 9203   6.948   5.937   4.783
   94SAPC  C315 9204   6.923   5.773   4.657
   94SAPC  H15X 9205   6.914   5.662   4.662
   94SAPC  H15Y 9206   7.017   5.811   4.612
   94SAPC  C316 9207   6.810   5.829   4.560
   94SAPC  H16X 9208   6.729   5.850   4.633
   94SAPC  H16Y 9209   6.782   5.756   4.481
   94SAPC  C317 9210   6.833   5.972   4.517
   94SAPC  H17X 9211   6.921   5.982   4.450
   94SAPC  H17Y 9212   6.861   6.028   4.609
   94SAPC  C318 9213   6.718   6.054   4.460
   94SAPC  H18X 9214   6.642   6.072   4.539
   94SAPC  H18Y 9215   6.672   5.997   4.377
   94SAPC  H18Z 9216   6.757   6.148   4.417
   95SAPC     N 9217   4.127   1.644   2.321
   95SAPC   C12 9218   3.990   1.604   2.255
   95SAPC  H12A 9219   4.008   1.514   2.198
   95SAPC  H12B 9220   3.955   1.682   2.188
   95SAPC   C13 9221   4.167   1.562   2.436
   95SAPC  H13A 9222   4.181   1.459   2.406
   95SAPC  H13B 9223   4.259   1.603   2.476
   95SAPC  H13C 9224   4.091   1.563   2.513
   95SAPC   C14 9225   4.236   1.629   2.228
   95SAPC  H14A 9226   4.327   1.664   2.274
   95SAPC  H14B 9227   4.239   1.527   2.192
   95SAPC  H14C 9228   4.234   1.698   2.145
   95SAPC   C15 9229   4.134   1.782   2.368
   95SAPC  H15A 9230   4.063   1.815   2.443
   95SAPC  H15B 9231   4.228   1.806   2.416
   95SAPC  H15C 9232   4.112   1.846   2.284
   95SAPC   C11 9233   3.871   1.576   2.353
   95SAPC  H11A 9234   3.776   1.585   2.296
   95SAPC  H11B 9235   3.850   1.653   2.430
   95SAPC     P 9236   3.834   1.315   2.376
   95SAPC   O13 9237   3.871   1.281   2.232
   95SAPC   O14 9238   3.875   1.208   2.478
   95SAPC   O12 9239   3.887   1.455   2.424
   95SAPC   O11 9240   3.675   1.330   2.382
   95SAPC    C1 9241   3.596   1.372   2.506
   95SAPC    HA 9242   3.636   1.304   2.584
   95SAPC    HB 9243   3.602   1.480   2.529
   95SAPC    C2 9244   3.451   1.336   2.487
   95SAPC    HS 9245   3.448   1.234   2.444
   95SAPC   O21 9246   3.394   1.426   2.396
   95SAPC   C21 9247   3.263   1.390   2.364
   95SAPC   O22 9248   3.218   1.279   2.383
   95SAPC   C22 9249   3.186   1.490   2.287
   95SAPC   H2R 9250   3.255   1.511   2.202
   95SAPC   H2S 9251   3.088   1.453   2.251
   95SAPC    C3 9252   3.378   1.345   2.624
   95SAPC    HX 9253   3.268   1.364   2.616
   95SAPC    HY 9254   3.413   1.435   2.680
   95SAPC   O31 9255   3.390   1.220   2.694
   95SAPC   C31 9256   3.461   1.217   2.804
   95SAPC   O32 9257   3.513   1.315   2.857
   95SAPC   C32 9258   3.483   1.072   2.832
   95SAPC   H2X 9259   3.533   1.019   2.748
   95SAPC   H2Y 9260   3.381   1.034   2.852
   95SAPC   C23 9261   3.164   1.633   2.354
   95SAPC   H3R 9262   3.173   1.711   2.275
   95SAPC   H3S 9263   3.246   1.662   2.422
   95SAPC   C24 9264   3.022   1.650   2.414
   95SAPC   H4R 9265   2.941   1.611   2.348
   95SAPC   H4S 9266   3.007   1.759   2.430
   95SAPC   C25 9267   3.004   1.580   2.548
   95SAPC   H5R 9268   2.926   1.502   2.556
   95SAPC   C26 9269   3.081   1.602   2.663
   95SAPC   H6R 9270   3.058   1.545   2.754
   95SAPC   C27 9271   3.170   1.723   2.691
   95SAPC   H7R 9272   3.112   1.767   2.774
   95SAPC   H7S 9273   3.170   1.793   2.604
   95SAPC   C28 9274   3.311   1.704   2.724
   95SAPC   H8R 9275   3.390   1.709   2.648
   95SAPC   C29 9276   3.349   1.696   2.853
   95SAPC   H9R 9277   3.453   1.668   2.876
   95SAPC  C210 9278   3.271   1.691   2.975
   95SAPC  H10R 9279   3.166   1.668   2.945
   95SAPC  H10S 9280   3.279   1.787   3.029
   95SAPC  C211 9281   3.305   1.570   3.066
   95SAPC  H11R 9282   3.339   1.481   3.010
   95SAPC  C212 9283   3.292   1.575   3.201
   95SAPC  H12R 9284   3.301   1.479   3.255
   95SAPC  C213 9285   3.250   1.695   3.282
   95SAPC  H13R 9286   3.151   1.671   3.327
   95SAPC  H13S 9287   3.220   1.778   3.215
   95SAPC  C214 9288   3.348   1.750   3.384
   95SAPC  H14R 9289   3.428   1.813   3.343
   95SAPC  C215 9290   3.358   1.713   3.515
   95SAPC  H15R 9291   3.428   1.772   3.576
   95SAPC  C216 9292   3.272   1.625   3.597
   95SAPC  H16R 9293   3.320   1.536   3.644
   95SAPC  H16S 9294   3.193   1.573   3.539
   95SAPC  C217 9295   3.206   1.697   3.719
   95SAPC  H17R 9296   3.149   1.778   3.669
   95SAPC  H17S 9297   3.275   1.749   3.788
   95SAPC  C218 9298   3.111   1.599   3.789
   95SAPC  H18R 9299   3.159   1.499   3.776
   95SAPC  H18S 9300   3.014   1.588   3.736
   95SAPC  C219 9301   3.101   1.624   3.937
   95SAPC  H19R 9302   3.196   1.661   3.982
   95SAPC  H19S 9303   3.061   1.537   3.994
   95SAPC  C220 9304   3.008   1.734   3.969
   95SAPC  H20R 9305   2.905   1.717   3.930
   95SAPC  H20S 9306   3.043   1.825   3.916
   95SAPC  H20T 9307   3.000   1.741   4.080
   95SAPC   C33 9308   3.558   1.049   2.961
   95SAPC   H3X 9309   3.491   1.076   3.045
   95SAPC   H3Y 9310   3.646   1.117   2.951
   95SAPC   C34 9311   3.602   0.898   2.982
   95SAPC   H4X 9312   3.642   0.861   2.885
   95SAPC   H4Y 9313   3.501   0.851   2.980
   95SAPC   C35 9314   3.688   0.865   3.101
   95SAPC   H5X 9315   3.791   0.905   3.088
   95SAPC   H5Y 9316   3.691   0.755   3.111
   95SAPC   C36 9317   3.640   0.928   3.230
   95SAPC   H6X 9318   3.537   0.892   3.250
   95SAPC   H6Y 9319   3.639   1.039   3.230
   95SAPC   C37 9320   3.722   0.883   3.360
   95SAPC   H7X 9321   3.826   0.915   3.342
   95SAPC   H7Y 9322   3.731   0.772   3.351
   95SAPC   C38 9323   3.670   0.938   3.492
   95SAPC   H8X 9324   3.560   0.940   3.483
   95SAPC   H8Y 9325   3.701   1.044   3.499
   95SAPC   C39 9326   3.699   0.850   3.612
   95SAPC   H9X 9327   3.809   0.847   3.625
   95SAPC   H9Y 9328   3.667   0.753   3.569
   95SAPC  C310 9329   3.630   0.890   3.743
   95SAPC  H10X 9330   3.535   0.836   3.763
   95SAPC  H10Y 9331   3.606   0.998   3.739
   95SAPC  C311 9332   3.729   0.865   3.854
   95SAPC  H11X 9333   3.813   0.935   3.833
   95SAPC  H11Y 9334   3.760   0.759   3.840
   95SAPC  C312 9335   3.677   0.907   3.992
   95SAPC  H12X 9336   3.591   0.840   4.014
   95SAPC  H12Y 9337   3.640   1.011   3.978
   95SAPC  C313 9338   3.794   0.902   4.091
   95SAPC  H13X 9339   3.871   0.822   4.083
   95SAPC  H13Y 9340   3.753   0.874   4.190
   95SAPC  C314 9341   3.875   1.028   4.127
   95SAPC  H14X 9342   3.795   1.102   4.150
   95SAPC  H14Y 9343   3.933   1.058   4.037
   95SAPC  C315 9344   3.971   0.998   4.244
   95SAPC  H15X 9345   4.036   0.916   4.205
   95SAPC  H15Y 9346   3.901   0.948   4.314
   95SAPC  C316 9347   4.061   1.110   4.304
   95SAPC  H16X 9348   4.110   1.055   4.387
   95SAPC  H16Y 9349   4.004   1.197   4.343
   95SAPC  C317 9350   4.153   1.157   4.194
   95SAPC  H17X 9351   4.088   1.222   4.132
   95SAPC  H17Y 9352   4.198   1.069   4.143
   95SAPC  C318 9353   4.268   1.250   4.243
   95SAPC  H18X 9354   4.275   1.290   4.347
   95SAPC  H18Y 9355   4.267   1.336   4.173
   95SAPC  H18Z 9356   4.362   1.195   4.222
   96SAPC     N 9357   3.400   2.503   1.703
   96SAPC   C12 9358   3.394   2.599   1.823
   96SAPC  H12A 9359   3.296   2.644   1.830
   96SAPC  H12B 9360   3.466   2.678   1.809
   96SAPC   C13 9361   3.547   2.469   1.682
   96SAPC  H13A 9362   3.556   2.390   1.608
   96SAPC  H13B 9363   3.590   2.558   1.638
   96SAPC  H13C 9364   3.589   2.430   1.773
   96SAPC   C14 9365   3.323   2.373   1.731
   96SAPC  H14A 9366   3.331   2.304   1.648
   96SAPC  H14B 9367   3.363   2.325   1.820
   96SAPC  H14C 9368   3.220   2.399   1.750
   96SAPC   C15 9369   3.341   2.560   1.583
   96SAPC  H15A 9370   3.405   2.643   1.557
   96SAPC  H15B 9371   3.329   2.488   1.503
   96SAPC  H15C 9372   3.240   2.595   1.596
   96SAPC   C11 9373   3.421   2.534   1.967
   96SAPC  H11A 9374   3.431   2.608   2.048
   96SAPC  H11B 9375   3.526   2.500   1.954
   96SAPC     P 9376   3.173   2.478   2.028
   96SAPC   O13 9377   3.126   2.558   1.911
   96SAPC   O14 9378   3.100   2.362   2.075
   96SAPC   O12 9379   3.327   2.426   2.002
   96SAPC   O11 9380   3.176   2.577   2.148
   96SAPC    C1 9381   3.253   2.555   2.264
   96SAPC    HA 9382   3.202   2.471   2.318
   96SAPC    HB 9383   3.358   2.531   2.237
   96SAPC    C2 9384   3.243   2.676   2.359
   96SAPC    HS 9385   3.298   2.652   2.453
   96SAPC   O21 9386   3.102   2.703   2.383
   96SAPC   C21 9387   3.036   2.625   2.466
   96SAPC   O22 9388   3.086   2.531   2.524
   96SAPC   C22 9389   2.899   2.683   2.492
   96SAPC   H2R 9390   2.896   2.779   2.435
   96SAPC   H2S 9391   2.827   2.615   2.442
   96SAPC    C3 9392   3.296   2.801   2.307
   96SAPC    HX 9393   3.240   2.818   2.212
   96SAPC    HY 9394   3.400   2.788   2.272
   96SAPC   O31 9395   3.287   2.909   2.405
   96SAPC   C31 9396   3.190   3.004   2.381
   96SAPC   O32 9397   3.111   2.998   2.290
   96SAPC   C32 9398   3.192   3.110   2.488
   96SAPC   H2X 9399   3.089   3.138   2.518
   96SAPC   H2Y 9400   3.236   3.200   2.438
   96SAPC   C23 9401   2.867   2.719   2.638
   96SAPC   H3R 9402   2.945   2.780   2.688
   96SAPC   H3S 9403   2.857   2.625   2.697
   96SAPC   C24 9404   2.742   2.798   2.641
   96SAPC   H4R 9405   2.693   2.806   2.741
   96SAPC   H4S 9406   2.669   2.736   2.586
   96SAPC   C25 9407   2.747   2.940   2.579
   96SAPC   H5R 9408   2.709   2.953   2.477
   96SAPC   C26 9409   2.783   3.056   2.642
   96SAPC   H6R 9410   2.801   3.147   2.584
   96SAPC   C27 9411   2.834   3.078   2.781
   96SAPC   H7R 9412   2.939   3.114   2.774
   96SAPC   H7S 9413   2.839   2.982   2.836
   96SAPC   C28 9414   2.772   3.188   2.856
   96SAPC   H8R 9415   2.691   3.249   2.814
   96SAPC   C29 9416   2.810   3.223   2.983
   96SAPC   H9R 9417   2.754   3.304   3.033
   96SAPC  C210 9418   2.919   3.152   3.067
   96SAPC  H10R 9419   3.006   3.221   3.077
   96SAPC  H10S 9420   2.965   3.063   3.019
   96SAPC  C211 9421   2.868   3.130   3.208
   96SAPC  H11R 9422   2.761   3.109   3.215
   96SAPC  C212 9423   2.938   3.159   3.321
   96SAPC  H12R 9424   2.895   3.144   3.421
   96SAPC  C213 9425   3.080   3.214   3.329
   96SAPC  H13R 9426   3.136   3.174   3.242
   96SAPC  H13S 9427   3.124   3.171   3.422
   96SAPC  C214 9428   3.091   3.363   3.322
   96SAPC  H14R 9429   3.120   3.408   3.226
   96SAPC  C215 9430   3.091   3.455   3.429
   96SAPC  H15R 9431   3.095   3.561   3.401
   96SAPC  C216 9432   3.074   3.415   3.573
   96SAPC  H16R 9433   3.033   3.312   3.584
   96SAPC  H16S 9434   3.014   3.479   3.639
   96SAPC  C217 9435   3.218   3.389   3.625
   96SAPC  H17R 9436   3.272   3.485   3.608
   96SAPC  H17S 9437   3.274   3.322   3.557
   96SAPC  C218 9438   3.215   3.342   3.773
   96SAPC  H18R 9439   3.161   3.245   3.769
   96SAPC  H18S 9440   3.157   3.417   3.831
   96SAPC  C219 9441   3.354   3.326   3.844
   96SAPC  H19R 9442   3.421   3.415   3.849
   96SAPC  H19S 9443   3.420   3.246   3.802
   96SAPC  C220 9444   3.336   3.283   3.990
   96SAPC  H20R 9445   3.295   3.369   4.047
   96SAPC  H20S 9446   3.432   3.261   4.040
   96SAPC  H20T 9447   3.286   3.185   4.003
   96SAPC   C33 9448   3.287   3.081   2.609
   96SAPC   H3X 9449   3.383   3.042   2.570
   96SAPC   H3Y 9450   3.247   2.992   2.662
   96SAPC   C34 9451   3.308   3.204   2.700
   96SAPC   H4X 9452   3.367   3.272   2.635
   96SAPC   H4Y 9453   3.365   3.179   2.792
   96SAPC   C35 9454   3.178   3.270   2.744
   96SAPC   H5X 9455   3.119   3.209   2.817
   96SAPC   H5Y 9456   3.116   3.295   2.655
   96SAPC   C36 9457   3.196   3.400   2.823
   96SAPC   H6X 9458   3.094   3.437   2.847
   96SAPC   H6Y 9459   3.247   3.478   2.762
   96SAPC   C37 9460   3.275   3.389   2.958
   96SAPC   H7X 9461   3.378   3.357   2.930
   96SAPC   H7Y 9462   3.232   3.310   3.024
   96SAPC   C38 9463   3.275   3.522   3.027
   96SAPC   H8X 9464   3.174   3.556   3.058
   96SAPC   H8Y 9465   3.320   3.593   2.954
   96SAPC   C39 9466   3.371   3.532   3.145
   96SAPC   H9X 9467   3.468   3.484   3.120
   96SAPC   H9Y 9468   3.328   3.474   3.229
   96SAPC  C310 9469   3.411   3.678   3.187
   96SAPC  H10X 9470   3.338   3.751   3.145
   96SAPC  H10Y 9471   3.505   3.707   3.136
   96SAPC  C311 9472   3.420   3.721   3.332
   96SAPC  H11X 9473   3.326   3.687   3.380
   96SAPC  H11Y 9474   3.424   3.832   3.337
   96SAPC  C312 9475   3.530   3.659   3.427
   96SAPC  H12X 9476   3.629   3.685   3.383
   96SAPC  H12Y 9477   3.523   3.548   3.420
   96SAPC  C313 9478   3.529   3.713   3.574
   96SAPC  H13X 9479   3.434   3.686   3.624
   96SAPC  H13Y 9480   3.532   3.824   3.569
   96SAPC  C314 9481   3.637   3.654   3.664
   96SAPC  H14X 9482   3.736   3.652   3.615
   96SAPC  H14Y 9483   3.618   3.545   3.674
   96SAPC  C315 9484   3.636   3.702   3.808
   96SAPC  H15X 9485   3.620   3.620   3.881
   96SAPC  H15Y 9486   3.553   3.775   3.817
   96SAPC  C316 9487   3.763   3.782   3.852
   96SAPC  H16X 9488   3.724   3.831   3.944
   96SAPC  H16Y 9489   3.781   3.875   3.795
   96SAPC  C317 9490   3.889   3.694   3.854
   96SAPC  H17X 9491   3.892   3.627   3.766
   96SAPC  H17Y 9492   3.877   3.616   3.932
   96SAPC  C318 9493   4.013   3.777   3.884
   96SAPC  H18X 9494   4.034   3.836   3.792
   96SAPC  H18Y 9495   4.101   3.712   3.900
   96SAPC  H18Z 9496   3.996   3.849   3.967
   97SAPC     N 9497   2.310   2.008   1.951
   97SAPC   C12 9498   2.333   1.861   1.962
   97SAPC  H12A 9499   2.391   1.836   2.050
   97SAPC  H12B 9500   2.384   1.822   1.875
   97SAPC   C13 9501   2.206   2.035   1.845
   97SAPC  H13A 9502   2.247   2.027   1.745
   97SAPC  H13B 9503   2.110   1.987   1.848
   97SAPC  H13C 9504   2.179   2.140   1.852
   97SAPC   C14 9505   2.270   2.073   2.084
   97SAPC  H14A 9506   2.179   2.031   2.124
   97SAPC  H14B 9507   2.345   2.065   2.162
   97SAPC  H14C 9508   2.252   2.179   2.078
   97SAPC   C15 9509   2.438   2.075   1.915
   97SAPC  H15A 9510   2.429   2.181   1.934
   97SAPC  H15B 9511   2.521   2.041   1.974
   97SAPC  H15C 9512   2.457   2.069   1.809
   97SAPC   C11 9513   2.205   1.778   1.987
   97SAPC  H11A 9514   2.146   1.767   1.894
   97SAPC  H11B 9515   2.129   1.818   2.058
   97SAPC     P 9516   2.233   1.517   1.978
   97SAPC   O13 9517   2.148   1.524   1.858
   97SAPC   O14 9518   2.363   1.446   1.954
   97SAPC   O12 9519   2.251   1.663   2.049
   97SAPC   O11 9520   2.157   1.425   2.087
   97SAPC    C1 9521   2.211   1.432   2.217
   97SAPC    HA 9522   2.173   1.341   2.268
   97SAPC    HB 9523   2.322   1.429   2.217
   97SAPC    C2 9524   2.155   1.551   2.310
   97SAPC    HS 9525   2.198   1.649   2.281
   97SAPC   O21 9526   2.181   1.517   2.447
   97SAPC   C21 9527   2.307   1.536   2.485
   97SAPC   O22 9528   2.397   1.590   2.414
   97SAPC   C22 9529   2.334   1.466   2.610
   97SAPC   H2R 9530   2.363   1.362   2.581
   97SAPC   H2S 9531   2.427   1.501   2.660
   97SAPC    C3 9532   2.009   1.564   2.281
   97SAPC    HX 9533   1.965   1.462   2.276
   97SAPC    HY 9534   1.990   1.610   2.182
   97SAPC   O31 9535   1.957   1.650   2.381
   97SAPC   C31 9536   1.842   1.610   2.434
   97SAPC   O32 9537   1.777   1.515   2.396
   97SAPC   C32 9538   1.805   1.714   2.544
   97SAPC   H2X 9539   1.757   1.799   2.491
   97SAPC   H2Y 9540   1.897   1.757   2.589
   97SAPC   C23 9541   2.216   1.435   2.703
   97SAPC   H3R 9542   2.150   1.362   2.651
   97SAPC   H3S 9543   2.154   1.526   2.711
   97SAPC   C24 9544   2.261   1.390   2.837
   97SAPC   H4R 9545   2.342   1.317   2.816
   97SAPC   H4S 9546   2.181   1.327   2.880
   97SAPC   C25 9547   2.310   1.498   2.936
   97SAPC   H5R 9548   2.312   1.603   2.902
   97SAPC   C26 9549   2.304   1.485   3.069
   97SAPC   H6R 9550   2.301   1.577   3.128
   97SAPC   C27 9551   2.277   1.358   3.148
   97SAPC   H7R 9552   2.223   1.273   3.099
   97SAPC   H7S 9553   2.204   1.380   3.229
   97SAPC   C28 9554   2.412   1.312   3.210
   97SAPC   H8R 9555   2.474   1.259   3.137
   97SAPC   C29 9556   2.450   1.319   3.338
   97SAPC   H9R 9557   2.556   1.298   3.359
   97SAPC  C210 9558   2.364   1.371   3.457
   97SAPC  H10R 9559   2.302   1.459   3.427
   97SAPC  H10S 9560   2.430   1.401   3.541
   97SAPC  C211 9561   2.273   1.258   3.506
   97SAPC  H11R 9562   2.202   1.225   3.429
   97SAPC  C212 9563   2.265   1.199   3.636
   97SAPC  H12R 9564   2.194   1.120   3.665
   97SAPC  C213 9565   2.352   1.247   3.749
   97SAPC  H13R 9566   2.307   1.252   3.850
   97SAPC  H13S 9567   2.382   1.353   3.734
   97SAPC  C214 9568   2.481   1.171   3.753
   97SAPC  H14R 9569   2.517   1.142   3.653
   97SAPC  C215 9570   2.533   1.118   3.866
   97SAPC  H15R 9571   2.632   1.070   3.866
   97SAPC  C216 9572   2.470   1.139   4.012
   97SAPC  H16R 9573   2.414   1.045   4.032
   97SAPC  H16S 9574   2.393   1.219   4.021
   97SAPC  C217 9575   2.578   1.143   4.126
   97SAPC  H17R 9576   2.509   1.165   4.210
   97SAPC  H17S 9577   2.649   1.228   4.128
   97SAPC  C218 9578   2.641   1.000   4.135
   97SAPC  H18R 9579   2.709   0.975   4.050
   97SAPC  H18S 9580   2.560   0.926   4.118
   97SAPC  C219 9581   2.736   0.974   4.250
   97SAPC  H19R 9582   2.830   1.032   4.248
   97SAPC  H19S 9583   2.777   0.871   4.246
   97SAPC  C220 9584   2.672   0.990   4.388
   97SAPC  H20R 9585   2.757   1.000   4.459
   97SAPC  H20S 9586   2.607   0.903   4.412
   97SAPC  H20T 9587   2.621   1.089   4.390
   97SAPC   C33 9588   1.708   1.661   2.646
   97SAPC   H3X 9589   1.635   1.588   2.606
   97SAPC   H3Y 9590   1.646   1.749   2.675
   97SAPC   C34 9591   1.771   1.629   2.788
   97SAPC   H4X 9592   1.690   1.656   2.859
   97SAPC   H4Y 9593   1.860   1.695   2.794
   97SAPC   C35 9594   1.816   1.488   2.814
   97SAPC   H5X 9595   1.875   1.441   2.733
   97SAPC   H5Y 9596   1.719   1.436   2.829
   97SAPC   C36 9597   1.906   1.477   2.944
   97SAPC   H6X 9598   1.999   1.529   2.912
   97SAPC   H6Y 9599   1.923   1.370   2.968
   97SAPC   C37 9600   1.848   1.553   3.072
   97SAPC   H7X 9601   1.740   1.527   3.061
   97SAPC   H7Y 9602   1.868   1.662   3.064
   97SAPC   C38 9603   1.899   1.489   3.200
   97SAPC   H8X 9604   2.001   1.446   3.211
   97SAPC   H8Y 9605   1.828   1.407   3.222
   97SAPC   C39 9606   1.902   1.571   3.325
   97SAPC   H9X 9607   1.804   1.616   3.354
   97SAPC   H9Y 9608   1.965   1.661   3.312
   97SAPC  C310 9609   1.956   1.482   3.436
   97SAPC  H10X 9610   2.066   1.474   3.425
   97SAPC  H10Y 9611   1.912   1.381   3.429
   97SAPC  C311 9612   1.946   1.543   3.579
   97SAPC  H11X 9613   1.844   1.575   3.609
   97SAPC  H11Y 9614   2.002   1.639   3.570
   97SAPC  C312 9615   2.018   1.467   3.692
   97SAPC  H12X 9616   2.127   1.461   3.669
   97SAPC  H12Y 9617   1.978   1.364   3.706
   97SAPC  C313 9618   2.022   1.545   3.824
   97SAPC  H13X 9619   1.922   1.578   3.859
   97SAPC  H13Y 9620   2.086   1.636   3.822
   97SAPC  C314 9621   2.078   1.461   3.942
   97SAPC  H14X 9622   2.138   1.374   3.908
   97SAPC  H14Y 9623   2.001   1.398   3.993
   97SAPC  C315 9624   2.160   1.538   4.049
   97SAPC  H15X 9625   2.214   1.615   3.990
   97SAPC  H15Y 9626   2.230   1.470   4.102
   97SAPC  C316 9627   2.065   1.613   4.147
   97SAPC  H16X 9628   1.991   1.666   4.084
   97SAPC  H16Y 9629   2.115   1.682   4.218
   97SAPC  C317 9630   1.984   1.518   4.241
   97SAPC  H17X 9631   2.057   1.445   4.284
   97SAPC  H17Y 9632   1.911   1.468   4.174
   97SAPC  C318 9633   1.914   1.595   4.357
   97SAPC  H18X 9634   1.873   1.514   4.421
   97SAPC  H18Y 9635   1.835   1.661   4.315
   97SAPC  H18Z 9636   1.980   1.658   4.421
   98SAPC     N 9637   6.695   2.995   1.826
   98SAPC   C12 9638   6.688   2.841   1.804
   98SAPC  H12A 9639   6.782   2.801   1.840
   98SAPC  H12B 9640   6.684   2.821   1.698
   98SAPC   C13 9641   6.705   3.030   1.967
   98SAPC  H13A 9642   6.794   2.984   2.009
   98SAPC  H13B 9643   6.722   3.134   1.988
   98SAPC  H13C 9644   6.621   2.986   2.019
   98SAPC   C14 9645   6.815   3.048   1.752
   98SAPC  H14A 9646   6.910   3.028   1.800
   98SAPC  H14B 9647   6.820   2.998   1.656
   98SAPC  H14C 9648   6.805   3.154   1.736
   98SAPC   C15 9649   6.587   3.067   1.764
   98SAPC  H15A 9650   6.497   3.035   1.815
   98SAPC  H15B 9651   6.599   3.174   1.755
   98SAPC  H15C 9652   6.576   3.035   1.661
   98SAPC   C11 9653   6.579   2.763   1.873
   98SAPC  H11A 9654   6.583   2.659   1.834
   98SAPC  H11B 9655   6.479   2.808   1.854
   98SAPC     P 9656   6.706   2.662   2.081
   98SAPC   O13 9657   6.637   2.533   2.105
   98SAPC   O14 9658   6.830   2.658   2.002
   98SAPC   O12 9659   6.602   2.768   2.014
   98SAPC   O11 9660   6.736   2.737   2.220
   98SAPC    C1 9661   6.639   2.719   2.331
   98SAPC    HA 9662   6.584   2.623   2.330
   98SAPC    HB 9663   6.695   2.711   2.426
   98SAPC    C2 9664   6.537   2.833   2.338
   98SAPC    HS 9665   6.488   2.833   2.238
   98SAPC   O21 9666   6.601   2.964   2.370
   98SAPC   C21 9667   6.555   3.070   2.304
   98SAPC   O22 9668   6.490   3.066   2.206
   98SAPC   C22 9669   6.604   3.195   2.380
   98SAPC   H2R 9670   6.694   3.183   2.445
   98SAPC   H2S 9671   6.625   3.269   2.299
   98SAPC    C3 9672   6.429   2.803   2.445
   98SAPC    HX 9673   6.482   2.795   2.542
   98SAPC    HY 9674   6.390   2.700   2.431
   98SAPC   O31 9675   6.322   2.902   2.445
   98SAPC   C31 9676   6.212   2.881   2.367
   98SAPC   O32 9677   6.195   2.786   2.294
   98SAPC   C32 9678   6.116   2.998   2.389
   98SAPC   H2X 9679   6.084   3.037   2.291
   98SAPC   H2Y 9680   6.157   3.084   2.447
   98SAPC   C23 9681   6.495   3.267   2.464
   98SAPC   H3R 9682   6.408   3.283   2.396
   98SAPC   H3S 9683   6.526   3.373   2.466
   98SAPC   C24 9684   6.455   3.201   2.594
   98SAPC   H4R 9685   6.546   3.190   2.658
   98SAPC   H4S 9686   6.423   3.094   2.592
   98SAPC   C25 9687   6.350   3.279   2.676
   98SAPC   H5R 9688   6.258   3.308   2.623
   98SAPC   C26 9689   6.370   3.321   2.799
   98SAPC   H6R 9690   6.295   3.382   2.853
   98SAPC   C27 9691   6.488   3.296   2.893
   98SAPC   H7R 9692   6.544   3.203   2.868
   98SAPC   H7S 9693   6.432   3.290   2.989
   98SAPC   C28 9694   6.570   3.422   2.885
   98SAPC   H8R 9695   6.628   3.434   2.792
   98SAPC   C29 9696   6.579   3.512   2.985
   98SAPC   H9R 9697   6.648   3.597   2.974
   98SAPC  C210 9698   6.509   3.518   3.118
   98SAPC  H10R 9699   6.581   3.555   3.194
   98SAPC  H10S 9700   6.479   3.421   3.161
   98SAPC  C211 9701   6.388   3.613   3.128
   98SAPC  H11R 9702   6.385   3.692   3.052
   98SAPC  C212 9703   6.297   3.619   3.219
   98SAPC  H12R 9704   6.214   3.691   3.215
   98SAPC  C213 9705   6.309   3.524   3.341
   98SAPC  H13R 9706   6.411   3.536   3.384
   98SAPC  H13S 9707   6.308   3.417   3.311
   98SAPC  C214 9708   6.223   3.563   3.453
   98SAPC  H14R 9709   6.246   3.667   3.483
   98SAPC  C215 9710   6.141   3.484   3.531
   98SAPC  H15R 9711   6.067   3.526   3.601
   98SAPC  C216 9712   6.115   3.338   3.501
   98SAPC  H16R 9713   6.108   3.289   3.601
   98SAPC  H16S 9714   6.201   3.294   3.446
   98SAPC  C217 9715   5.981   3.316   3.431
   98SAPC  H17R 9716   5.893   3.359   3.483
   98SAPC  H17S 9717   5.968   3.206   3.429
   98SAPC  C218 9718   5.991   3.366   3.287
   98SAPC  H18R 9719   6.084   3.324   3.243
   98SAPC  H18S 9720   6.014   3.475   3.279
   98SAPC  C219 9721   5.856   3.325   3.218
   98SAPC  H19R 9722   5.763   3.369   3.259
   98SAPC  H19S 9723   5.859   3.214   3.228
   98SAPC  C220 9724   5.864   3.377   3.077
   98SAPC  H20R 9725   5.959   3.348   3.028
   98SAPC  H20S 9726   5.854   3.487   3.064
   98SAPC  H20T 9727   5.784   3.320   3.024
   98SAPC   C33 9728   5.985   2.940   2.457
   98SAPC   H3X 9729   6.004   2.891   2.555
   98SAPC   H3Y 9730   5.934   2.865   2.393
   98SAPC   C34 9731   5.878   3.055   2.486
   98SAPC   H4X 9732   5.839   3.097   2.390
   98SAPC   H4Y 9733   5.928   3.139   2.539
   98SAPC   C35 9734   5.758   3.001   2.573
   98SAPC   H5X 9735   5.774   3.012   2.682
   98SAPC   H5Y 9736   5.727   2.897   2.551
   98SAPC   C36 9737   5.625   3.074   2.535
   98SAPC   H6X 9738   5.613   3.085   2.425
   98SAPC   H6Y 9739   5.621   3.170   2.591
   98SAPC   C37 9740   5.503   2.987   2.596
   98SAPC   H7X 9741   5.480   2.905   2.524
   98SAPC   H7Y 9742   5.409   3.047   2.600
   98SAPC   C38 9743   5.515   2.953   2.744
   98SAPC   H8X 9744   5.591   2.874   2.762
   98SAPC   H8Y 9745   5.424   2.899   2.776
   98SAPC   C39 9746   5.527   3.070   2.845
   98SAPC   H9X 9747   5.525   3.167   2.789
   98SAPC   H9Y 9748   5.627   3.071   2.894
   98SAPC  C310 9749   5.412   3.069   2.950
   98SAPC  H10X 9750   5.315   3.045   2.903
   98SAPC  H10Y 9751   5.408   3.179   2.962
   98SAPC  C311 9752   5.428   2.992   3.086
   98SAPC  H11X 9753   5.537   2.981   3.104
   98SAPC  H11Y 9754   5.380   2.892   3.077
   98SAPC  C312 9755   5.369   3.069   3.211
   98SAPC  H12X 9756   5.259   3.076   3.197
   98SAPC  H12Y 9757   5.399   3.176   3.206
   98SAPC  C313 9758   5.406   3.009   3.346
   98SAPC  H13X 9759   5.516   2.999   3.350
   98SAPC  H13Y 9760   5.364   2.907   3.365
   98SAPC  C314 9761   5.359   3.093   3.467
   98SAPC  H14X 9762   5.259   3.063   3.503
   98SAPC  H14Y 9763   5.367   3.200   3.437
   98SAPC  C315 9764   5.440   3.074   3.591
   98SAPC  H15X 9765   5.546   3.101   3.575
   98SAPC  H15Y 9766   5.458   2.967   3.613
   98SAPC  C316 9767   5.390   3.150   3.715
   98SAPC  H16X 9768   5.466   3.143   3.796
   98SAPC  H16Y 9769   5.296   3.102   3.751
   98SAPC  C317 9770   5.362   3.303   3.688
   98SAPC  H17X 9771   5.290   3.319   3.605
   98SAPC  H17Y 9772   5.454   3.341   3.641
   98SAPC  C318 9773   5.329   3.384   3.816
   98SAPC  H18X 9774   5.231   3.350   3.857
   98SAPC  H18Y 9775   5.309   3.489   3.787
   98SAPC  H18Z 9776   5.414   3.372   3.885
   99SAPC     N 9777   3.903   5.980   1.805
   99SAPC   C12 9778   3.975   6.040   1.922
   99SAPC  H12A 9779   4.051   5.967   1.946
   99SAPC  H12B 9780   3.912   6.042   2.010
   99SAPC   C13 9781   3.968   6.014   1.674
   99SAPC  H13A 9782   3.920   5.956   1.597
   99SAPC  H13B 9783   3.962   6.120   1.651
   99SAPC  H13C 9784   4.074   5.994   1.680
   99SAPC   C14 9785   3.897   5.833   1.822
   99SAPC  H14A 9786   3.873   5.814   1.926
   99SAPC  H14B 9787   3.813   5.800   1.763
   99SAPC  H14C 9788   3.994   5.790   1.801
   99SAPC   C15 9789   3.757   6.027   1.798
   99SAPC  H15A 9790   3.705   5.996   1.888
   99SAPC  H15B 9791   3.764   6.135   1.806
   99SAPC  H15C 9792   3.706   5.997   1.708
   99SAPC   C11 9793   4.034   6.186   1.906
   99SAPC  H11A 9794   4.091   6.183   1.811
   99SAPC  H11B 9795   4.092   6.214   1.997
   99SAPC     P 9796   3.873   6.354   2.022
   99SAPC   O13 9797   3.976   6.452   2.068
   99SAPC   O14 9798   3.734   6.393   1.994
   99SAPC   O12 9799   3.920   6.278   1.887
   99SAPC   O11 9800   3.864   6.228   2.113
   99SAPC    C1 9801   3.744   6.171   2.164
   99SAPC    HA 9802   3.668   6.170   2.083
   99SAPC    HB 9803   3.772   6.067   2.190
   99SAPC    C2 9804   3.687   6.237   2.297
   99SAPC    HS 9805   3.662   6.343   2.277
   99SAPC   O21 9806   3.789   6.223   2.399
   99SAPC   C21 9807   3.787   6.308   2.496
   99SAPC   O22 9808   3.718   6.410   2.501
   99SAPC   C22 9809   3.872   6.256   2.601
   99SAPC   H2R 9810   3.866   6.145   2.604
   99SAPC   H2S 9811   3.976   6.287   2.579
   99SAPC    C3 9812   3.547   6.175   2.346
   99SAPC    HX 9813   3.574   6.070   2.371
   99SAPC    HY 9814   3.479   6.170   2.257
   99SAPC   O31 9815   3.483   6.238   2.453
   99SAPC   C31 9816   3.423   6.354   2.419
   99SAPC   O32 9817   3.405   6.392   2.298
   99SAPC   C32 9818   3.383   6.432   2.545
   99SAPC   H2X 9819   3.273   6.450   2.544
   99SAPC   H2Y 9820   3.423   6.535   2.536
   99SAPC   C23 9821   3.840   6.311   2.734
   99SAPC   H3R 9822   3.743   6.276   2.776
   99SAPC   H3S 9823   3.834   6.421   2.726
   99SAPC   C24 9824   3.950   6.278   2.843
   99SAPC   H4R 9825   3.909   6.328   2.934
   99SAPC   H4S 9826   4.047   6.325   2.818
   99SAPC   C25 9827   3.976   6.136   2.860
   99SAPC   H5R 9828   4.043   6.093   2.784
   99SAPC   C26 9829   3.926   6.055   2.952
   99SAPC   H6R 9830   3.957   5.950   2.942
   99SAPC   C27 9831   3.844   6.099   3.070
   99SAPC   H7R 9832   3.761   6.159   3.027
   99SAPC   H7S 9833   3.903   6.176   3.124
   99SAPC   C28 9834   3.784   5.992   3.157
   99SAPC   H8R 9835   3.740   5.910   3.098
   99SAPC   C29 9836   3.797   5.980   3.289
   99SAPC   H9R 9837   3.751   5.888   3.328
   99SAPC  C210 9838   3.873   6.065   3.393
   99SAPC  H10R 9839   3.977   6.083   3.356
   99SAPC  H10S 9840   3.877   6.001   3.483
   99SAPC  C211 9841   3.797   6.193   3.420
   99SAPC  H11R 9842   3.729   6.238   3.346
   99SAPC  C212 9843   3.824   6.266   3.532
   99SAPC  H12R 9844   3.781   6.367   3.535
   99SAPC  C213 9845   3.906   6.235   3.652
   99SAPC  H13R 9846   3.943   6.337   3.676
   99SAPC  H13S 9847   3.998   6.184   3.618
   99SAPC  C214 9848   3.835   6.177   3.773
   99SAPC  H14R 9849   3.725   6.171   3.767
   99SAPC  C215 9850   3.898   6.112   3.871
   99SAPC  H15R 9851   3.841   6.062   3.951
   99SAPC  C216 9852   4.044   6.111   3.881
   99SAPC  H16R 9853   4.070   6.110   3.989
   99SAPC  H16S 9854   4.085   6.204   3.837
   99SAPC  C217 9855   4.108   5.994   3.815
   99SAPC  H17R 9856   4.216   6.010   3.799
   99SAPC  H17S 9857   4.065   5.968   3.716
   99SAPC  C218 9858   4.082   5.861   3.902
   99SAPC  H18R 9859   3.973   5.844   3.902
   99SAPC  H18S 9860   4.112   5.894   4.005
   99SAPC  C219 9861   4.162   5.743   3.860
   99SAPC  H19R 9862   4.177   5.665   3.938
   99SAPC  H19S 9863   4.261   5.789   3.838
   99SAPC  C220 9864   4.107   5.677   3.738
   99SAPC  H20R 9865   4.107   5.740   3.647
   99SAPC  H20S 9866   4.004   5.639   3.758
   99SAPC  H20T 9867   4.176   5.591   3.722
   99SAPC   C33 9868   3.421   6.363   2.683
   99SAPC   H3X 9869   3.524   6.323   2.679
   99SAPC   H3Y 9870   3.362   6.271   2.700
   99SAPC   C34 9871   3.400   6.440   2.806
   99SAPC   H4X 9872   3.292   6.462   2.817
   99SAPC   H4Y 9873   3.462   6.532   2.795
   99SAPC   C35 9874   3.441   6.373   2.940
   99SAPC   H5X 9875   3.552   6.361   2.944
   99SAPC   H5Y 9876   3.403   6.268   2.938
   99SAPC   C36 9877   3.397   6.436   3.072
   99SAPC   H6X 9878   3.286   6.439   3.075
   99SAPC   H6Y 9879   3.431   6.541   3.087
   99SAPC   C37 9880   3.452   6.355   3.195
   99SAPC   H7X 9881   3.562   6.347   3.199
   99SAPC   H7Y 9882   3.402   6.257   3.178
   99SAPC   C38 9883   3.401   6.425   3.325
   99SAPC   H8X 9884   3.295   6.449   3.306
   99SAPC   H8Y 9885   3.463   6.517   3.330
   99SAPC   C39 9886   3.417   6.345   3.454
   99SAPC   H9X 9887   3.524   6.339   3.481
   99SAPC   H9Y 9888   3.394   6.238   3.433
   99SAPC  C310 9889   3.326   6.403   3.566
   99SAPC  H10X 9890   3.223   6.363   3.553
   99SAPC  H10Y 9891   3.326   6.514   3.565
   99SAPC  C311 9892   3.364   6.349   3.706
   99SAPC  H11X 9893   3.473   6.360   3.725
   99SAPC  H11Y 9894   3.357   6.239   3.695
   99SAPC  C312 9895   3.271   6.414   3.806
   99SAPC  H12X 9896   3.166   6.403   3.773
   99SAPC  H12Y 9897   3.284   6.524   3.813
   99SAPC  C313 9898   3.279   6.351   3.946
   99SAPC  H13X 9899   3.379   6.322   3.985
   99SAPC  H13Y 9900   3.238   6.249   3.931
   99SAPC  C314 9901   3.190   6.420   4.055
   99SAPC  H14X 9902   3.091   6.445   4.011
   99SAPC  H14Y 9903   3.242   6.511   4.091
   99SAPC  C315 9904   3.159   6.331   4.175
   99SAPC  H15X 9905   3.246   6.340   4.243
   99SAPC  H15Y 9906   3.166   6.228   4.135
   99SAPC  C316 9907   3.035   6.359   4.255
   99SAPC  H16X 9908   2.943   6.349   4.193
   99SAPC  H16Y 9909   3.037   6.459   4.303
   99SAPC  C317 9910   3.017   6.251   4.359
   99SAPC  H17X 9911   3.018   6.153   4.307
   99SAPC  H17Y 9912   2.910   6.256   4.391
   99SAPC  C318 9913   3.115   6.234   4.478
   99SAPC  H18X 9914   3.216   6.235   4.433
   99SAPC  H18Y 9915   3.096   6.141   4.535
   99SAPC  H18Z 9916   3.094   6.322   4.543
  100SAPC     N 9917   1.980   6.374   1.646
  100SAPC   C12 9918   1.852   6.439   1.601
  100SAPC  H12A 9919   1.782   6.374   1.550
  100SAPC  H12B 9920   1.880   6.515   1.530
  100SAPC   C13 9921   2.052   6.465   1.741
  100SAPC  H13A 9922   1.983   6.479   1.823
  100SAPC  H13B 9923   2.138   6.419   1.786
  100SAPC  H13C 9924   2.070   6.562   1.697
  100SAPC   C14 9925   1.937   6.244   1.708
  100SAPC  H14A 9926   1.915   6.176   1.627
  100SAPC  H14B 9927   2.022   6.200   1.758
  100SAPC  H14C 9928   1.857   6.253   1.780
  100SAPC   C15 9929   2.078   6.353   1.533
  100SAPC  H15A 9930   2.172   6.318   1.572
  100SAPC  H15B 9931   2.031   6.275   1.474
  100SAPC  H15C 9932   2.104   6.444   1.481
  100SAPC   C11 9933   1.765   6.517   1.706
  100SAPC  H11A 9934   1.667   6.555   1.669
  100SAPC  H11B 9935   1.816   6.610   1.740
  100SAPC     P 9936   1.737   6.468   1.968
  100SAPC   O13 9937   1.681   6.356   2.051
  100SAPC   O14 9938   1.870   6.527   1.993
  100SAPC   O12 9939   1.731   6.429   1.818
  100SAPC   O11 9940   1.627   6.586   1.974
  100SAPC    C1 9941   1.655   6.708   2.035
  100SAPC    HA 9942   1.756   6.749   2.019
  100SAPC    HB 9943   1.578   6.773   1.987
  100SAPC    C2 9944   1.623   6.705   2.189
  100SAPC    HS 9945   1.631   6.812   2.219
  100SAPC   O21 9946   1.727   6.623   2.244
  100SAPC   C21 9947   1.847   6.681   2.268
  100SAPC   O22 9948   1.881   6.796   2.247
  100SAPC   C22 9949   1.931   6.575   2.344
  100SAPC   H2R 9950   1.947   6.487   2.279
  100SAPC   H2S 9951   2.027   6.621   2.375
  100SAPC    C3 9952   1.479   6.649   2.219
  100SAPC    HX 9953   1.470   6.540   2.202
  100SAPC    HY 9954   1.417   6.698   2.141
  100SAPC   O31 9955   1.414   6.699   2.344
  100SAPC   C31 9956   1.417   6.615   2.443
  100SAPC   O32 9957   1.473   6.504   2.445
  100SAPC   C32 9958   1.336   6.673   2.566
  100SAPC   H2X 9959   1.228   6.649   2.557
  100SAPC   H2Y 9960   1.349   6.783   2.561
  100SAPC   C23 9961   1.865   6.528   2.474
  100SAPC   H3R 9962   1.907   6.428   2.498
  100SAPC   H3S 9963   1.764   6.497   2.440
  100SAPC   C24 9964   1.865   6.627   2.598
  100SAPC   H4R 9965   1.792   6.710   2.584
  100SAPC   H4S 9966   1.958   6.687   2.603
  100SAPC   C25 9967   1.822   6.563   2.731
  100SAPC   H5R 9968   1.731   6.504   2.715
  100SAPC   C26 9969   1.873   6.586   2.855
  100SAPC   H6R 9970   1.823   6.530   2.936
  100SAPC   C27 9971   1.995   6.675   2.883
  100SAPC   H7R 9972   1.964   6.770   2.931
  100SAPC   H7S 9973   2.045   6.715   2.792
  100SAPC   C28 9974   2.099   6.609   2.969
  100SAPC   H8R 9975   2.190   6.575   2.917
  100SAPC   C29 9976   2.103   6.615   3.099
  100SAPC   H9R 9977   2.193   6.572   3.146
  100SAPC  C210 9978   2.018   6.683   3.203
  100SAPC  H10R 9979   1.935   6.731   3.147
  100SAPC  H10S 9980   2.072   6.766   3.254
  100SAPC  C211 9981   1.946   6.588   3.298
  100SAPC  H11R 9982   1.873   6.516   3.260
  100SAPC  C212 9983   1.957   6.586   3.433
  100SAPC  H12R 9984   1.876   6.534   3.487
  100SAPC  C213 9985   2.046   6.662   3.520
  100SAPC  H13R 9986   1.973   6.709   3.590
  100SAPC  H13S 9987   2.093   6.744   3.462
  100SAPC  C214 9988   2.154   6.565   3.577
  100SAPC  H14R 9989   2.110   6.469   3.606
  100SAPC  C215 9990   2.291   6.584   3.579
  100SAPC  H15R 9991   2.345   6.508   3.636
  100SAPC  C216 9992   2.366   6.709   3.532
  100SAPC  H16R 9993   2.416   6.761   3.617
  100SAPC  H16S 9994   2.320   6.794   3.477
  100SAPC  C217 9995   2.496   6.679   3.449
  100SAPC  H17R 9996   2.561   6.602   3.496
  100SAPC  H17S 9997   2.563   6.767   3.440
  100SAPC  C218 9998   2.454   6.624   3.307
  100SAPC  H18R 9999   2.378   6.694   3.267
  100SAPC  H18S10000   2.396   6.530   3.319
  100SAPC  C21910001   2.574   6.605   3.209
  100SAPC  H19R10002   2.627   6.701   3.200
  100SAPC  H19S10003   2.530   6.582   3.109
  100SAPC  C22010004   2.683   6.512   3.259
  100SAPC  H20R10005   2.641   6.409   3.268
  100SAPC  H20S10006   2.730   6.549   3.353
  100SAPC  H20T10007   2.768   6.515   3.187
  100SAPC   C3310008   1.382   6.627   2.704
  100SAPC   H3X10009   1.405   6.518   2.706
  100SAPC   H3Y10010   1.297   6.649   2.773
  100SAPC   C3410011   1.502   6.690   2.777
  100SAPC   H4X10012   1.487   6.800   2.784
  100SAPC   H4Y10013   1.588   6.671   2.710
  100SAPC   C3510014   1.514   6.659   2.925
  100SAPC   H5X10015   1.423   6.694   2.978
  100SAPC   H5Y10016   1.608   6.702   2.967
  100SAPC   C3610017   1.516   6.506   2.944
  100SAPC   H6X10018   1.588   6.475   2.866
  100SAPC   H6Y10019   1.419   6.457   2.917
  100SAPC   C3710020   1.551   6.465   3.086
  100SAPC   H7X10021   1.648   6.504   3.122
  100SAPC   H7Y10022   1.573   6.356   3.092
  100SAPC   C3810023   1.440   6.503   3.187
  100SAPC   H8X10024   1.352   6.436   3.182
  100SAPC   H8Y10025   1.413   6.610   3.174
  100SAPC   C3910026   1.495   6.499   3.332
  100SAPC   H9X10027   1.585   6.562   3.350
  100SAPC   H9Y10028   1.526   6.393   3.349
  100SAPC  C31010029   1.385   6.507   3.440
  100SAPC  H10X10030   1.325   6.414   3.426
  100SAPC  H10Y10031   1.310   6.585   3.414
  100SAPC  C31110032   1.422   6.538   3.586
  100SAPC  H11X10033   1.483   6.458   3.633
  100SAPC  H11Y10034   1.327   6.536   3.642
  100SAPC  C31210035   1.490   6.676   3.596
  100SAPC  H12X10036   1.409   6.745   3.564
  100SAPC  H12Y10037   1.579   6.670   3.530
  100SAPC  C31310038   1.538   6.701   3.734
  100SAPC  H13X10039   1.448   6.714   3.797
  100SAPC  H13Y10040   1.588   6.801   3.732
  100SAPC  C31410041   1.616   6.587   3.798
  100SAPC  H14X10042   1.662   6.529   3.715
  100SAPC  H14Y10043   1.546   6.520   3.853
  100SAPC  C31510044   1.737   6.639   3.884
  100SAPC  H15X10045   1.801   6.712   3.829
  100SAPC  H15Y10046   1.803   6.550   3.897
  100SAPC  C31610047   1.693   6.696   4.017
  100SAPC  H16X10048   1.616   6.633   4.066
  100SAPC  H16Y10049   1.654   6.798   3.999
  100SAPC  C31710050   1.812   6.724   4.114
  100SAPC  H17X10051   1.763   6.783   4.194
  100SAPC  H17Y10052   1.884   6.799   4.073
  100SAPC  C31810053   1.875   6.596   4.175
  100SAPC  H18X10054   1.791   6.553   4.234
  100SAPC  H18Y10055   1.969   6.616   4.231
  100SAPC  H18Z10056   1.901   6.521   4.097
  101OSM      N10057   3.618   2.680   6.464
  101OSM    C1510058   3.601   2.532   6.498
  101OSM   H15A10059   3.650   2.502   6.589
  101OSM   H15B10060   3.655   2.482   6.419
  101OSM   H15C10061   3.500   2.494   6.507
  101OSM    C1410062   3.553   2.764   6.567
  101OSM   H14A10063   3.462   2.720   6.603
  101OSM   H14B10064   3.535   2.862   6.525
  101OSM   H14C10065   3.616   2.785   6.652
  101OSM    C1310066   3.760   2.713   6.466
  101OSM   H13A10067   3.795   2.710   6.568
  101OSM   H13B10068   3.765   2.814   6.428
  101OSM   H13C10069   3.815   2.652   6.396
  101OSM    C1210070   3.560   2.710   6.329
  101OSM   H12A10071   3.455   2.685   6.332
  101OSM   H12B10072   3.599   2.637   6.259
  101OSM    C1110073   3.578   2.853   6.262
  101OSM   H11A10074   3.532   2.854   6.161
  101OSM   H11B10075   3.685   2.871   6.239
  101OSM      P10076   3.374   2.994   6.351
  101OSM    O1310077   3.291   2.872   6.359
  101OSM    O1410078   3.347   3.096   6.463
  101OSM    O1110079   3.348   3.063   6.217
  101OSM    O1210080   3.528   2.957   6.347
  101OSM    C1S10081   3.422   3.169   6.158
  101OSM    H1S10082   3.505   3.206   6.222
  101OSM    H1T10083   3.362   3.259   6.132
  101OSM     NF10084   3.538   3.249   5.963
  101OSM    HNF10085   3.474   3.295   5.902
  101OSM    C2S10086   3.480   3.134   6.023
  101OSM    H2S10087   3.558   3.063   6.056
  101OSM    C3S10088   3.378   3.063   5.931
  101OSM    H3S10089   3.297   3.137   5.915
  101OSM     O310090   3.326   2.939   5.994
  101OSM    HO310091   3.331   2.963   6.086
  101OSM    C4S10092   3.444   3.021   5.797
  101OSM    H4S10093   3.549   2.992   5.812
  101OSM    C5S10094   3.378   2.998   5.683
  101OSM    H5S10095   3.276   3.030   5.659
  101OSM    C6S10096   3.457   2.957   5.558
  101OSM    H6S10097   3.430   2.859   5.516
  101OSM    H6T10098   3.567   2.951   5.578
  101OSM    C7S10099   3.449   3.056   5.444
  101OSM    H7S10100   3.474   3.161   5.469
  101OSM    H7T10101   3.345   3.045   5.408
  101OSM    C8S10102   3.527   3.017   5.312
  101OSM    H8S10103   3.490   2.918   5.278
  101OSM    H8T10104   3.636   3.006   5.324
  101OSM    C9S10105   3.505   3.123   5.208
  101OSM    H9S10106   3.581   3.202   5.232
  101OSM    H9T10107   3.401   3.161   5.210
  101OSM   C10S10108   3.537   3.074   5.068
  101OSM   H10S10109   3.640   3.031   5.068
  101OSM   H10T10110   3.548   3.168   5.011
  101OSM   C11S10111   3.432   2.974   5.016
  101OSM   H11S10112   3.327   3.010   5.009
  101OSM   H11T10113   3.432   2.884   5.079
  101OSM   C12S10114   3.469   2.925   4.877
  101OSM   H12S10115   3.397   2.846   4.849
  101OSM   H12T10116   3.569   2.875   4.881
  101OSM   C13S10117   3.424   3.029   4.768
  101OSM   H13S10118   3.480   3.124   4.777
  101OSM   H13T10119   3.314   3.044   4.781
  101OSM   C14S10120   3.445   2.981   4.620
  101OSM   H14S10121   3.381   3.042   4.552
  101OSM   H14T10122   3.402   2.879   4.619
  101OSM   C15S10123   3.581   2.958   4.564
  101OSM   H15S10124   3.633   2.888   4.634
  101OSM   H15T10125   3.644   3.050   4.567
  101OSM   C16S10126   3.572   2.895   4.417
  101OSM   H16S10127   3.534   2.963   4.338
  101OSM   H16T10128   3.487   2.823   4.421
  101OSM   C17S10129   3.700   2.814   4.389
  101OSM   H17S10130   3.707   2.743   4.474
  101OSM   H17T10131   3.788   2.880   4.397
  101OSM   C18S10132   3.713   2.746   4.247
  101OSM   H18S10133   3.783   2.660   4.251
  101OSM   H18T10134   3.732   2.812   4.160
  101OSM   H18U10135   3.619   2.688   4.233
  101OSM    C1F10136   3.645   3.310   6.022
  101OSM     OF10137   3.697   3.267   6.121
  101OSM    C2F10138   3.681   3.440   5.954
  101OSM    H2F10139   3.713   3.509   6.035
  101OSM    H2G10140   3.587   3.473   5.903
  101OSM    C3F10141   3.792   3.420   5.851
  101OSM    H3F10142   3.760   3.334   5.788
  101OSM    H3G10143   3.881   3.402   5.916
  101OSM    C4F10144   3.807   3.551   5.768
  101OSM    H4F10145   3.823   3.638   5.835
  101OSM    H4G10146   3.704   3.558   5.728
  101OSM    C5F10147   3.919   3.553   5.659
  101OSM    H5F10148   3.924   3.450   5.619
  101OSM    H5G10149   4.013   3.592   5.704
  101OSM    C6F10150   3.901   3.655   5.550
  101OSM    H6F10151   3.867   3.757   5.578
  101OSM    H6G10152   3.818   3.615   5.487
  101OSM    C7F10153   4.038   3.673   5.477
  101OSM    H7F10154   4.083   3.575   5.451
  101OSM    H7G10155   4.113   3.718   5.545
  101OSM    C8F10156   4.019   3.753   5.348
  101OSM    H8F10157   3.983   3.856   5.369
  101OSM    H8G10158   3.944   3.699   5.287
  101OSM    C9F10159   4.159   3.757   5.280
  101OSM    H9F10160   4.232   3.815   5.339
  101OSM   C10F10161   4.204   3.705   5.166
  101OSM   H10F10162   4.311   3.711   5.144
  101OSM   C11F10163   4.112   3.619   5.085
  101OSM   H11F10164   4.002   3.633   5.090
  101OSM   H11G10165   4.139   3.512   5.100
  101OSM   C12F10166   4.158   3.642   4.939
  101OSM   H12F10167   4.262   3.607   4.921
  101OSM   H12G10168   4.134   3.743   4.898
  101OSM   C13F10169   4.082   3.541   4.839
  101OSM   H13F10170   3.978   3.579   4.838
  101OSM   H13G10171   4.090   3.441   4.887
  101OSM   C14F10172   4.137   3.533   4.698
  101OSM   H14F10173   4.236   3.483   4.706
  101OSM   H14G10174   4.161   3.634   4.659
  101OSM   C15F10175   4.042   3.466   4.601
  101OSM   H15F10176   3.944   3.517   4.588
  101OSM   H15G10177   4.026   3.365   4.644
  101OSM   C16F10178   4.097   3.441   4.458
  101OSM   H16F10179   4.040   3.360   4.407
  101OSM   H16G10180   4.200   3.403   4.475
  101OSM   C17F10181   4.104   3.554   4.355
  101OSM   H17F10182   4.157   3.644   4.391
  101OSM   H17G10183   3.994   3.569   4.345
  101OSM   C18F10184   4.151   3.520   4.220
  101OSM   H18F10185   4.103   3.429   4.179
  101OSM   H18G10186   4.260   3.508   4.207
  101OSM   H18H10187   4.123   3.605   4.153
  102OSM      N10188   4.604   2.347   6.601
  102OSM    C1510189   4.741   2.334   6.555
  102OSM   H15A10190   4.801   2.295   6.636
  102OSM   H15B10191   4.773   2.434   6.532
  102OSM   H15C10192   4.770   2.265   6.477
  102OSM    C1410193   4.525   2.405   6.488
  102OSM   H14A10194   4.523   2.335   6.406
  102OSM   H14B10195   4.574   2.495   6.453
  102OSM   H14C10196   4.424   2.426   6.518
  102OSM    C1310197   4.548   2.210   6.627
  102OSM   H13A10198   4.619   2.162   6.692
  102OSM   H13B10199   4.561   2.153   6.536
  102OSM   H13C10200   4.444   2.212   6.655
  102OSM    C1210201   4.599   2.432   6.724
  102OSM   H12A10202   4.652   2.525   6.706
  102OSM   H12B10203   4.659   2.383   6.799
  102OSM    C1110204   4.463   2.464   6.777
  102OSM   H11A10205   4.468   2.510   6.878
  102OSM   H11B10206   4.412   2.373   6.816
  102OSM      P10207   4.388   2.698   6.672
  102OSM    O1310208   4.313   2.748   6.788
  102OSM    O1410209   4.530   2.738   6.665
  102OSM    O1110210   4.318   2.743   6.542
  102OSM    O1210211   4.380   2.541   6.684
  102OSM    C1S10212   4.399   2.747   6.424
  102OSM    H1S10213   4.460   2.654   6.420
  102OSM    H1T10214   4.461   2.839   6.414
  102OSM     NF10215   4.391   2.761   6.167
  102OSM    HNF10216   4.410   2.853   6.133
  102OSM    C2S10217   4.309   2.748   6.291
  102OSM    H2S10218   4.258   2.650   6.291
  102OSM    C3S10219   4.213   2.867   6.300
  102OSM    H3S10220   4.280   2.955   6.309
  102OSM     O310221   4.124   2.862   6.411
  102OSM    HO310222   4.158   2.803   6.478
  102OSM    C4S10223   4.128   2.879   6.176
  102OSM    H4S10224   4.168   2.952   6.103
  102OSM    C5S10225   4.012   2.817   6.140
  102OSM    H5S10226   3.978   2.737   6.207
  102OSM    C6S10227   3.938   2.836   6.014
  102OSM    H6S10228   3.828   2.839   6.032
  102OSM    H6T10229   3.933   2.744   5.953
  102OSM    C7S10230   3.972   2.959   5.923
  102OSM    H7S10231   4.079   2.944   5.899
  102OSM    H7T10232   3.970   3.052   5.982
  102OSM    C8S10233   3.907   2.972   5.786
  102OSM    H8S10234   3.800   3.002   5.794
  102OSM    H8T10235   3.906   2.869   5.746
  102OSM    C9S10236   3.972   3.069   5.692
  102OSM    H9S10237   4.071   3.031   5.658
  102OSM    H9T10238   3.992   3.164   5.747
  102OSM   C10S10239   3.885   3.095   5.567
  102OSM   H10S10240   3.793   3.145   5.604
  102OSM   H10T10241   3.858   2.994   5.529
  102OSM   C11S10242   3.945   3.178   5.458
  102OSM   H11S10243   4.053   3.149   5.453
  102OSM   H11T10244   3.941   3.286   5.481
  102OSM   C12S10245   3.887   3.152   5.317
  102OSM   H12S10246   3.776   3.162   5.319
  102OSM   H12T10247   3.912   3.053   5.273
  102OSM   C13S10248   3.945   3.251   5.210
  102OSM   H13S10249   4.052   3.221   5.200
  102OSM   H13T10250   3.954   3.346   5.266
  102OSM   C14S10251   3.870   3.246   5.076
  102OSM   H14S10252   3.895   3.343   5.028
  102OSM   H14T10253   3.759   3.240   5.087
  102OSM   C15S10254   3.914   3.132   4.985
  102OSM   H15S10255   3.860   3.036   5.003
  102OSM   H15T10256   4.014   3.092   5.013
  102OSM   C16S10257   3.922   3.169   4.838
  102OSM   H16S10258   3.992   3.254   4.830
  102OSM   H16T10259   3.818   3.203   4.818
  102OSM   C17S10260   3.968   3.060   4.742
  102OSM   H17S10261   3.969   3.105   4.641
  102OSM   H17T10262   3.892   2.979   4.747
  102OSM   C18S10263   4.109   3.008   4.777
  102OSM   H18S10264   4.161   2.973   4.686
  102OSM   H18T10265   4.104   2.921   4.845
  102OSM   H18U10266   4.166   3.088   4.830
  102OSM    C1F10267   4.458   2.663   6.126
  102OSM     OF10268   4.450   2.549   6.177
  102OSM    C2F10269   4.548   2.682   6.006
  102OSM    H2F10270   4.619   2.766   6.024
  102OSM    H2G10271   4.478   2.714   5.926
  102OSM    C3F10272   4.624   2.564   5.965
  102OSM    H3F10273   4.569   2.468   5.961
  102OSM    H3G10274   4.713   2.554   6.032
  102OSM    C4F10275   4.698   2.586   5.829
  102OSM    H4F10276   4.777   2.508   5.825
  102OSM    H4G10277   4.752   2.683   5.834
  102OSM    C5F10278   4.611   2.567   5.708
  102OSM    H5F10279   4.546   2.656   5.699
  102OSM    H5G10280   4.559   2.469   5.719
  102OSM    C6F10281   4.690   2.566   5.576
  102OSM    H6F10282   4.746   2.662   5.567
  102OSM    H6G10283   4.619   2.575   5.491
  102OSM    C7F10284   4.787   2.444   5.557
  102OSM    H7F10285   4.826   2.416   5.657
  102OSM    H7G10286   4.880   2.470   5.502
  102OSM    C8F10287   4.716   2.329   5.490
  102OSM    H8F10288   4.712   2.355   5.382
  102OSM    H8G10289   4.617   2.328   5.541
  102OSM    C9F10290   4.789   2.208   5.518
  102OSM    H9F10291   4.858   2.209   5.604
  102OSM   C10F10292   4.809   2.100   5.437
  102OSM   H10F10293   4.860   2.009   5.473
  102OSM   C11F10294   4.749   2.088   5.295
  102OSM   H11F10295   4.673   2.164   5.265
  102OSM   H11G10296   4.706   1.986   5.291
  102OSM   C12F10297   4.863   2.095   5.191
  102OSM   H12F10298   4.945   2.023   5.214
  102OSM   H12G10299   4.903   2.195   5.164
  102OSM   C13F10300   4.799   2.056   5.058
  102OSM   H13F10301   4.717   2.129   5.038
  102OSM   H13G10302   4.742   1.963   5.079
  102OSM   C14F10303   4.903   2.046   4.948
  102OSM   H14F10304   4.980   1.969   4.968
  102OSM   H14G10305   4.942   2.146   4.920
  102OSM   C15F10306   4.835   2.004   4.814
  102OSM   H15F10307   4.749   2.072   4.797
  102OSM   H15G10308   4.782   1.907   4.830
  102OSM   C16F10309   4.934   2.010   4.696
  102OSM   H16F10310   4.996   1.920   4.681
  102OSM   H16G10311   5.004   2.094   4.716
  102OSM   C17F10312   4.858   2.047   4.560
  102OSM   H17F10313   4.813   2.148   4.569
  102OSM   H17G10314   4.775   1.978   4.534
  102OSM   C18F10315   4.961   2.067   4.446
  102OSM   H18F10316   5.061   2.022   4.463
  102OSM   H18G10317   4.975   2.177   4.434
  102OSM   H18H10318   4.925   2.032   4.347
  103OSM      N10319   3.495   4.559   6.611
  103OSM    C1510320   3.352   4.596   6.604
  103OSM   H15A10321   3.296   4.550   6.684
  103OSM   H15B10322   3.309   4.547   6.518
  103OSM   H15C10323   3.333   4.701   6.591
  103OSM    C1410324   3.563   4.592   6.482
  103OSM   H14A10325   3.670   4.575   6.489
  103OSM   H14B10326   3.540   4.690   6.443
  103OSM   H14C10327   3.523   4.523   6.409
  103OSM    C1310328   3.552   4.652   6.723
  103OSM   H13A10329   3.531   4.754   6.695
  103OSM   H13B10330   3.658   4.635   6.736
  103OSM   H13C10331   3.491   4.628   6.808
  103OSM    C1210332   3.507   4.412   6.660
  103OSM   H12A10333   3.473   4.415   6.762
  103OSM   H12B10334   3.614   4.394   6.653
  103OSM    C1110335   3.442   4.304   6.580
  103OSM   H11A10336   3.476   4.203   6.609
  103OSM   H11B10337   3.451   4.317   6.470
  103OSM      P10338   3.191   4.273   6.500
  103OSM    O1310339   3.152   4.132   6.509
  103OSM    O1410340   3.087   4.374   6.513
  103OSM    O1110341   3.256   4.295   6.359
  103OSM    O1210342   3.301   4.304   6.614
  103OSM    C1S10343   3.223   4.198   6.259
  103OSM    H1S10344   3.116   4.169   6.264
  103OSM    H1T10345   3.279   4.102   6.262
  103OSM     NF10346   3.249   4.154   6.011
  103OSM    HNF10347   3.331   4.097   5.999
  103OSM    C2S10348   3.264   4.253   6.118
  103OSM    H2S10349   3.186   4.329   6.092
  103OSM    C3S10350   3.403   4.320   6.123
  103OSM    H3S10351   3.474   4.258   6.182
  103OSM     O310352   3.415   4.446   6.198
  103OSM    HO310353   3.350   4.426   6.265
  103OSM    C4S10354   3.458   4.342   5.988
  103OSM    H4S10355   3.504   4.248   5.957
  103OSM    C5S10356   3.465   4.451   5.904
  103OSM    H5S10357   3.429   4.549   5.936
  103OSM    C6S10358   3.534   4.442   5.774
  103OSM    H6S10359   3.589   4.352   5.740
  103OSM    H6T10360   3.606   4.526   5.779
  103OSM    C7S10361   3.440   4.472   5.652
  103OSM    H7S10362   3.382   4.565   5.670
  103OSM    H7T10363   3.373   4.384   5.652
  103OSM    C8S10364   3.516   4.488   5.519
  103OSM    H8S10365   3.563   4.393   5.487
  103OSM    H8T10366   3.595   4.565   5.535
  103OSM    C9S10367   3.432   4.545   5.405
  103OSM    H9S10368   3.389   4.640   5.445
  103OSM    H9T10369   3.349   4.475   5.382
  103OSM   C10S10370   3.507   4.579   5.274
  103OSM   H10S10371   3.566   4.486   5.255
  103OSM   H10T10372   3.582   4.656   5.300
  103OSM   C11S10373   3.425   4.634   5.159
  103OSM   H11S10374   3.381   4.728   5.198
  103OSM   H11T10375   3.337   4.571   5.134
  103OSM   C12S10376   3.509   4.677   5.034
  103OSM   H12S10377   3.447   4.741   4.968
  103OSM   H12T10378   3.523   4.593   4.963
  103OSM   C13S10379   3.647   4.741   5.058
  103OSM   H13S10380   3.709   4.672   5.119
  103OSM   H13T10381   3.638   4.830   5.124
  103OSM   C14S10382   3.710   4.776   4.926
  103OSM   H14S10383   3.636   4.814   4.853
  103OSM   H14T10384   3.754   4.689   4.873
  103OSM   C15S10385   3.833   4.865   4.951
  103OSM   H15S10386   3.894   4.803   5.021
  103OSM   H15T10387   3.789   4.946   5.013
  103OSM   C16S10388   3.895   4.923   4.828
  103OSM   H16S10389   3.950   4.841   4.777
  103OSM   H16T10390   3.958   5.006   4.866
  103OSM   C17S10391   3.802   4.991   4.728
  103OSM   H17S10392   3.751   5.069   4.788
  103OSM   H17T10393   3.725   4.920   4.690
  103OSM   C18S10394   3.882   5.051   4.620
  103OSM   H18S10395   3.920   4.966   4.560
  103OSM   H18T10396   3.967   5.105   4.667
  103OSM   H18U10397   3.825   5.120   4.554
  103OSM    C1F10398   3.128   4.108   5.972
  103OSM     OF10399   3.023   4.162   6.008
  103OSM    C2F10400   3.138   3.976   5.908
  103OSM    H2F10401   3.090   3.903   5.976
  103OSM    H2G10402   3.243   3.943   5.889
  103OSM    C3F10403   3.075   3.967   5.769
  103OSM    H3F10404   2.968   3.998   5.772
  103OSM    H3G10405   3.081   3.859   5.744
  103OSM    C4F10406   3.141   4.063   5.665
  103OSM    H4F10407   3.251   4.042   5.663
  103OSM    H4G10408   3.123   4.165   5.705
  103OSM    C5F10409   3.085   4.052   5.527
  103OSM    H5F10410   2.975   4.069   5.522
  103OSM    H5G10411   3.105   3.959   5.471
  103OSM    C6F10412   3.140   4.163   5.434
  103OSM    H6F10413   3.098   4.258   5.473
  103OSM    H6G10414   3.089   4.140   5.338
  103OSM    C7F10415   3.290   4.144   5.421
  103OSM    H7F10416   3.324   4.038   5.429
  103OSM    H7G10417   3.339   4.202   5.502
  103OSM    C8F10418   3.342   4.220   5.296
  103OSM    H8F10419   3.452   4.238   5.306
  103OSM    H8G10420   3.294   4.318   5.276
  103OSM    C9F10421   3.345   4.132   5.177
  103OSM    H9F10422   3.407   4.044   5.199
  103OSM   C10F10423   3.273   4.125   5.067
  103OSM   H10F10424   3.296   4.051   4.988
  103OSM   C11F10425   3.177   4.224   5.026
  103OSM   H11F10426   3.158   4.309   5.096
  103OSM   H11G10427   3.078   4.179   5.002
  103OSM   C12F10428   3.244   4.284   4.894
  103OSM   H12F10429   3.167   4.347   4.845
  103OSM   H12G10430   3.271   4.203   4.822
  103OSM   C13F10431   3.366   4.368   4.919
  103OSM   H13F10432   3.428   4.327   5.002
  103OSM   H13G10433   3.326   4.464   4.960
  103OSM   C14F10434   3.437   4.403   4.791
  103OSM   H14F10435   3.481   4.315   4.740
  103OSM   H14G10436   3.523   4.465   4.822
  103OSM   C15F10437   3.351   4.492   4.693
  103OSM   H15F10438   3.302   4.560   4.767
  103OSM   H15G10439   3.274   4.429   4.644
  103OSM   C16F10440   3.424   4.565   4.584
  103OSM   H16F10441   3.504   4.625   4.631
  103OSM   H16G10442   3.349   4.630   4.535
  103OSM   C17F10443   3.508   4.482   4.482
  103OSM   H17F10444   3.440   4.423   4.418
  103OSM   H17G10445   3.586   4.412   4.519
  103OSM   C18F10446   3.577   4.577   4.383
  103OSM   H18F10447   3.656   4.528   4.322
  103OSM   H18G10448   3.625   4.660   4.440
  103OSM   H18H10449   3.497   4.620   4.319
  104OSM      N10450   4.750   4.335   6.581
  104OSM    C1510451   4.875   4.411   6.552
  104OSM   H15A10452   4.936   4.399   6.641
  104OSM   H15B10453   4.857   4.517   6.539
  104OSM   H15C10454   4.942   4.375   6.475
  104OSM    C1410455   4.792   4.202   6.627
  104OSM   H14A10456   4.715   4.127   6.620
  104OSM   H14B10457   4.807   4.207   6.733
  104OSM   H14C10458   4.879   4.164   6.575
  104OSM    C1310459   4.679   4.401   6.694
  104OSM   H13A10460   4.586   4.356   6.726
  104OSM   H13B10461   4.659   4.505   6.673
  104OSM   H13C10462   4.743   4.394   6.781
  104OSM    C1210463   4.660   4.313   6.456
  104OSM   H12A10464   4.570   4.264   6.490
  104OSM   H12B10465   4.711   4.249   6.385
  104OSM    C1110466   4.608   4.438   6.372
  104OSM   H11A10467   4.543   4.402   6.289
  104OSM   H11B10468   4.696   4.462   6.309
  104OSM      P10469   4.420   4.564   6.489
  104OSM    O1310470   4.352   4.437   6.498
  104OSM    O1410471   4.429   4.641   6.619
  104OSM    O1110472   4.348   4.658   6.378
  104OSM    O1210473   4.560   4.550   6.440
  104OSM    C1S10474   4.413   4.655   6.249
  104OSM    H1S10475   4.414   4.549   6.214
  104OSM    H1T10476   4.515   4.697   6.252
  104OSM     NF10477   4.410   4.737   6.020
  104OSM    HNF10478   4.451   4.821   5.986
  104OSM    C2S10479   4.340   4.741   6.151
  104OSM    H2S10480   4.239   4.699   6.132
  104OSM    C3S10481   4.323   4.885   6.210
  104OSM    H3S10482   4.414   4.941   6.242
  104OSM     O310483   4.242   4.901   6.327
  104OSM    HO310484   4.245   4.813   6.366
  104OSM    C4S10485   4.260   4.975   6.096
  104OSM    H4S10486   4.341   5.008   6.029
  104OSM    C5S10487   4.132   4.997   6.067
  104OSM    H5S10488   4.050   4.967   6.133
  104OSM    C6S10489   4.082   5.078   5.945
  104OSM    H6S10490   4.055   5.179   5.979
  104OSM    H6T10491   3.991   5.022   5.912
  104OSM    C7S10492   4.170   5.100   5.818
  104OSM    H7S10493   4.263   5.149   5.854
  104OSM    H7T10494   4.118   5.171   5.750
  104OSM    C8S10495   4.201   4.975   5.738
  104OSM    H8S10496   4.101   4.940   5.704
  104OSM    H8T10497   4.250   4.894   5.795
  104OSM    C9S10498   4.293   4.992   5.617
  104OSM    H9S10499   4.396   5.020   5.648
  104OSM    H9T10500   4.258   5.075   5.551
  104OSM   C10S10501   4.299   4.862   5.552
  104OSM   H10S10502   4.203   4.845   5.499
  104OSM   H10T10503   4.318   4.770   5.612
  104OSM   C11S10504   4.397   4.862   5.436
  104OSM   H11S10505   4.497   4.858   5.483
  104OSM   H11T10506   4.386   4.956   5.378
  104OSM   C12S10507   4.397   4.745   5.335
  104OSM   H12S10508   4.290   4.729   5.310
  104OSM   H12T10509   4.432   4.659   5.396
  104OSM   C13S10510   4.481   4.750   5.208
  104OSM   H13S10511   4.481   4.647   5.168
  104OSM   H13T10512   4.586   4.778   5.232
  104OSM   C14S10513   4.437   4.846   5.105
  104OSM   H14S10514   4.448   4.946   5.150
  104OSM   H14T10515   4.328   4.843   5.085
  104OSM   C15S10516   4.522   4.833   4.977
  104OSM   H15S10517   4.601   4.757   4.996
  104OSM   H15T10518   4.573   4.929   4.953
  104OSM   C16S10519   4.437   4.803   4.852
  104OSM   H16S10520   4.374   4.713   4.867
  104OSM   H16T10521   4.512   4.787   4.771
  104OSM   C17S10522   4.340   4.910   4.812
  104OSM   H17S10523   4.384   5.011   4.820
  104OSM   H17T10524   4.262   4.895   4.890
  104OSM   C18S10525   4.284   4.892   4.672
  104OSM   H18S10526   4.257   4.786   4.652
  104OSM   H18T10527   4.349   4.924   4.587
  104OSM   H18U10528   4.193   4.954   4.659
  104OSM    C1F10529   4.410   4.624   5.947
  104OSM     OF10530   4.353   4.525   5.993
  104OSM    C2F10531   4.479   4.633   5.811
  104OSM    H2F10532   4.586   4.632   5.840
  104OSM    H2G10533   4.466   4.735   5.769
  104OSM    C3F10534   4.444   4.531   5.711
  104OSM    H3F10535   4.360   4.562   5.646
  104OSM    H3G10536   4.400   4.444   5.764
  104OSM    C4F10537   4.561   4.489   5.626
  104OSM    H4F10538   4.644   4.450   5.688
  104OSM    H4G10539   4.585   4.587   5.579
  104OSM    C5F10540   4.534   4.391   5.516
  104OSM    H5F10541   4.456   4.437   5.453
  104OSM    H5G10542   4.495   4.295   5.556
  104OSM    C6F10543   4.651   4.378   5.420
  104OSM    H6F10544   4.748   4.361   5.473
  104OSM    H6G10545   4.655   4.467   5.353
  104OSM    C7F10546   4.622   4.255   5.343
  104OSM    H7F10547   4.522   4.262   5.296
  104OSM    H7G10548   4.616   4.168   5.411
  104OSM    C8F10549   4.723   4.233   5.221
  104OSM    H8F10550   4.705   4.128   5.193
  104OSM    H8G10551   4.823   4.239   5.270
  104OSM    C9F10552   4.695   4.338   5.114
  104OSM    H9F10553   4.628   4.418   5.149
  104OSM   C10F10554   4.723   4.330   4.988
  104OSM   H10F10555   4.686   4.404   4.915
  104OSM   C11F10556   4.808   4.221   4.940
  104OSM   H11F10557   4.747   4.159   4.871
  104OSM   H11G10558   4.859   4.171   5.025
  104OSM   C12F10559   4.926   4.283   4.861
  104OSM   H12F10560   4.884   4.325   4.767
  104OSM   H12G10561   4.997   4.201   4.834
  104OSM   C13F10562   5.005   4.396   4.930
  104OSM   H13F10563   4.934   4.479   4.950
  104OSM   H13G10564   5.083   4.430   4.858
  104OSM   C14F10565   5.086   4.345   5.050
  104OSM   H14F10566   5.181   4.294   5.020
  104OSM   H14G10567   5.022   4.262   5.087
  104OSM   C15F10568   5.102   4.441   5.170
  104OSM   H15F10569   5.003   4.472   5.207
  104OSM   H15G10570   5.152   4.531   5.127
  104OSM   C16F10571   5.178   4.383   5.293
  104OSM   H16F10572   5.118   4.295   5.325
  104OSM   H16G10573   5.180   4.458   5.374
  104OSM   C17F10574   5.319   4.342   5.259
  104OSM   H17F10575   5.325   4.277   5.169
  104OSM   H17G10576   5.362   4.282   5.342
  104OSM   C18F10577   5.412   4.464   5.223
  104OSM   H18F10578   5.398   4.500   5.118
  104OSM   H18G10579   5.512   4.416   5.223
  104OSM   H18H10580   5.418   4.546   5.298
  105OSM      N10581   5.307   4.827   7.238
  105OSM    C1510582   5.382   4.701   7.284
  105OSM   H15A10583   5.364   4.640   7.196
  105OSM   H15B10584   5.333   4.656   7.369
  105OSM   H15C10585   5.488   4.713   7.303
  105OSM    C1410586   5.157   4.795   7.212
  105OSM   H14A10587   5.154   4.703   7.155
  105OSM   H14B10588   5.110   4.880   7.166
  105OSM   H14C10589   5.103   4.775   7.303
  105OSM    C1310590   5.316   4.917   7.351
  105OSM   H13A10591   5.420   4.933   7.373
  105OSM   H13B10592   5.282   4.854   7.432
  105OSM   H13C10593   5.268   5.012   7.336
  105OSM    C1210594   5.371   4.887   7.115
  105OSM   H12A10595   5.473   4.915   7.136
  105OSM   H12B10596   5.325   4.983   7.099
  105OSM    C1110597   5.376   4.811   6.982
  105OSM   H11A10598   5.421   4.881   6.909
  105OSM   H11B10599   5.281   4.784   6.932
  105OSM      P10600   5.611   4.701   7.004
  105OSM    O1310601   5.653   4.802   7.111
  105OSM    O1410602   5.656   4.563   7.028
  105OSM    O1110603   5.657   4.755   6.861
  105OSM    O1210604   5.454   4.694   6.989
  105OSM    C1S10605   5.599   4.678   6.754
  105OSM    H1S10606   5.503   4.626   6.773
  105OSM    H1T10607   5.677   4.603   6.727
  105OSM     NF10608   5.504   4.699   6.527
  105OSM    HNF10609   5.565   4.652   6.465
  105OSM    C2S10610   5.566   4.772   6.632
  105OSM    H2S10611   5.497   4.853   6.666
  105OSM    C3S10612   5.693   4.845   6.578
  105OSM    H3S10613   5.781   4.780   6.558
  105OSM     O310614   5.738   4.927   6.686
  105OSM    HO310615   5.692   4.887   6.761
  105OSM    C4S10616   5.663   4.925   6.450
  105OSM    H4S10617   5.592   5.007   6.472
  105OSM    C5S10618   5.734   4.912   6.333
  105OSM    H5S10619   5.820   4.844   6.330
  105OSM    C6S10620   5.704   4.999   6.210
  105OSM    H6S10621   5.758   5.096   6.217
  105OSM    H6T10622   5.594   5.015   6.217
  105OSM    C7S10623   5.719   4.922   6.081
  105OSM    H7S10624   5.634   4.851   6.067
  105OSM    H7T10625   5.821   4.877   6.081
  105OSM    C8S10626   5.715   5.016   5.954
  105OSM    H8S10627   5.779   5.105   5.973
  105OSM    H8T10628   5.614   5.056   5.933
  105OSM    C9S10629   5.754   4.944   5.829
  105OSM    H9S10630   5.671   4.873   5.810
  105OSM    H9T10631   5.848   4.885   5.823
  105OSM   C10S10632   5.757   5.042   5.705
  105OSM   H10S10633   5.841   5.112   5.722
  105OSM   H10T10634   5.661   5.097   5.699
  105OSM   C11S10635   5.770   4.965   5.575
  105OSM   H11S10636   5.674   4.919   5.544
  105OSM   H11T10637   5.846   4.886   5.593
  105OSM   C12S10638   5.820   5.053   5.468
  105OSM   H12S10639   5.907   5.109   5.508
  105OSM   H12T10640   5.742   5.128   5.444
  105OSM   C13S10641   5.867   4.977   5.336
  105OSM   H13S10642   5.787   4.900   5.326
  105OSM   H13T10643   5.965   4.931   5.363
  105OSM   C14S10644   5.887   5.050   5.200
  105OSM   H14S10645   5.926   4.978   5.125
  105OSM   H14T10646   5.961   5.127   5.231
  105OSM   C15S10647   5.764   5.126   5.151
  105OSM   H15S10648   5.721   5.202   5.220
  105OSM   H15T10649   5.687   5.050   5.127
  105OSM   C16S10650   5.807   5.204   5.021
  105OSM   H16S10651   5.882   5.284   5.041
  105OSM   H16T10652   5.712   5.256   4.994
  105OSM   C17S10653   5.848   5.109   4.901
  105OSM   H17S10654   5.781   5.021   4.899
  105OSM   H17T10655   5.956   5.081   4.906
  105OSM   C18S10656   5.821   5.186   4.777
  105OSM   H18S10657   5.912   5.247   4.756
  105OSM   H18T10658   5.739   5.260   4.787
  105OSM   H18U10659   5.815   5.134   4.679
  105OSM    C1F10660   5.371   4.670   6.531
  105OSM     OF10661   5.299   4.736   6.603
  105OSM    C2F10662   5.327   4.546   6.454
  105OSM    H2F10663   5.238   4.505   6.506
  105OSM    H2G10664   5.409   4.473   6.472
  105OSM    C3F10665   5.330   4.571   6.302
  105OSM    H3F10666   5.428   4.617   6.276
  105OSM    H3G10667   5.264   4.652   6.266
  105OSM    C4F10668   5.298   4.447   6.216
  105OSM    H4F10669   5.376   4.371   6.238
  105OSM    H4G10670   5.318   4.471   6.109
  105OSM    C5F10671   5.156   4.397   6.224
  105OSM    H5F10672   5.122   4.399   6.329
  105OSM    H5G10673   5.166   4.292   6.190
  105OSM    C6F10674   5.060   4.468   6.136
  105OSM    H6F10675   5.100   4.470   6.033
  105OSM    H6G10676   5.044   4.572   6.171
  105OSM    C7F10677   4.924   4.394   6.117
  105OSM    H7F10678   4.861   4.402   6.208
  105OSM    H7G10679   4.960   4.289   6.116
  105OSM    C8F10680   4.861   4.425   5.983
  105OSM    H8F10681   4.920   4.393   5.895
  105OSM    H8G10682   4.858   4.536   5.979
  105OSM    C9F10683   4.718   4.374   5.983
  105OSM    H9F10684   4.639   4.439   6.025
  105OSM   C10F10685   4.666   4.260   5.944
  105OSM   H10F10686   4.562   4.226   5.953
  105OSM   C11F10687   4.760   4.153   5.891
  105OSM   H11F10688   4.714   4.054   5.913
  105OSM   H11G10689   4.861   4.153   5.936
  105OSM   C12F10690   4.775   4.165   5.736
  105OSM   H12F10691   4.818   4.261   5.700
  105OSM   H12G10692   4.669   4.171   5.704
  105OSM   C13F10693   4.842   4.042   5.671
  105OSM   H13F10694   4.792   3.944   5.690
  105OSM   H13G10695   4.937   4.034   5.728
  105OSM   C14F10696   4.895   4.065   5.532
  105OSM   H14F10697   4.932   4.169   5.517
  105OSM   H14G10698   4.815   4.056   5.455
  105OSM   C15F10699   5.014   3.972   5.478
  105OSM   H15F10700   4.964   3.874   5.490
  105OSM   H15G10701   5.106   3.990   5.536
  105OSM   C16F10702   5.048   3.999   5.324
  105OSM   H16F10703   5.150   4.042   5.335
  105OSM   H16G10704   4.989   4.086   5.289
  105OSM   C17F10705   5.057   3.874   5.248
  105OSM   H17F10706   4.980   3.799   5.275
  105OSM   H17G10707   5.155   3.830   5.278
  105OSM   C18F10708   5.052   3.893   5.093
  105OSM   H18F10709   4.947   3.926   5.074
  105OSM   H18G10710   5.058   3.793   5.045
  105OSM   H18H10711   5.134   3.961   5.061
  106OSM      N10712   2.712   1.363   6.652
  106OSM    C1510713   2.775   1.388   6.790
  106OSM   H15A10714   2.861   1.323   6.806
  106OSM   H15B10715   2.703   1.362   6.866
  106OSM   H15C10716   2.809   1.489   6.808
  106OSM    C1410717   2.646   1.223   6.666
  106OSM   H14A10718   2.720   1.144   6.678
  106OSM   H14B10719   2.575   1.209   6.586
  106OSM   H14C10720   2.583   1.220   6.753
  106OSM    C1310721   2.600   1.464   6.625
  106OSM   H13A10722   2.547   1.458   6.530
  106OSM   H13B10723   2.644   1.562   6.620
  106OSM   H13C10724   2.525   1.467   6.702
  106OSM    C1210725   2.819   1.371   6.545
  106OSM   H12A10726   2.791   1.309   6.461
  106OSM   H12B10727   2.909   1.317   6.573
  106OSM    C1110728   2.861   1.508   6.491
  106OSM   H11A10729   2.783   1.568   6.441
  106OSM   H11B10730   2.932   1.501   6.405
  106OSM      P10731   3.060   1.587   6.638
  106OSM    O1310732   3.072   1.700   6.736
  106OSM    O1410733   3.086   1.450   6.682
  106OSM    O1110734   3.144   1.620   6.515
  106OSM    O1210735   2.914   1.590   6.593
  106OSM    C1S10736   3.117   1.736   6.434
  106OSM    H1S10737   3.132   1.827   6.496
  106OSM    H1T10738   3.013   1.747   6.399
  106OSM     NF10739   3.218   1.868   6.248
  106OSM    HNF10740   3.157   1.881   6.170
  106OSM    C2S10741   3.214   1.736   6.308
  106OSM    H2S10742   3.312   1.706   6.352
  106OSM    C3S10743   3.161   1.628   6.215
  106OSM    H3S10744   3.052   1.643   6.204
  106OSM     O310745   3.168   1.495   6.274
  106OSM    HO310746   3.191   1.512   6.366
  106OSM    C4S10747   3.216   1.635   6.075
  106OSM    H4S10748   3.151   1.676   5.996
  106OSM    C5S10749   3.331   1.602   6.022
  106OSM    H5S10750   3.407   1.550   6.082
  106OSM    C6S10751   3.366   1.613   5.878
  106OSM    H6S10752   3.371   1.507   5.844
  106OSM    H6T10753   3.464   1.664   5.866
  106OSM    C7S10754   3.281   1.684   5.774
  106OSM    H7S10755   3.281   1.790   5.809
  106OSM    H7T10756   3.174   1.653   5.779
  106OSM    C8S10757   3.325   1.675   5.631
  106OSM    H8S10758   3.240   1.699   5.564
  106OSM    H8T10759   3.365   1.573   5.612
  106OSM    C9S10760   3.439   1.773   5.603
  106OSM    H9S10761   3.535   1.738   5.647
  106OSM    H9T10762   3.419   1.877   5.636
  106OSM   C10S10763   3.479   1.777   5.456
  106OSM   H10S10764   3.573   1.835   5.447
  106OSM   H10T10765   3.402   1.840   5.407
  106OSM   C11S10766   3.505   1.634   5.401
  106OSM   H11S10767   3.405   1.587   5.390
  106OSM   H11T10768   3.572   1.584   5.475
  106OSM   C12S10769   3.568   1.630   5.263
  106OSM   H12S10770   3.592   1.525   5.234
  106OSM   H12T10771   3.662   1.688   5.270
  106OSM   C13S10772   3.495   1.695   5.144
  106OSM   H13S10773   3.462   1.799   5.167
  106OSM   H13T10774   3.408   1.631   5.118
  106OSM   C14S10775   3.596   1.725   5.021
  106OSM   H14S10776   3.685   1.783   5.055
  106OSM   H14T10777   3.541   1.793   4.953
  106OSM   C15S10778   3.648   1.597   4.956
  106OSM   H15S10779   3.570   1.531   4.912
  106OSM   H15T10780   3.708   1.540   5.030
  106OSM   C16S10781   3.750   1.621   4.839
  106OSM   H16S10782   3.827   1.692   4.875
  106OSM   H16T10783   3.700   1.667   4.751
  106OSM   C17S10784   3.833   1.494   4.812
  106OSM   H17S10785   3.755   1.421   4.783
  106OSM   H17T10786   3.882   1.459   4.905
  106OSM   C18S10787   3.938   1.504   4.698
  106OSM   H18S10788   3.884   1.551   4.612
  106OSM   H18T10789   3.967   1.405   4.658
  106OSM   H18U10790   4.019   1.564   4.744
  106OSM    C1F10791   3.287   1.968   6.306
  106OSM     OF10792   3.366   1.938   6.397
  106OSM    C2F10793   3.273   2.100   6.234
  106OSM    H2F10794   3.166   2.129   6.243
  106OSM    H2G10795   3.293   2.085   6.125
  106OSM    C3F10796   3.356   2.209   6.287
  106OSM    H3F10797   3.458   2.165   6.292
  106OSM    H3G10798   3.332   2.234   6.393
  106OSM    C4F10799   3.361   2.332   6.198
  106OSM    H4F10800   3.364   2.425   6.259
  106OSM    H4G10801   3.274   2.333   6.129
  106OSM    C5F10802   3.482   2.332   6.102
  106OSM    H5F10803   3.468   2.259   6.019
  106OSM    H5G10804   3.570   2.308   6.166
  106OSM    C6F10805   3.522   2.468   6.033
  106OSM    H6F10806   3.547   2.542   6.112
  106OSM    H6G10807   3.430   2.504   5.981
  106OSM    C7F10808   3.636   2.446   5.938
  106OSM    H7F10809   3.613   2.360   5.872
  106OSM    H7G10810   3.727   2.422   5.996
  106OSM    C8F10811   3.676   2.570   5.852
  106OSM    H8F10812   3.762   2.544   5.785
  106OSM    H8G10813   3.733   2.640   5.917
  106OSM    C9F10814   3.561   2.632   5.776
  106OSM    H9F10815   3.503   2.697   5.843
  106OSM   C10F10816   3.518   2.604   5.650
  106OSM   H10F10817   3.443   2.671   5.605
  106OSM   C11F10818   3.601   2.528   5.551
  106OSM   H11F10819   3.546   2.468   5.475
  106OSM   H11G10820   3.676   2.465   5.603
  106OSM   C12F10821   3.689   2.627   5.469
  106OSM   H12F10822   3.750   2.703   5.523
  106OSM   H12G10823   3.616   2.685   5.409
  106OSM   C13F10824   3.771   2.547   5.372
  106OSM   H13F10825   3.700   2.486   5.312
  106OSM   H13G10826   3.843   2.484   5.428
  106OSM   C14F10827   3.841   2.640   5.263
  106OSM   H14F10828   3.928   2.589   5.217
  106OSM   H14G10829   3.892   2.718   5.323
  106OSM   C15F10830   3.748   2.711   5.162
  106OSM   H15F10831   3.667   2.775   5.203
  106OSM   H15G10832   3.701   2.630   5.102
  106OSM   C16F10833   3.821   2.799   5.060
  106OSM   H16F10834   3.896   2.856   5.120
  106OSM   H16G10835   3.746   2.863   5.009
  106OSM   C17F10836   3.899   2.714   4.965
  106OSM   H17F10837   3.946   2.637   5.031
  106OSM   H17G10838   3.983   2.767   4.915
  106OSM   C18F10839   3.825   2.644   4.848
  106OSM   H18F10840   3.767   2.710   4.780
  106OSM   H18G10841   3.758   2.563   4.885
  106OSM   H18H10842   3.895   2.593   4.779
  107OSM      N10843   4.468   6.500   6.481
  107OSM    C1510844   4.507   6.595   6.588
  107OSM   H15A10845   4.510   6.700   6.564
  107OSM   H15B10846   4.612   6.582   6.610
  107OSM   H15C10847   4.452   6.584   6.681
  107OSM    C1410848   4.568   6.507   6.367
  107OSM   H14A10849   4.577   6.607   6.327
  107OSM   H14B10850   4.539   6.444   6.285
  107OSM   H14C10851   4.669   6.480   6.393
  107OSM    C1310852   4.477   6.359   6.534
  107OSM   H13A10853   4.418   6.289   6.477
  107OSM   H13B10854   4.436   6.353   6.634
  107OSM   H13C10855   4.578   6.323   6.548
  107OSM    C1210856   4.321   6.529   6.444
  107OSM   H12A10857   4.258   6.502   6.528
  107OSM   H12B10858   4.287   6.463   6.365
  107OSM    C1110859   4.276   6.669   6.400
  107OSM   H11A10860   4.181   6.658   6.343
  107OSM   H11B10861   4.353   6.705   6.329
  107OSM      P10862   4.138   6.756   6.602
  107OSM    O1310863   4.141   6.621   6.661
  107OSM    O1410864   4.149   6.873   6.691
  107OSM    O1110865   4.012   6.765   6.499
  107OSM    O1210866   4.264   6.768   6.510
  107OSM    C1S10867   4.006   6.881   6.411
  107OSM    H1S10868   4.095   6.946   6.422
  107OSM    H1T10869   3.912   6.937   6.430
  107OSM     NF10870   3.989   6.944   6.151
  107OSM    HNF10871   3.901   6.969   6.111
  107OSM    C2S10872   3.985   6.837   6.253
  107OSM    H2S10873   4.073   6.774   6.229
  107OSM    C3S10874   3.866   6.740   6.238
  107OSM    H3S10875   3.774   6.802   6.226
  107OSM     O310876   3.852   6.632   6.333
  107OSM    HO310877   3.914   6.657   6.402
  107OSM    C4S10878   3.881   6.672   6.105
  107OSM    H4S10879   3.976   6.621   6.082
  107OSM    C5S10880   3.785   6.686   6.017
  107OSM    H5S10881   3.693   6.740   6.044
  107OSM    C6S10882   3.793   6.641   5.872
  107OSM    H6S10883   3.735   6.546   5.861
  107OSM    H6T10884   3.893   6.604   5.841
  107OSM    C7S10885   3.746   6.737   5.755
  107OSM    H7S10886   3.809   6.828   5.762
  107OSM    H7T10887   3.642   6.773   5.769
  107OSM    C8S10888   3.766   6.672   5.615
  107OSM    H8S10889   3.697   6.585   5.624
  107OSM    H8T10890   3.871   6.637   5.605
  107OSM    C9S10891   3.728   6.757   5.497
  107OSM    H9S10892   3.770   6.859   5.500
  107OSM    H9T10893   3.617   6.763   5.494
  107OSM   C10S10894   3.782   6.707   5.366
  107OSM   H10S10895   3.757   6.599   5.364
  107OSM   H10T10896   3.893   6.713   5.362
  107OSM   C11S10897   3.720   6.770   5.243
  107OSM   H11S10898   3.775   6.865   5.231
  107OSM   H11T10899   3.609   6.773   5.243
  107OSM   C12S10900   3.757   6.689   5.111
  107OSM   H12S10901   3.697   6.595   5.121
  107OSM   H12T10902   3.865   6.664   5.104
  107OSM   C13S10903   3.716   6.746   4.973
  107OSM   H13S10904   3.775   6.837   4.948
  107OSM   H13T10905   3.610   6.778   4.960
  107OSM   C14S10906   3.737   6.644   4.857
  107OSM   H14S10907   3.697   6.544   4.882
  107OSM   H14T10908   3.839   6.638   4.812
  107OSM   C15S10909   3.658   6.697   4.736
  107OSM   H15S10910   3.691   6.794   4.693
  107OSM   H15T10911   3.554   6.712   4.772
  107OSM   C16S10912   3.647   6.599   4.615
  107OSM   H16S10913   3.619   6.495   4.645
  107OSM   H16T10914   3.749   6.585   4.573
  107OSM   C17S10915   3.551   6.648   4.510
  107OSM   H17S10916   3.578   6.751   4.482
  107OSM   H17T10917   3.452   6.658   4.561
  107OSM   C18S10918   3.520   6.541   4.412
  107OSM   H18S10919   3.476   6.593   4.324
  107OSM   H18T10920   3.454   6.457   4.442
  107OSM   H18U10921   3.614   6.497   4.372
  107OSM    C1F10922   4.095   7.024   6.141
  107OSM     OF10923   4.204   6.991   6.188
  107OSM    C2F10924   4.083   7.162   6.083
  107OSM    H2F10925   4.117   7.231   6.163
  107OSM    H2G10926   3.979   7.177   6.047
  107OSM    C3F10927   4.177   7.175   5.956
  107OSM    H3F10928   4.278   7.160   6.000
  107OSM    H3G10929   4.156   7.277   5.916
  107OSM    C4F10930   4.134   7.079   5.845
  107OSM    H4F10931   4.152   6.975   5.879
  107OSM    H4G10932   4.196   7.092   5.754
  107OSM    C5F10933   3.989   7.088   5.795
  107OSM    H5F10934   3.961   7.196   5.796
  107OSM    H5G10935   3.920   7.041   5.868
  107OSM    C6F10936   3.974   7.022   5.651
  107OSM    H6F10937   3.867   7.043   5.629
  107OSM    H6G10938   3.988   6.912   5.659
  107OSM    C7F10939   4.062   7.084   5.538
  107OSM    H7F10940   4.167   7.048   5.545
  107OSM    H7G10941   4.067   7.194   5.551
  107OSM    C8F10942   4.010   7.059   5.396
  107OSM    H8F10943   3.961   6.959   5.392
  107OSM    H8G10944   4.098   7.068   5.329
  107OSM    C9F10945   3.906   7.171   5.357
  107OSM    H9F10946   3.841   7.197   5.442
  107OSM   C10F10947   3.882   7.237   5.240
  107OSM   H10F10948   3.805   7.315   5.246
  107OSM   C11F10949   3.954   7.204   5.108
  107OSM   H11F10950   4.039   7.136   5.131
  107OSM   H11G10951   3.982   7.303   5.066
  107OSM   C12F10952   3.863   7.127   5.008
  107OSM   H12F10953   3.785   7.202   4.985
  107OSM   H12G10954   3.811   7.046   5.063
  107OSM   C13F10955   3.941   7.074   4.884
  107OSM   H13F10956   3.989   6.976   4.905
  107OSM   H13G10957   4.026   7.143   4.869
  107OSM   C14F10958   3.856   7.070   4.755
  107OSM   H14F10959   3.797   7.161   4.733
  107OSM   H14G10960   3.776   6.998   4.782
  107OSM   C15F10961   3.932   7.041   4.626
  107OSM   H15F10962   4.008   6.961   4.636
  107OSM   H15G10963   3.992   7.132   4.603
  107OSM   C16F10964   3.844   7.005   4.503
  107OSM   H16F10965   3.775   7.078   4.456
  107OSM   H16G10966   3.780   6.923   4.543
  107OSM   C17F10967   3.933   6.948   4.388
  107OSM   H17F10968   4.002   6.870   4.428
  107OSM   H17G10969   3.987   7.033   4.343
  107OSM   C18F10970   3.841   6.892   4.285
  107OSM   H18F10971   3.782   6.977   4.245
  107OSM   H18G10972   3.781   6.804   4.316
  107OSM   H18H10973   3.892   6.857   4.193
  108OSM      N10974   6.707   0.347   6.484
  108OSM    C1510975   6.805   0.442   6.531
  108OSM   H15A10976   6.804   0.465   6.636
  108OSM   H15B10977   6.806   0.535   6.475
  108OSM   H15C10978   6.906   0.411   6.508
  108OSM    C1410979   6.752   0.304   6.347
  108OSM   H14A10980   6.769   0.386   6.279
  108OSM   H14B10981   6.681   0.249   6.287
  108OSM   H14C10982   6.850   0.260   6.348
  108OSM    C1310983   6.722   0.223   6.564
  108OSM   H13A10984   6.709   0.252   6.668
  108OSM   H13B10985   6.824   0.190   6.562
  108OSM   H13C10986   6.650   0.145   6.545
  108OSM    C1210987   6.571   0.402   6.484
  108OSM   H12A10988   6.547   0.439   6.582
  108OSM   H12B10989   6.497   0.328   6.458
  108OSM    C1110990   6.543   0.517   6.381
  108OSM   H11A10991   6.434   0.539   6.375
  108OSM   H11B10992   6.565   0.498   6.274
  108OSM      P10993   6.583   0.713   6.537
  108OSM    O1310994   6.520   0.636   6.646
  108OSM    O1410995   6.702   0.794   6.580
  108OSM    O1110996   6.482   0.818   6.468
  108OSM    O1210997   6.624   0.624   6.421
  108OSM    C1S10998   6.532   0.929   6.392
  108OSM    H1S10999   6.643   0.922   6.383
  108OSM    H1T11000   6.522   1.022   6.453
  108OSM     NF11001   6.582   0.997   6.161
  108OSM    HNF11002   6.590   1.096   6.162
  108OSM    C2S11003   6.489   0.933   6.246
  108OSM    H2S11004   6.477   0.824   6.227
  108OSM    C3S11005   6.342   0.990   6.246
  108OSM    H3S11006   6.353   1.096   6.278
  108OSM     O311007   6.249   0.931   6.344
  108OSM    HO311008   6.315   0.891   6.400
  108OSM    C4S11009   6.288   0.993   6.108
  108OSM    H4S11010   6.302   1.090   6.058
  108OSM    C5S11011   6.231   0.897   6.036
  108OSM    H5S11012   6.224   0.803   6.093
  108OSM    C6S11013   6.183   0.894   5.898
  108OSM    H6S11014   6.263   0.868   5.825
  108OSM    H6T11015   6.139   0.993   5.873
  108OSM    C7S11016   6.070   0.788   5.894
  108OSM    H7S11017   5.990   0.824   5.961
  108OSM    H7T11018   6.093   0.686   5.933
  108OSM    C8S11019   6.011   0.769   5.751
  108OSM    H8S11020   5.944   0.856   5.731
  108OSM    H8T11021   5.931   0.693   5.760
  108OSM    C9S11022   6.120   0.751   5.649
  108OSM    H9S11023   6.197   0.675   5.672
  108OSM    H9T11024   6.185   0.841   5.648
  108OSM   C10S11025   6.062   0.721   5.506
  108OSM   H10S11026   5.994   0.633   5.512
  108OSM   H10T11027   6.142   0.684   5.437
  108OSM   C11S11028   5.980   0.833   5.441
  108OSM   H11S11029   6.043   0.924   5.440
  108OSM   H11T11030   5.889   0.852   5.501
  108OSM   C12S11031   5.923   0.803   5.297
  108OSM   H12S11032   5.863   0.892   5.270
  108OSM   H12T11033   5.856   0.715   5.304
  108OSM   C13S11034   6.035   0.804   5.190
  108OSM   H13S11035   6.092   0.709   5.199
  108OSM   H13T11036   6.101   0.886   5.224
  108OSM   C14S11037   5.990   0.817   5.049
  108OSM   H14S11038   5.930   0.909   5.032
  108OSM   H14T11039   5.930   0.732   5.012
  108OSM   C15S11040   6.110   0.813   4.948
  108OSM   H15S11041   6.137   0.707   4.932
  108OSM   H15T11042   6.194   0.876   4.985
  108OSM   C16S11043   6.073   0.884   4.813
  108OSM   H16S11044   6.017   0.979   4.828
  108OSM   H16T11045   6.009   0.806   4.767
  108OSM   C17S11046   6.192   0.909   4.727
  108OSM   H17S11047   6.156   0.959   4.635
  108OSM   H17T11048   6.256   0.820   4.712
  108OSM   C18S11049   6.280   1.016   4.787
  108OSM   H18S11050   6.353   1.059   4.715
  108OSM   H18T11051   6.338   0.979   4.875
  108OSM   H18U11052   6.214   1.101   4.817
  108OSM    C1F11053   6.675   0.929   6.089
  108OSM     OF11054   6.674   0.805   6.098
  108OSM    C2F11055   6.773   1.001   6.009
  108OSM    H2F11056   6.859   1.013   6.079
  108OSM    H2G11057   6.740   1.100   5.970
  108OSM    C3F11058   6.811   0.920   5.883
  108OSM    H3F11059   6.725   0.932   5.813
  108OSM    H3G11060   6.827   0.812   5.902
  108OSM    C4F11061   6.932   0.986   5.813
  108OSM    H4F11062   7.007   1.030   5.883
  108OSM    H4G11063   6.883   1.071   5.762
  108OSM    C5F11064   6.997   0.886   5.715
  108OSM    H5F11065   7.071   0.939   5.651
  108OSM    H5G11066   6.926   0.858   5.634
  108OSM    C6F11067   7.049   0.759   5.778
  108OSM    H6F11068   6.977   0.692   5.831
  108OSM    H6G11069   7.114   0.795   5.860
  108OSM    C7F11070   7.128   0.672   5.680
  108OSM    H7F11071   7.064   0.619   5.607
  108OSM    H7G11072   7.166   0.583   5.735
  108OSM    C8F11073   7.243   0.751   5.610
  108OSM    H8F11074   7.282   0.816   5.691
  108OSM    H8G11075   7.195   0.812   5.531
  108OSM    C9F11076   7.334   0.656   5.541
  108OSM    H9F11077   7.384   0.602   5.623
  108OSM   C10F11078   7.380   0.651   5.411
  108OSM   H10F11079   7.435   0.562   5.377
  108OSM   C11F11080   7.340   0.742   5.304
  108OSM   H11F11081   7.278   0.820   5.352
  108OSM   H11G11082   7.298   0.680   5.221
  108OSM   C12F11083   7.462   0.824   5.251
  108OSM   H12F11084   7.555   0.765   5.260
  108OSM   H12G11085   7.476   0.911   5.319
  108OSM   C13F11086   7.447   0.886   5.112
  108OSM   H13F11087   7.376   0.971   5.120
  108OSM   H13G11088   7.418   0.810   5.037
  108OSM   C14F11089   7.586   0.934   5.066
  108OSM   H14F11090   7.661   0.856   5.045
  108OSM   H14G11091   7.628   0.975   5.160
  108OSM   C15F11092   7.585   1.030   4.946
  108OSM   H15F11093   7.682   1.084   4.951
  108OSM   H15G11094   7.517   1.112   4.978
  108OSM   C16F11095   7.554   0.964   4.805
  108OSM   H16F11096   7.496   1.034   4.740
  108OSM   H16G11097   7.498   0.871   4.826
  108OSM   C17F11098   7.682   0.947   4.721
  108OSM   H17F11099   7.734   1.046   4.716
  108OSM   H17G11100   7.655   0.910   4.620
  108OSM   C18F11101   7.787   0.841   4.767
  108OSM   H18F11102   7.792   0.829   4.877
  108OSM   H18G11103   7.889   0.852   4.724
  108OSM   H18H11104   7.752   0.739   4.743
  109OSM      N11105   2.814   2.372   6.736
  109OSM    C1511106   2.850   2.230   6.768
  109OSM   H15A11107   2.772   2.158   6.788
  109OSM   H15B11108   2.916   2.229   6.853
  109OSM   H15C11109   2.907   2.190   6.685
  109OSM    C1411110   2.724   2.425   6.840
  109OSM   H14A11111   2.636   2.367   6.861
  109OSM   H14B11112   2.696   2.529   6.833
  109OSM   H14C11113   2.778   2.423   6.934
  109OSM    C1311114   2.942   2.458   6.743
  109OSM   H13A11115   2.987   2.463   6.841
  109OSM   H13B11116   2.928   2.555   6.698
  109OSM   H13C11117   3.024   2.408   6.694
  109OSM    C1211118   2.740   2.379   6.604
  109OSM   H12A11119   2.692   2.476   6.595
  109OSM   H12B11120   2.653   2.316   6.610
  109OSM    C1111121   2.805   2.341   6.472
  109OSM   H11A11122   2.891   2.411   6.460
  109OSM   H11B11123   2.740   2.356   6.384
  109OSM      P11124   2.763   2.092   6.455
  109OSM    O1311125   2.813   1.977   6.534
  109OSM    O1411126   2.626   2.134   6.482
  109OSM    O1111127   2.776   2.055   6.304
  109OSM    O1211128   2.863   2.210   6.475
  109OSM    C1S11129   2.881   2.107   6.218
  109OSM    H1S11130   2.967   2.038   6.234
  109OSM    H1T11131   2.910   2.213   6.237
  109OSM     NF11132   2.943   2.147   5.973
  109OSM    HNF11133   2.925   2.240   5.944
  109OSM    C2S11134   2.843   2.096   6.067
  109OSM    H2S11135   2.827   1.990   6.038
  109OSM    C3S11136   2.703   2.164   6.049
  109OSM    H3S11137   2.694   2.256   6.112
  109OSM     O311138   2.596   2.078   6.082
  109OSM    HO311139   2.630   2.015   6.145
  109OSM    C4S11140   2.677   2.211   5.907
  109OSM    H4S11141   2.654   2.129   5.837
  109OSM    C5S11142   2.684   2.338   5.856
  109OSM    H5S11143   2.738   2.413   5.915
  109OSM    C6S11144   2.660   2.363   5.713
  109OSM    H6S11145   2.679   2.471   5.695
  109OSM    H6T11146   2.562   2.323   5.678
  109OSM    C7S11147   2.770   2.293   5.621
  109OSM    H7S11148   2.764   2.184   5.641
  109OSM    H7T11149   2.874   2.318   5.650
  109OSM    C8S11150   2.745   2.297   5.467
  109OSM    H8S11151   2.744   2.400   5.425
  109OSM    H8T11152   2.644   2.256   5.442
  109OSM    C9S11153   2.841   2.209   5.395
  109OSM    H9S11154   2.855   2.117   5.456
  109OSM    H9T11155   2.942   2.251   5.378
  109OSM   C10S11156   2.793   2.154   5.260
  109OSM   H10S11157   2.687   2.124   5.271
  109OSM   H10T11158   2.851   2.062   5.236
  109OSM   C11S11159   2.800   2.247   5.139
  109OSM   H11S11160   2.904   2.264   5.105
  109OSM   H11T11161   2.750   2.343   5.165
  109OSM   C12S11162   2.719   2.191   5.015
  109OSM   H12S11163   2.612   2.174   5.039
  109OSM   H12T11164   2.769   2.100   4.975
  109OSM   C13S11165   2.728   2.284   4.889
  109OSM   H13S11166   2.830   2.323   4.871
  109OSM   H13T11167   2.651   2.363   4.904
  109OSM   C14S11168   2.682   2.222   4.754
  109OSM   H14S11169   2.574   2.197   4.757
  109OSM   H14T11170   2.732   2.125   4.731
  109OSM   C15S11171   2.721   2.309   4.636
  109OSM   H15S11172   2.825   2.347   4.647
  109OSM   H15T11173   2.653   2.394   4.614
  109OSM   C16S11174   2.732   2.218   4.508
  109OSM   H16S11175   2.645   2.150   4.490
  109OSM   H16T11176   2.815   2.149   4.534
  109OSM   C17S11177   2.771   2.286   4.372
  109OSM   H17S11178   2.779   2.215   4.287
  109OSM   H17T11179   2.864   2.343   4.391
  109OSM   C18S11180   2.673   2.390   4.327
  109OSM   H18S11181   2.699   2.424   4.225
  109OSM   H18T11182   2.665   2.474   4.399
  109OSM   H18U11183   2.576   2.338   4.307
  109OSM    C1F11184   3.057   2.080   5.945
  109OSM     OF11185   3.080   1.964   5.983
  109OSM    C2F11186   3.157   2.136   5.867
  109OSM    H2F11187   3.252   2.107   5.916
  109OSM    H2G11188   3.154   2.247   5.865
  109OSM    C3F11189   3.150   2.074   5.722
  109OSM    H3F11190   3.056   2.095   5.667
  109OSM    H3G11191   3.169   1.965   5.726
  109OSM    C4F11192   3.263   2.142   5.642
  109OSM    H4F11193   3.359   2.093   5.670
  109OSM    H4G11194   3.283   2.247   5.670
  109OSM    C5F11195   3.247   2.129   5.490
  109OSM    H5F11196   3.167   2.198   5.455
  109OSM    H5G11197   3.217   2.026   5.462
  109OSM    C6F11198   3.361   2.166   5.412
  109OSM    H6F11199   3.452   2.110   5.443
  109OSM    H6G11200   3.375   2.274   5.429
  109OSM    C7F11201   3.350   2.145   5.257
  109OSM    H7F11202   3.257   2.192   5.219
  109OSM    H7G11203   3.340   2.036   5.240
  109OSM    C8F11204   3.478   2.185   5.188
  109OSM    H8F11205   3.563   2.131   5.235
  109OSM    H8G11206   3.487   2.296   5.196
  109OSM    C9F11207   3.474   2.145   5.049
  109OSM    H9F11208   3.452   2.039   5.029
  109OSM   C10F11209   3.518   2.221   4.945
  109OSM   H10F11210   3.500   2.201   4.838
  109OSM   C11F11211   3.572   2.361   4.961
  109OSM   H11F11212   3.671   2.368   4.910
  109OSM   H11G11213   3.581   2.396   5.066
  109OSM   C12F11214   3.478   2.458   4.884
  109OSM   H12F11215   3.490   2.553   4.941
  109OSM   H12G11216   3.371   2.430   4.896
  109OSM   C13F11217   3.522   2.458   4.732
  109OSM   H13F11218   3.511   2.355   4.691
  109OSM   H13G11219   3.631   2.475   4.722
  109OSM   C14F11220   3.436   2.549   4.649
  109OSM   H14F11221   3.458   2.654   4.679
  109OSM   H14G11222   3.326   2.538   4.663
  109OSM   C15F11223   3.456   2.548   4.498
  109OSM   H15F11224   3.561   2.557   4.464
  109OSM   H15G11225   3.395   2.617   4.437
  109OSM   C16F11226   3.423   2.421   4.427
  109OSM   H16F11227   3.317   2.399   4.450
  109OSM   H16G11228   3.486   2.337   4.463
  109OSM   C17F11229   3.439   2.426   4.270
  109OSM   H17F11230   3.431   2.536   4.256
  109OSM   H17G11231   3.356   2.371   4.221
  109OSM   C18F11232   3.568   2.384   4.225
  109OSM   H18F11233   3.580   2.274   4.234
  109OSM   H18G11234   3.652   2.423   4.286
  109OSM   H18H11235   3.595   2.410   4.120
  110OSM      N11236   5.362   6.275   6.792
  110OSM    C1511237   5.408   6.170   6.894
  110OSM   H15A11238   5.514   6.153   6.903
  110OSM   H15B11239   5.374   6.071   6.871
  110OSM   H15C11240   5.363   6.193   6.989
  110OSM    C1411241   5.216   6.308   6.802
  110OSM   H14A11242   5.199   6.388   6.732
  110OSM   H14B11243   5.189   6.335   6.903
  110OSM   H14C11244   5.151   6.231   6.763
  110OSM    C1311245   5.437   6.404   6.819
  110OSM   H13A11246   5.543   6.388   6.819
  110OSM   H13B11247   5.411   6.441   6.917
  110OSM   H13C11248   5.415   6.477   6.742
  110OSM    C1211249   5.405   6.232   6.651
  110OSM   H12A11250   5.378   6.127   6.643
  110OSM   H12B11251   5.512   6.244   6.646
  110OSM    C1111252   5.339   6.313   6.532
  110OSM   H11A11253   5.228   6.313   6.539
  110OSM   H11B11254   5.367   6.248   6.446
  110OSM      P11255   5.508   6.506   6.468
  110OSM    O1311256   5.516   6.650   6.508
  110OSM    O1411257   5.624   6.430   6.513
  110OSM    O1111258   5.493   6.489   6.314
  110OSM    O1211259   5.379   6.455   6.529
  110OSM    C1S11260   5.368   6.501   6.244
  110OSM    H1S11261   5.347   6.609   6.227
  110OSM    H1T11262   5.281   6.459   6.298
  110OSM     NF11263   5.248   6.449   6.038
  110OSM    HNF11264   5.227   6.369   5.981
  110OSM    C2S11265   5.371   6.431   6.111
  110OSM    H2S11266   5.451   6.490   6.060
  110OSM    C3S11267   5.420   6.286   6.120
  110OSM    H3S11268   5.349   6.236   6.189
  110OSM     O311269   5.549   6.264   6.180
  110OSM    HO311270   5.564   6.333   6.245
  110OSM    C4S11271   5.400   6.212   5.988
  110OSM    H4S11272   5.313   6.145   5.980
  110OSM    C5S11273   5.472   6.222   5.873
  110OSM    H5S11274   5.546   6.303   5.872
  110OSM    C6S11275   5.441   6.170   5.733
  110OSM    H6S11276   5.368   6.087   5.741
  110OSM    H6T11277   5.534   6.133   5.685
  110OSM    C7S11278   5.368   6.286   5.656
  110OSM    H7S11279   5.436   6.373   5.647
  110OSM    H7T11280   5.283   6.314   5.720
  110OSM    C8S11281   5.300   6.243   5.523
  110OSM    H8S11282   5.272   6.338   5.472
  110OSM    H8T11283   5.209   6.183   5.546
  110OSM    C9S11284   5.399   6.168   5.431
  110OSM    H9S11285   5.418   6.066   5.473
  110OSM    H9T11286   5.489   6.232   5.421
  110OSM   C10S11287   5.349   6.142   5.291
  110OSM   H10S11288   5.327   6.236   5.237
  110OSM   H10T11289   5.258   6.079   5.295
  110OSM   C11S11290   5.454   6.057   5.209
  110OSM   H11S11291   5.486   5.962   5.258
  110OSM   H11T11292   5.539   6.127   5.194
  110OSM   C12S11293   5.407   6.031   5.072
  110OSM   H12S11294   5.371   6.127   5.030
  110OSM   H12T11295   5.326   5.955   5.063
  110OSM   C13S11296   5.517   5.979   4.977
  110OSM   H13S11297   5.546   5.880   5.018
  110OSM   H13T11298   5.601   6.052   4.975
  110OSM   C14S11299   5.474   5.955   4.833
  110OSM   H14S11300   5.424   5.856   4.824
  110OSM   H14T11301   5.557   5.961   4.759
  110OSM   C15S11302   5.384   6.074   4.783
  110OSM   H15S11303   5.450   6.160   4.804
  110OSM   H15T11304   5.282   6.066   4.827
  110OSM   C16S11305   5.352   6.061   4.629
  110OSM   H16S11306   5.267   6.119   4.588
  110OSM   H16T11307   5.317   5.956   4.622
  110OSM   C17S11308   5.472   6.089   4.534
  110OSM   H17S11309   5.550   6.014   4.558
  110OSM   H17T11310   5.521   6.186   4.553
  110OSM   C18S11311   5.440   6.080   4.388
  110OSM   H18S11312   5.397   5.981   4.363
  110OSM   H18T11313   5.537   6.093   4.335
  110OSM   H18U11314   5.372   6.165   4.364
  110OSM    C1F11315   5.164   6.553   6.022
  110OSM     OF11316   5.179   6.654   6.087
  110OSM    C2F11317   5.054   6.542   5.914
  110OSM    H2F11318   4.955   6.511   5.952
  110OSM    H2G11319   5.079   6.466   5.837
  110OSM    C3F11320   5.040   6.679   5.842
  110OSM    H3F11321   5.139   6.716   5.807
  110OSM    H3G11322   5.008   6.751   5.920
  110OSM    C4F11323   4.947   6.685   5.724
  110OSM    H4F11324   4.930   6.790   5.693
  110OSM    H4G11325   4.848   6.651   5.761
  110OSM    C5F11326   5.007   6.604   5.606
  110OSM    H5F11327   5.025   6.503   5.648
  110OSM    H5G11328   5.105   6.633   5.560
  110OSM    C6F11329   4.915   6.583   5.484
  110OSM    H6F11330   4.814   6.556   5.521
  110OSM    H6G11331   4.960   6.503   5.422
  110OSM    C7F11332   4.898   6.717   5.410
  110OSM    H7F11333   4.967   6.724   5.324
  110OSM    H7G11334   4.908   6.801   5.482
  110OSM    C8F11335   4.754   6.727   5.348
  110OSM    H8F11336   4.684   6.708   5.432
  110OSM    H8G11337   4.733   6.651   5.270
  110OSM    C9F11338   4.728   6.864   5.290
  110OSM    H9F11339   4.718   6.945   5.363
  110OSM   C10F11340   4.732   6.890   5.158
  110OSM   H10F11341   4.701   6.989   5.121
  110OSM   C11F11342   4.766   6.794   5.047
  110OSM   H11F11343   4.807   6.700   5.090
  110OSM   H11G11344   4.848   6.828   4.981
  110OSM   C12F11345   4.654   6.748   4.943
  110OSM   H12F11346   4.618   6.837   4.888
  110OSM   H12G11347   4.567   6.722   5.007
  110OSM   C13F11348   4.705   6.639   4.847
  110OSM   H13F11349   4.611   6.599   4.805
  110OSM   H13G11350   4.758   6.551   4.889
  110OSM   C14F11351   4.775   6.688   4.720
  110OSM   H14F11352   4.881   6.698   4.752
  110OSM   H14G11353   4.741   6.792   4.699
  110OSM   C15F11354   4.767   6.586   4.605
  110OSM   H15F11355   4.665   6.544   4.588
  110OSM   H15G11356   4.827   6.494   4.622
  110OSM   C16F11357   4.823   6.642   4.476
  110OSM   H16F11358   4.926   6.677   4.496
  110OSM   H16G11359   4.780   6.743   4.457
  110OSM   C17F11360   4.836   6.540   4.366
  110OSM   H17F11361   4.736   6.502   4.339
  110OSM   H17G11362   4.901   6.454   4.391
  110OSM   C18F11363   4.903   6.598   4.238
  110OSM   H18F11364   4.997   6.651   4.261
  110OSM   H18G11365   4.826   6.667   4.198
  110OSM   H18H11366   4.928   6.512   4.171
  111OSM      N11367   1.247   4.657   6.842
  111OSM    C1511368   1.318   4.531   6.900
  111OSM   H15A11369   1.260   4.440   6.897
  111OSM   H15B11370   1.348   4.559   7.000
  111OSM   H15C11371   1.405   4.509   6.840
  111OSM    C1411372   1.120   4.673   6.917
  111OSM   H14A11373   1.067   4.761   6.883
  111OSM   H14B11374   1.128   4.693   7.023
  111OSM   H14C11375   1.053   4.588   6.918
  111OSM    C1311376   1.339   4.776   6.855
  111OSM   H13A11377   1.288   4.862   6.814
  111OSM   H13B11378   1.430   4.775   6.795
  111OSM   H13C11379   1.368   4.804   6.955
  111OSM    C1211380   1.215   4.619   6.700
  111OSM   H12A11381   1.160   4.526   6.697
  111OSM   H12B11382   1.308   4.579   6.662
  111OSM    C1111383   1.139   4.719   6.607
  111OSM   H11A11384   1.149   4.689   6.500
  111OSM   H11B11385   1.182   4.821   6.606
  111OSM      P11386   0.904   4.598   6.616
  111OSM    O1311387   0.968   4.465   6.627
  111OSM    O1411388   0.780   4.612   6.690
  111OSM    O1111389   0.875   4.627   6.464
  111OSM    O1211390   1.002   4.715   6.653
  111OSM    C1S11391   0.895   4.757   6.400
  111OSM    H1S11392   0.998   4.797   6.396
  111OSM    H1T11393   0.826   4.823   6.458
  111OSM     NF11394   0.866   4.893   6.199
  111OSM    HNF11395   0.784   4.949   6.201
  111OSM    C2S11396   0.845   4.755   6.253
  111OSM    H2S11397   0.913   4.689   6.196
  111OSM    C3S11398   0.693   4.707   6.251
  111OSM    H3S11399   0.641   4.778   6.319
  111OSM     O311400   0.664   4.588   6.324
  111OSM    HO311401   0.748   4.576   6.370
  111OSM    C4S11402   0.645   4.696   6.109
  111OSM    H4S11403   0.687   4.610   6.055
  111OSM    C5S11404   0.543   4.762   6.054
  111OSM    H5S11405   0.481   4.824   6.121
  111OSM    C6S11406   0.480   4.741   5.921
  111OSM    H6S11407   0.376   4.781   5.925
  111OSM    H6T11408   0.451   4.635   5.910
  111OSM    C7S11409   0.568   4.789   5.804
  111OSM    H7S11410   0.648   4.715   5.784
  111OSM    H7T11411   0.608   4.891   5.824
  111OSM    C8S11412   0.492   4.793   5.672
  111OSM    H8S11413   0.415   4.872   5.673
  111OSM    H8T11414   0.447   4.695   5.644
  111OSM    C9S11415   0.577   4.824   5.544
  111OSM    H9S11416   0.660   4.750   5.542
  111OSM    H9T11417   0.623   4.924   5.561
  111OSM   C10S11418   0.494   4.811   5.421
  111OSM   H10S11419   0.408   4.881   5.434
  111OSM   H10T11420   0.465   4.705   5.408
  111OSM   C11S11421   0.560   4.861   5.282
  111OSM   H11S11422   0.635   4.784   5.257
  111OSM   H11T11423   0.608   4.959   5.302
  111OSM   C12S11424   0.459   4.868   5.165
  111OSM   H12S11425   0.377   4.940   5.184
  111OSM   H12T11426   0.421   4.765   5.148
  111OSM   C13S11427   0.534   4.916   5.039
  111OSM   H13S11428   0.633   4.873   5.013
  111OSM   H13T11429   0.549   5.026   5.048
  111OSM   C14S11430   0.455   4.898   4.908
  111OSM   H14S11431   0.517   4.938   4.825
  111OSM   H14T11432   0.368   4.967   4.911
  111OSM   C15S11433   0.409   4.751   4.882
  111OSM   H15S11434   0.310   4.733   4.928
  111OSM   H15T11435   0.484   4.685   4.931
  111OSM   C16S11436   0.406   4.717   4.732
  111OSM   H16S11437   0.495   4.768   4.689
  111OSM   H16T11438   0.320   4.764   4.680
  111OSM   C17S11439   0.395   4.570   4.684
  111OSM   H17S11440   0.305   4.528   4.734
  111OSM   H17T11441   0.488   4.509   4.684
  111OSM   C18S11442   0.344   4.562   4.542
  111OSM   H18S11443   0.271   4.644   4.524
  111OSM   H18T11444   0.292   4.467   4.517
  111OSM   H18U11445   0.430   4.571   4.471
  111OSM    C1F11446   0.995   4.940   6.164
  111OSM     OF11447   1.094   4.869   6.191
  111OSM    C2F11448   0.995   5.091   6.117
  111OSM    H2F11449   1.016   5.164   6.198
  111OSM    H2G11450   0.894   5.116   6.078
  111OSM    C3F11451   1.111   5.109   6.008
  111OSM    H3F11452   1.200   5.061   6.055
  111OSM    H3G11453   1.137   5.216   5.995
  111OSM    C4F11454   1.075   5.051   5.870
  111OSM    H4F11455   1.068   4.940   5.881
  111OSM    H4G11456   1.169   5.071   5.814
  111OSM    C5F11457   0.959   5.101   5.794
  111OSM    H5F11458   0.969   5.212   5.801
  111OSM    H5G11459   0.860   5.083   5.840
  111OSM    C6F11460   0.951   5.035   5.654
  111OSM    H6F11461   0.845   5.045   5.621
  111OSM    H6G11462   0.953   4.925   5.664
  111OSM    C7F11463   1.050   5.090   5.554
  111OSM    H7F11464   1.155   5.073   5.586
  111OSM    H7G11465   1.032   5.199   5.556
  111OSM    C8F11466   1.034   5.031   5.411
  111OSM    H8F11467   1.046   4.925   5.439
  111OSM    H8G11468   1.118   5.074   5.351
  111OSM    C9F11469   0.897   5.038   5.346
  111OSM    H9F11470   0.808   5.006   5.402
  111OSM   C10F11471   0.870   5.063   5.214
  111OSM   H10F11472   0.764   5.069   5.185
  111OSM   C11F11473   0.982   5.090   5.113
  111OSM   H11F11474   0.997   4.999   5.051
  111OSM   H11G11475   1.081   5.101   5.161
  111OSM   C12F11476   0.959   5.220   5.032
  111OSM   H12F11477   1.042   5.228   4.958
  111OSM   H12G11478   0.940   5.310   5.094
  111OSM   C13F11479   0.840   5.210   4.942
  111OSM   H13F11480   0.820   5.311   4.900
  111OSM   H13G11481   0.748   5.173   4.991
  111OSM   C14F11482   0.866   5.100   4.829
  111OSM   H14F11483   0.869   4.998   4.873
  111OSM   H14G11484   0.965   5.116   4.781
  111OSM   C15F11485   0.747   5.096   4.728
  111OSM   H15F11486   0.758   5.191   4.671
  111OSM   H15G11487   0.645   5.103   4.772
  111OSM   C16F11488   0.754   4.975   4.632
  111OSM   H16F11489   0.741   4.880   4.687
  111OSM   H16G11490   0.856   4.986   4.587
  111OSM   C17F11491   0.644   4.993   4.528
  111OSM   H17F11492   0.670   5.090   4.481
  111OSM   H17G11493   0.548   5.003   4.583
  111OSM   C18F11494   0.644   4.872   4.431
  111OSM   H18F11495   0.739   4.873   4.373
  111OSM   H18G11496   0.564   4.882   4.355
  111OSM   H18H11497   0.629   4.770   4.473
  112OSM      N11498   4.068   1.930   6.673
  112OSM    C1511499   4.166   2.049   6.711
  112OSM   H15A11500   4.146   2.071   6.815
  112OSM   H15B11501   4.154   2.133   6.645
  112OSM   H15C11502   4.267   2.012   6.721
  112OSM    C1411503   4.085   1.825   6.774
  112OSM   H14A11504   4.035   1.735   6.742
  112OSM   H14B11505   4.057   1.846   6.877
  112OSM   H14C11506   4.190   1.811   6.790
  112OSM    C1311507   3.929   1.977   6.663
  112OSM   H13A11508   3.866   1.891   6.645
  112OSM   H13B11509   3.926   2.047   6.580
  112OSM   H13C11510   3.885   2.029   6.747
  112OSM    C1211511   4.110   1.865   6.536
  112OSM   H12A11512   4.215   1.842   6.542
  112OSM   H12B11513   4.090   1.945   6.466
  112OSM    C1111514   4.026   1.745   6.481
  112OSM   H11A11515   4.070   1.729   6.380
  112OSM   H11B11516   3.920   1.775   6.487
  112OSM      P11517   4.169   1.540   6.546
  112OSM    O1311518   4.282   1.632   6.540
  112OSM    O1411519   4.163   1.438   6.660
  112OSM    O1111520   4.148   1.469   6.406
  112OSM    O1211521   4.032   1.622   6.554
  112OSM    C1S11522   4.039   1.370   6.387
  112OSM    H1S11523   3.965   1.369   6.471
  112OSM    H1T11524   4.097   1.276   6.373
  112OSM     NF11525   3.885   1.290   6.209
  112OSM    HNF11526   3.909   1.236   6.129
  112OSM    C2S11527   3.973   1.396   6.249
  112OSM    H2S11528   3.913   1.488   6.269
  112OSM    C3S11529   4.074   1.441   6.140
  112OSM    H3S11530   4.154   1.365   6.134
  112OSM     O311531   4.144   1.560   6.172
  112OSM    HO311532   4.116   1.588   6.260
  112OSM    C4S11533   4.004   1.456   6.002
  112OSM    H4S11534   3.989   1.360   5.951
  112OSM    C5S11535   3.972   1.575   5.938
  112OSM    H5S11536   3.985   1.668   5.995
  112OSM    C6S11537   3.894   1.583   5.812
  112OSM    H6S11538   3.795   1.635   5.814
  112OSM    H6T11539   3.863   1.486   5.768
  112OSM    C7S11540   3.978   1.645   5.704
  112OSM    H7S11541   4.070   1.583   5.696
  112OSM    H7T11542   4.022   1.742   5.736
  112OSM    C8S11543   3.923   1.663   5.559
  112OSM    H8S11544   3.843   1.739   5.570
  112OSM    H8T11545   3.871   1.575   5.514
  112OSM    C9S11546   4.040   1.700   5.466
  112OSM    H9S11547   4.100   1.608   5.446
  112OSM    H9T11548   4.098   1.759   5.540
  112OSM   C10S11549   3.981   1.768   5.340
  112OSM   H10S11550   4.058   1.847   5.330
  112OSM   H10T11551   3.885   1.820   5.362
  112OSM   C11S11552   3.973   1.675   5.218
  112OSM   H11S11553   3.919   1.733   5.140
  112OSM   H11T11554   3.913   1.584   5.242
  112OSM   C12S11555   4.105   1.612   5.161
  112OSM   H12S11556   4.178   1.616   5.245
  112OSM   H12T11557   4.136   1.673   5.074
  112OSM   C13S11558   4.090   1.465   5.114
  112OSM   H13S11559   3.991   1.455   5.065
  112OSM   H13T11560   4.071   1.398   5.200
  112OSM   C14S11561   4.214   1.395   5.051
  112OSM   H14S11562   4.305   1.420   5.111
  112OSM   H14T11563   4.228   1.435   4.948
  112OSM   C15S11564   4.194   1.246   5.034
  112OSM   H15S11565   4.089   1.232   5.001
  112OSM   H15T11566   4.190   1.196   5.132
  112OSM   C16S11567   4.302   1.197   4.940
  112OSM   H16S11568   4.315   1.089   4.963
  112OSM   H16T11569   4.389   1.264   4.956
  112OSM   C17S11570   4.264   1.224   4.790
  112OSM   H17S11571   4.354   1.213   4.726
  112OSM   H17T11572   4.236   1.330   4.774
  112OSM   C18S11573   4.142   1.142   4.737
  112OSM   H18S11574   4.055   1.155   4.804
  112OSM   H18T11575   4.170   1.034   4.731
  112OSM   H18U11576   4.125   1.187   4.637
  112OSM    C1F11577   3.778   1.269   6.274
  112OSM     OF11578   3.734   1.352   6.357
  112OSM    C2F11579   3.710   1.139   6.260
  112OSM    H2F11580   3.705   1.089   6.359
  112OSM    H2G11581   3.782   1.079   6.200
  112OSM    C3F11582   3.576   1.145   6.192
  112OSM    H3F11583   3.507   1.199   6.261
  112OSM    H3G11584   3.534   1.043   6.182
  112OSM    C4F11585   3.591   1.208   6.054
  112OSM    H4F11586   3.684   1.269   6.042
  112OSM    H4G11587   3.500   1.271   6.037
  112OSM    C5F11588   3.582   1.104   5.942
  112OSM    H5F11589   3.489   1.052   5.974
  112OSM    H5G11590   3.668   1.034   5.941
  112OSM    C6F11591   3.569   1.171   5.809
  112OSM    H6F11592   3.525   1.273   5.814
  112OSM    H6G11593   3.507   1.106   5.744
  112OSM    C7F11594   3.702   1.190   5.742
  112OSM    H7F11595   3.745   1.090   5.717
  112OSM    H7G11596   3.768   1.249   5.809
  112OSM    C8F11597   3.692   1.282   5.618
  112OSM    H8F11598   3.677   1.387   5.651
  112OSM    H8G11599   3.600   1.237   5.574
  112OSM    C9F11600   3.810   1.280   5.532
  112OSM    H9F11601   3.871   1.370   5.552
  112OSM   C10F11602   3.815   1.210   5.417
  112OSM   H10F11603   3.914   1.218   5.369
  112OSM   C11F11604   3.718   1.115   5.362
  112OSM   H11F11605   3.628   1.107   5.426
  112OSM   H11G11606   3.769   1.018   5.344
  112OSM   C12F11607   3.644   1.172   5.237
  112OSM   H12F11608   3.621   1.281   5.244
  112OSM   H12G11609   3.552   1.112   5.220
  112OSM   C13F11610   3.720   1.153   5.111
  112OSM   H13F11611   3.755   1.048   5.119
  112OSM   H13G11612   3.816   1.209   5.112
  112OSM   C14F11613   3.649   1.206   4.985
  112OSM   H14F11614   3.665   1.315   4.972
  112OSM   H14G11615   3.543   1.174   4.991
  112OSM   C15F11616   3.722   1.146   4.866
  112OSM   H15F11617   3.736   1.036   4.880
  112OSM   H15G11618   3.823   1.190   4.876
  112OSM   C16F11619   3.651   1.165   4.725
  112OSM   H16F11620   3.720   1.133   4.644
  112OSM   H16G11621   3.627   1.270   4.698
  112OSM   C17F11622   3.518   1.090   4.711
  112OSM   H17F11623   3.457   1.119   4.800
  112OSM   H17G11624   3.537   0.985   4.740
  112OSM   C18F11625   3.448   1.107   4.576
  112OSM   H18F11626   3.350   1.060   4.556
  112OSM   H18G11627   3.516   1.069   4.497
  112OSM   H18H11628   3.429   1.213   4.549
  113OSM      N11629   0.761   3.191   6.495
  113OSM    C1511630   0.756   3.321   6.573
  113OSM   H15A11631   0.740   3.293   6.676
  113OSM   H15B11632   0.678   3.382   6.531
  113OSM   H15C11633   0.846   3.380   6.565
  113OSM    C1411634   0.874   3.103   6.543
  113OSM   H14A11635   0.880   3.016   6.481
  113OSM   H14B11636   0.854   3.067   6.642
  113OSM   H14C11637   0.972   3.149   6.541
  113OSM    C1311638   0.633   3.135   6.533
  113OSM   H13A11639   0.610   3.041   6.484
  113OSM   H13B11640   0.553   3.195   6.492
  113OSM   H13C11641   0.619   3.124   6.640
  113OSM    C1211642   0.770   3.218   6.342
  113OSM   H12A11643   0.744   3.126   6.292
  113OSM   H12B11644   0.873   3.238   6.320
  113OSM    C1111645   0.686   3.327   6.276
  113OSM   H11A11646   0.716   3.323   6.169
  113OSM   H11B11647   0.711   3.423   6.327
  113OSM      P11648   0.443   3.363   6.207
  113OSM    O1311649   0.334   3.420   6.289
  113OSM    O1411650   0.514   3.461   6.116
  113OSM    O1111651   0.380   3.246   6.124
  113OSM    O1211652   0.547   3.304   6.307
  113OSM    C1S11653   0.469   3.160   6.054
  113OSM    H1S11654   0.513   3.086   6.124
  113OSM    H1T11655   0.558   3.216   6.020
  113OSM     NF11656   0.506   3.005   5.863
  113OSM    HNF11657   0.558   3.033   5.783
  113OSM    C2S11658   0.417   3.103   5.916
  113OSM    H2S11659   0.329   3.044   5.948
  113OSM    C3S11660   0.361   3.200   5.812
  113OSM    H3S11661   0.448   3.265   5.788
  113OSM     O311662   0.267   3.293   5.871
  113OSM    HO311663   0.279   3.293   5.966
  113OSM    C4S11664   0.311   3.146   5.686
  113OSM    H4S11665   0.389   3.095   5.628
  113OSM    C5S11666   0.178   3.138   5.646
  113OSM    H5S11667   0.095   3.178   5.705
  113OSM    C6S11668   0.152   3.060   5.517
  113OSM    H6S11669   0.042   3.061   5.503
  113OSM    H6T11670   0.172   2.952   5.535
  113OSM    C7S11671   0.231   3.117   5.401
  113OSM    H7S11672   0.335   3.079   5.409
  113OSM    H7T11673   0.246   3.227   5.400
  113OSM    C8S11674   0.184   3.083   5.257
  113OSM    H8S11675   0.082   3.122   5.237
  113OSM    H8T11676   0.169   2.973   5.248
  113OSM    C9S11677   0.291   3.121   5.152
  113OSM    H9S11678   0.387   3.072   5.183
  113OSM    H9T11679   0.302   3.231   5.150
  113OSM   C10S11680   0.255   3.086   5.008
  113OSM   H10S11681   0.165   3.145   4.979
  113OSM   H10T11682   0.248   2.975   5.012
  113OSM   C11S11683   0.365   3.113   4.901
  113OSM   H11S11684   0.466   3.087   4.942
  113OSM   H11T11685   0.369   3.219   4.870
  113OSM   C12S11686   0.345   3.037   4.766
  113OSM   H12S11687   0.239   3.057   4.739
  113OSM   H12T11688   0.338   2.929   4.791
  113OSM   C13S11689   0.436   3.079   4.650
  113OSM   H13S11690   0.541   3.058   4.677
  113OSM   H13T11691   0.440   3.190   4.640
  113OSM   C14S11692   0.404   3.021   4.514
  113OSM   H14S11693   0.297   3.039   4.489
  113OSM   H14T11694   0.437   2.916   4.505
  113OSM   C15S11695   0.488   3.099   4.402
  113OSM   H15S11696   0.498   3.045   4.305
  113OSM   H15T11697   0.591   3.102   4.443
  113OSM   C16S11698   0.448   3.247   4.374
  113OSM   H16S11699   0.463   3.314   4.461
  113OSM   H16T11700   0.340   3.240   4.350
  113OSM   C17S11701   0.535   3.302   4.266
  113OSM   H17S11702   0.549   3.230   4.183
  113OSM   H17T11703   0.637   3.317   4.307
  113OSM   C18S11704   0.491   3.429   4.198
  113OSM   H18S11705   0.384   3.409   4.177
  113OSM   H18T11706   0.542   3.432   4.099
  113OSM   H18U11707   0.510   3.520   4.259
  113OSM    C1F11708   0.559   2.901   5.933
  113OSM     OF11709   0.507   2.873   6.036
  113OSM    C2F11710   0.678   2.822   5.882
  113OSM    H2F11711   0.706   2.866   5.783
  113OSM    H2G11712   0.637   2.719   5.872
  113OSM    C3F11713   0.788   2.834   5.981
  113OSM    H3F11714   0.755   2.790   6.078
  113OSM    H3G11715   0.807   2.941   6.005
  113OSM    C4F11716   0.926   2.773   5.944
  113OSM    H4F11717   0.911   2.663   5.937
  113OSM    H4G11718   0.985   2.800   6.034
  113OSM    C5F11719   0.991   2.837   5.815
  113OSM    H5F11720   1.102   2.827   5.816
  113OSM    H5G11721   0.961   2.941   5.839
  113OSM    C6F11722   0.942   2.773   5.686
  113OSM    H6F11723   0.866   2.836   5.635
  113OSM    H6G11724   0.897   2.677   5.717
  113OSM    C7F11725   1.054   2.722   5.590
  113OSM    H7F11726   1.112   2.640   5.638
  113OSM    H7G11727   1.137   2.792   5.564
  113OSM    C8F11728   1.002   2.665   5.460
  113OSM    H8F11729   0.957   2.740   5.392
  113OSM    H8G11730   0.914   2.602   5.484
  113OSM    C9F11731   1.114   2.591   5.392
  113OSM    H9F11732   1.157   2.505   5.446
  113OSM   C10F11733   1.184   2.638   5.283
  113OSM   H10F11734   1.285   2.596   5.274
  113OSM   C11F11735   1.161   2.766   5.202
  113OSM   H11F11736   1.258   2.809   5.168
  113OSM   H11G11737   1.116   2.851   5.257
  113OSM   C12F11738   1.077   2.724   5.075
  113OSM   H12F11739   1.107   2.621   5.046
  113OSM   H12G11740   1.096   2.800   4.996
  113OSM   C13F11741   0.924   2.728   5.096
  113OSM   H13F11742   0.900   2.831   5.132
  113OSM   H13G11743   0.891   2.653   5.170
  113OSM   C14F11744   0.851   2.702   4.962
  113OSM   H14F11745   0.836   2.593   4.952
  113OSM   H14G11746   0.912   2.728   4.873
  113OSM   C15F11747   0.714   2.774   4.962
  113OSM   H15F11748   0.732   2.883   4.979
  113OSM   H15G11749   0.654   2.726   5.042
  113OSM   C16F11750   0.637   2.757   4.824
  113OSM   H16F11751   0.682   2.838   4.763
  113OSM   H16G11752   0.531   2.785   4.846
  113OSM   C17F11753   0.638   2.623   4.759
  113OSM   H17F11754   0.633   2.541   4.834
  113OSM   H17G11755   0.735   2.606   4.708
  113OSM   C18F11756   0.529   2.603   4.651
  113OSM   H18F11757   0.558   2.520   4.583
  113OSM   H18G11758   0.521   2.691   4.584
  113OSM   H18H11759   0.432   2.577   4.699
  114OSM      N11760   0.069   1.430   6.749
  114OSM    C1511761  -0.076   1.480   6.770
  114OSM   H15A11762  -0.082   1.578   6.725
  114OSM   H15B11763  -0.076   1.500   6.876
  114OSM   H15C11764  -0.163   1.421   6.745
  114OSM    C1411765   0.164   1.523   6.823
  114OSM   H14A11766   0.269   1.501   6.809
  114OSM   H14B11767   0.140   1.527   6.928
  114OSM   H14C11768   0.160   1.626   6.793
  114OSM    C1311769   0.071   1.293   6.820
  114OSM   H13A11770   0.017   1.302   6.913
  114OSM   H13B11771   0.174   1.266   6.834
  114OSM   H13C11772   0.018   1.228   6.752
  114OSM    C1211773   0.099   1.414   6.606
  114OSM   H12A11774   0.025   1.348   6.564
  114OSM   H12B11775   0.194   1.368   6.584
  114OSM    C1111776   0.094   1.544   6.528
  114OSM   H11A11777  -0.003   1.598   6.537
  114OSM   H11B11778   0.081   1.519   6.421
  114OSM      P11779   0.361   1.593   6.498
  114OSM    O1311780   0.425   1.728   6.482
  114OSM    O1411781   0.417   1.485   6.589
  114OSM    O1111782   0.337   1.534   6.348
  114OSM    O1211783   0.212   1.629   6.543
  114OSM    C1S11784   0.314   1.624   6.239
  114OSM    H1S11785   0.409   1.681   6.228
  114OSM    H1T11786   0.229   1.694   6.253
  114OSM     NF11787   0.269   1.645   5.997
  114OSM    HNF11788   0.183   1.694   5.989
  114OSM    C2S11789   0.278   1.549   6.107
  114OSM    H2S11790   0.359   1.475   6.089
  114OSM    C3S11791   0.154   1.462   6.122
  114OSM    H3S11792   0.066   1.528   6.138
  114OSM     O311793   0.159   1.370   6.227
  114OSM    HO311794   0.219   1.406   6.293
  114OSM    C4S11795   0.123   1.408   5.981
  114OSM    H4S11796   0.196   1.341   5.933
  114OSM    C5S11797   0.024   1.442   5.899
  114OSM    H5S11798  -0.052   1.505   5.949
  114OSM    C6S11799  -0.005   1.381   5.767
  114OSM    H6S11800  -0.054   1.465   5.713
  114OSM    H6T11801  -0.063   1.286   5.777
  114OSM    C7S11802   0.111   1.345   5.668
  114OSM    H7S11803   0.181   1.270   5.710
  114OSM    H7T11804   0.171   1.438   5.654
  114OSM    C8S11805   0.071   1.293   5.533
  114OSM    H8S11806   0.012   1.366   5.473
  114OSM    H8T11807  -0.009   1.215   5.531
  114OSM    C9S11808   0.178   1.242   5.441
  114OSM    H9S11809   0.270   1.199   5.488
  114OSM    H9T11810   0.225   1.325   5.385
  114OSM   C10S11811   0.127   1.142   5.337
  114OSM   H10S11812   0.021   1.166   5.313
  114OSM   H10T11813   0.129   1.042   5.387
  114OSM   C11S11814   0.208   1.138   5.213
  114OSM   H11S11815   0.315   1.129   5.242
  114OSM   H11T11816   0.202   1.237   5.163
  114OSM   C12S11817   0.181   1.028   5.111
  114OSM   H12S11818   0.078   1.045   5.072
  114OSM   H12T11819   0.180   0.926   5.155
  114OSM   C13S11820   0.285   1.037   4.996
  114OSM   H13S11821   0.388   1.039   5.037
  114OSM   H13T11822   0.275   1.129   4.935
  114OSM   C14S11823   0.271   0.912   4.904
  114OSM   H14S11824   0.173   0.915   4.851
  114OSM   H14T11825   0.266   0.826   4.974
  114OSM   C15S11826   0.382   0.897   4.799
  114OSM   H15S11827   0.378   0.788   4.779
  114OSM   H15T11828   0.482   0.911   4.845
  114OSM   C16S11829   0.362   0.974   4.671
  114OSM   H16S11830   0.398   1.078   4.684
  114OSM   H16T11831   0.260   0.960   4.629
  114OSM   C17S11832   0.459   0.919   4.565
  114OSM   H17S11833   0.436   0.814   4.536
  114OSM   H17T11834   0.562   0.928   4.604
  114OSM   C18S11835   0.458   0.994   4.430
  114OSM   H18S11836   0.498   1.096   4.450
  114OSM   H18T11837   0.358   1.017   4.388
  114OSM   H18U11838   0.519   0.935   4.358
  114OSM    C1F11839   0.378   1.684   5.928
  114OSM     OF11840   0.483   1.633   5.968
  114OSM    C2F11841   0.371   1.786   5.819
  114OSM    H2F11842   0.342   1.881   5.867
  114OSM    H2G11843   0.286   1.759   5.752
  114OSM    C3F11844   0.507   1.801   5.741
  114OSM    H3F11845   0.530   1.706   5.689
  114OSM    H3G11846   0.585   1.836   5.812
  114OSM    C4F11847   0.511   1.917   5.635
  114OSM    H4F11848   0.607   1.938   5.584
  114OSM    H4G11849   0.483   2.011   5.687
  114OSM    C5F11850   0.415   1.888   5.523
  114OSM    H5F11851   0.310   1.875   5.558
  114OSM    H5G11852   0.446   1.795   5.471
  114OSM    C6F11853   0.425   2.001   5.422
  114OSM    H6F11854   0.424   2.100   5.473
  114OSM    H6G11855   0.336   2.006   5.356
  114OSM    C7F11856   0.544   1.993   5.322
  114OSM    H7F11857   0.631   1.954   5.378
  114OSM    H7G11858   0.562   2.094   5.279
  114OSM    C8F11859   0.519   1.892   5.206
  114OSM    H8F11860   0.423   1.933   5.168
  114OSM    H8G11861   0.497   1.796   5.258
  114OSM    C9F11862   0.636   1.870   5.105
  114OSM    H9F11863   0.729   1.867   5.163
  114OSM   C10F11864   0.634   1.838   4.975
  114OSM   H10F11865   0.728   1.824   4.920
  114OSM   C11F11866   0.508   1.841   4.895
  114OSM   H11F11867   0.438   1.920   4.926
  114OSM   H11G11868   0.449   1.753   4.928
  114OSM   C12F11869   0.538   1.841   4.744
  114OSM   H12F11870   0.628   1.783   4.715
  114OSM   H12G11871   0.565   1.945   4.715
  114OSM   C13F11872   0.420   1.786   4.658
  114OSM   H13F11873   0.326   1.843   4.677
  114OSM   H13G11874   0.421   1.684   4.702
  114OSM   C14F11875   0.447   1.793   4.509
  114OSM   H14F11876   0.539   1.739   4.480
  114OSM   H14G11877   0.458   1.901   4.483
  114OSM   C15F11878   0.323   1.735   4.434
  114OSM   H15F11879   0.342   1.730   4.325
  114OSM   H15G11880   0.231   1.791   4.458
  114OSM   C16F11881   0.288   1.586   4.466
  114OSM   H16F11882   0.192   1.573   4.412
  114OSM   H16G11883   0.271   1.566   4.574
  114OSM   C17F11884   0.393   1.487   4.427
  114OSM   H17F11885   0.481   1.510   4.490
  114OSM   H17G11886   0.428   1.514   4.325
  114OSM   C18F11887   0.347   1.342   4.429
  114OSM   H18F11888   0.418   1.281   4.369
  114OSM   H18G11889   0.244   1.334   4.387
  114OSM   H18H11890   0.349   1.301   4.532
  115OSM      N11891   5.417   3.821   6.898
  115OSM    C1511892   5.358   3.935   6.975
  115OSM   H15A11893   5.335   4.018   6.910
  115OSM   H15B11894   5.423   3.965   7.055
  115OSM   H15C11895   5.259   3.913   7.011
  115OSM    C1411896   5.426   3.695   6.992
  115OSM   H14A11897   5.448   3.610   6.929
  115OSM   H14B11898   5.328   3.689   7.038
  115OSM   H14C11899   5.506   3.708   7.063
  115OSM    C1311900   5.335   3.775   6.787
  115OSM   H13A11901   5.231   3.760   6.814
  115OSM   H13B11902   5.365   3.678   6.753
  115OSM   H13C11903   5.327   3.849   6.708
  115OSM    C1211904   5.560   3.859   6.858
  115OSM   H12A11905   5.616   3.772   6.826
  115OSM   H12B11906   5.617   3.888   6.945
  115OSM    C1111907   5.583   3.968   6.749
  115OSM   H11A11908   5.544   3.930   6.652
  115OSM   H11B11909   5.694   3.973   6.737
  115OSM      P11910   5.478   4.193   6.683
  115OSM    O1311911   5.334   4.164   6.678
  115OSM    O1411912   5.526   4.333   6.709
  115OSM    O1111913   5.540   4.142   6.541
  115OSM    O1211914   5.525   4.093   6.789
  115OSM    C1S11915   5.523   4.215   6.423
  115OSM    H1S11916   5.576   4.312   6.432
  115OSM    H1T11917   5.416   4.238   6.403
  115OSM     NF11918   5.572   4.217   6.184
  115OSM    HNF11919   5.491   4.221   6.126
  115OSM    C2S11920   5.582   4.134   6.302
  115OSM    H2S11921   5.690   4.112   6.317
  115OSM    C3S11922   5.497   4.003   6.281
  115OSM    H3S11923   5.400   4.029   6.234
  115OSM     O311924   5.478   3.928   6.405
  115OSM    HO311925   5.473   4.002   6.466
  115OSM    C4S11926   5.577   3.915   6.182
  115OSM    H4S11927   5.679   3.878   6.204
  115OSM    C5S11928   5.548   3.885   6.055
  115OSM    H5S11929   5.450   3.918   6.020
  115OSM    C6S11930   5.640   3.804   5.964
  115OSM    H6S11931   5.623   3.695   5.972
  115OSM    H6T11932   5.745   3.809   6.001
  115OSM    C7S11933   5.626   3.839   5.815
  115OSM    H7S11934   5.541   3.783   5.772
  115OSM    H7T11935   5.711   3.789   5.764
  115OSM    C8S11936   5.649   3.993   5.793
  115OSM    H8S11937   5.749   4.026   5.826
  115OSM    H8T11938   5.574   4.039   5.860
  115OSM    C9S11939   5.632   4.043   5.645
  115OSM    H9S11940   5.716   3.997   5.590
  115OSM    H9T11941   5.640   4.154   5.640
  115OSM   C10S11942   5.494   4.013   5.588
  115OSM   H10S11943   5.424   4.090   5.627
  115OSM   H10T11944   5.462   3.913   5.626
  115OSM   C11S11945   5.496   4.001   5.434
  115OSM   H11S11946   5.521   4.104   5.399
  115OSM   H11T11947   5.390   3.994   5.401
  115OSM   C12S11948   5.584   3.894   5.367
  115OSM   H12S11949   5.579   3.805   5.434
  115OSM   H12T11950   5.689   3.928   5.371
  115OSM   C13S11951   5.525   3.860   5.229
  115OSM   H13S11952   5.428   3.812   5.253
  115OSM   H13T11953   5.583   3.784   5.171
  115OSM   C14S11954   5.507   3.979   5.135
  115OSM   H14S11955   5.608   4.024   5.127
  115OSM   H14T11956   5.444   4.052   5.190
  115OSM   C15S11957   5.430   3.945   5.006
  115OSM   H15S11958   5.394   4.044   4.971
  115OSM   H15T11959   5.340   3.890   5.043
  115OSM   C16S11960   5.498   3.874   4.890
  115OSM   H16S11961   5.520   3.771   4.927
  115OSM   H16T11962   5.584   3.938   4.863
  115OSM   C17S11963   5.409   3.869   4.761
  115OSM   H17S11964   5.377   3.970   4.728
  115OSM   H17T11965   5.320   3.815   4.801
  115OSM   C18S11966   5.471   3.795   4.639
  115OSM   H18S11967   5.403   3.817   4.554
  115OSM   H18T11968   5.465   3.684   4.641
  115OSM   H18U11969   5.568   3.834   4.601
  115OSM    C1F11970   5.664   4.310   6.160
  115OSM     OF11971   5.751   4.342   6.243
  115OSM    C2F11972   5.637   4.379   6.030
  115OSM    H2F11973   5.529   4.407   6.026
  115OSM    H2G11974   5.643   4.298   5.955
  115OSM    C3F11975   5.741   4.491   5.995
  115OSM    H3F11976   5.843   4.451   5.982
  115OSM    H3G11977   5.741   4.559   6.083
  115OSM    C4F11978   5.696   4.567   5.871
  115OSM    H4F11979   5.750   4.664   5.872
  115OSM    H4G11980   5.585   4.571   5.869
  115OSM    C5F11981   5.735   4.488   5.746
  115OSM    H5F11982   5.675   4.394   5.750
  115OSM    H5G11983   5.839   4.450   5.754
  115OSM    C6F11984   5.718   4.554   5.608
  115OSM    H6F11985   5.719   4.665   5.616
  115OSM    H6G11986   5.626   4.516   5.558
  115OSM    C7F11987   5.840   4.524   5.516
  115OSM    H7F11988   5.872   4.418   5.503
  115OSM    H7G11989   5.929   4.577   5.555
  115OSM    C8F11990   5.814   4.581   5.372
  115OSM    H8F11991   5.774   4.684   5.383
  115OSM    H8G11992   5.737   4.517   5.323
  115OSM    C9F11993   5.936   4.583   5.277
  115OSM    H9F11994   6.032   4.584   5.331
  115OSM   C10F11995   5.931   4.589   5.146
  115OSM   H10F11996   6.019   4.600   5.081
  115OSM   C11F11997   5.805   4.598   5.064
  115OSM   H11F11998   5.722   4.602   5.137
  115OSM   H11G11999   5.787   4.500   5.015
  115OSM   C12F12000   5.804   4.704   4.950
  115OSM   H12F12001   5.854   4.649   4.867
  115OSM   H12G12002   5.857   4.796   4.982
  115OSM   C13F12003   5.667   4.727   4.906
  115OSM   H13F12004   5.667   4.812   4.834
  115OSM   H13G12005   5.605   4.748   4.996
  115OSM   C14F12006   5.606   4.602   4.842
  115OSM   H14F12007   5.617   4.538   4.933
  115OSM   H14G12008   5.675   4.560   4.766
  115OSM   C15F12009   5.454   4.617   4.806
  115OSM   H15F12010   5.441   4.704   4.739
  115OSM   H15G12011   5.389   4.642   4.893
  115OSM   C16F12012   5.397   4.501   4.735
  115OSM   H16F12013   5.286   4.506   4.727
  115OSM   H16G12014   5.407   4.412   4.801
  115OSM   C17F12015   5.459   4.466   4.599
  115OSM   H17F12016   5.565   4.437   4.607
  115OSM   H17G12017   5.474   4.558   4.538
  115OSM   C18F12018   5.387   4.362   4.517
  115OSM   H18F12019   5.449   4.339   4.428
  115OSM   H18G12020   5.300   4.405   4.463
  115OSM   H18H12021   5.355   4.265   4.560
  116OSM      N12022   1.572   1.921   6.511
  116OSM    C1512023   1.622   1.794   6.559
  116OSM   H15A12024   1.725   1.770   6.535
  116OSM   H15B12025   1.560   1.716   6.519
  116OSM   H15C12026   1.623   1.777   6.666
  116OSM    C1412027   1.428   1.940   6.560
  116OSM   H14A12028   1.377   1.854   6.519
  116OSM   H14B12029   1.377   2.032   6.539
  116OSM   H14C12030   1.422   1.929   6.668
  116OSM    C1312031   1.642   2.028   6.580
  116OSM   H13A12032   1.747   2.022   6.554
  116OSM   H13B12033   1.627   2.037   6.686
  116OSM   H13C12034   1.607   2.124   6.545
  116OSM    C1212035   1.596   1.940   6.361
  116OSM   H12A12036   1.702   1.949   6.343
  116OSM   H12B12037   1.548   2.034   6.338
  116OSM    C1112038   1.542   1.838   6.256
  116OSM   H11A12039   1.590   1.740   6.282
  116OSM   H11B12040   1.571   1.880   6.158
  116OSM      P12041   1.293   1.903   6.188
  116OSM    O1312042   1.160   1.858   6.240
  116OSM    O1412043   1.325   2.048   6.194
  116OSM    O1112044   1.309   1.846   6.047
  116OSM    O1212045   1.405   1.817   6.271
  116OSM    C1S12046   1.305   1.702   6.034
  116OSM    H1S12047   1.207   1.667   6.073
  116OSM    H1T12048   1.394   1.660   6.085
  116OSM     NF12049   1.316   1.510   5.877
  116OSM    HNF12050   1.384   1.460   5.825
  116OSM    C2S12051   1.315   1.661   5.889
  116OSM    H2S12052   1.222   1.687   5.834
  116OSM    C3S12053   1.437   1.726   5.811
  116OSM    H3S12054   1.523   1.666   5.847
  116OSM     O312055   1.464   1.859   5.855
  116OSM    HO312056   1.401   1.870   5.927
  116OSM    C4S12057   1.446   1.707   5.662
  116OSM    H4S12058   1.477   1.604   5.640
  116OSM    C5S12059   1.425   1.796   5.559
  116OSM    H5S12060   1.386   1.896   5.584
  116OSM    C6S12061   1.443   1.764   5.414
  116OSM    H6S12062   1.459   1.656   5.398
  116OSM    H6T12063   1.535   1.820   5.385
  116OSM    C7S12064   1.317   1.801   5.339
  116OSM    H7S12065   1.323   1.772   5.232
  116OSM    H7T12066   1.294   1.910   5.347
  116OSM    C8S12067   1.198   1.718   5.394
  116OSM    H8S12068   1.179   1.769   5.491
  116OSM    H8T12069   1.231   1.612   5.403
  116OSM    C9S12070   1.071   1.722   5.302
  116OSM    H9S12071   1.047   1.828   5.279
  116OSM    H9T12072   0.982   1.683   5.354
  116OSM   C10S12073   1.093   1.647   5.170
  116OSM   H10S12074   1.137   1.546   5.181
  116OSM   H10T12075   1.166   1.702   5.107
  116OSM   C11S12076   0.970   1.646   5.084
  116OSM   H11S12077   0.983   1.628   4.975
  116OSM   H11T12078   0.930   1.749   5.088
  116OSM   C12S12079   0.856   1.555   5.124
  116OSM   H12S12080   0.762   1.588   5.075
  116OSM   H12T12081   0.836   1.585   5.229
  116OSM   C13S12082   0.875   1.401   5.119
  116OSM   H13S12083   0.985   1.386   5.132
  116OSM   H13T12084   0.852   1.364   5.017
  116OSM   C14S12085   0.798   1.328   5.228
  116OSM   H14S12086   0.834   1.371   5.324
  116OSM   H14T12087   0.837   1.224   5.238
  116OSM   C15S12088   0.650   1.351   5.244
  116OSM   H15S12089   0.598   1.286   5.170
  116OSM   H15T12090   0.624   1.457   5.221
  116OSM   C16S12091   0.595   1.321   5.389
  116OSM   H16S12092   0.487   1.348   5.388
  116OSM   H16T12093   0.643   1.388   5.463
  116OSM   C17S12094   0.617   1.172   5.425
  116OSM   H17S12095   0.725   1.150   5.405
  116OSM   H17T12096   0.554   1.108   5.360
  116OSM   C18S12097   0.587   1.139   5.574
  116OSM   H18S12098   0.479   1.152   5.598
  116OSM   H18T12099   0.638   1.204   5.648
  116OSM   H18U12100   0.614   1.033   5.595
  116OSM    C1F12101   1.208   1.434   5.900
  116OSM     OF12102   1.111   1.485   5.950
  116OSM    C2F12103   1.215   1.287   5.881
  116OSM    H2F12104   1.145   1.245   5.957
  116OSM    H2G12105   1.320   1.260   5.904
  116OSM    C3F12106   1.165   1.240   5.745
  116OSM    H3F12107   1.055   1.249   5.731
  116OSM    H3G12108   1.175   1.130   5.742
  116OSM    C4F12109   1.234   1.297   5.626
  116OSM    H4F12110   1.344   1.281   5.633
  116OSM    H4G12111   1.207   1.405   5.619
  116OSM    C5F12112   1.197   1.239   5.492
  116OSM    H5F12113   1.087   1.236   5.476
  116OSM    H5G12114   1.243   1.138   5.492
  116OSM    C6F12115   1.250   1.322   5.381
  116OSM    H6F12116   1.354   1.350   5.408
  116OSM    H6G12117   1.191   1.416   5.376
  116OSM    C7F12118   1.242   1.230   5.254
  116OSM    H7F12119   1.134   1.204   5.253
  116OSM    H7G12120   1.304   1.138   5.263
  116OSM    C8F12121   1.282   1.301   5.118
  116OSM    H8F12122   1.216   1.389   5.105
  116OSM    H8G12123   1.256   1.236   5.032
  116OSM    C9F12124   1.428   1.333   5.108
  116OSM    H9F12125   1.494   1.263   5.161
  116OSM   C10F12126   1.480   1.441   5.039
  116OSM   H10F12127   1.589   1.453   5.043
  116OSM   C11F12128   1.413   1.538   4.951
  116OSM   H11F12129   1.426   1.643   4.984
  116OSM   H11G12130   1.303   1.527   4.942
  116OSM   C12F12131   1.460   1.524   4.804
  116OSM   H12F12132   1.427   1.421   4.778
  116OSM   H12G12133   1.571   1.528   4.800
  116OSM   C13F12134   1.404   1.634   4.715
  116OSM   H13F12135   1.427   1.624   4.607
  116OSM   H13G12136   1.454   1.730   4.740
  116OSM   C14F12137   1.257   1.655   4.726
  116OSM   H14F12138   1.230   1.699   4.824
  116OSM   H14G12139   1.202   1.560   4.712
  116OSM   C15F12140   1.197   1.750   4.621
  116OSM   H15F12141   1.183   1.708   4.519
  116OSM   H15G12142   1.254   1.843   4.601
  116OSM   C16F12143   1.054   1.801   4.654
  116OSM   H16F12144   1.076   1.886   4.722
  116OSM   H16G12145   0.980   1.733   4.702
  116OSM   C17F12146   0.966   1.852   4.537
  116OSM   H17F12147   0.873   1.891   4.582
  116OSM   H17G12148   0.944   1.761   4.477
  116OSM   C18F12149   1.036   1.948   4.439
  116OSM   H18F12150   0.973   2.009   4.371
  116OSM   H18G12151   1.105   1.884   4.379
  116OSM   H18H12152   1.093   2.024   4.497
  117OSM      N12153   0.049   4.628   6.588
  117OSM    C1512154   0.176   4.550   6.608
  117OSM   H15A12155   0.196   4.491   6.519
  117OSM   H15B12156   0.172   4.486   6.694
  117OSM   H15C12157   0.260   4.617   6.622
  117OSM    C1412158  -0.065   4.537   6.611
  117OSM   H14A12159  -0.049   4.441   6.564
  117OSM   H14B12160  -0.150   4.575   6.557
  117OSM   H14C12161  -0.090   4.537   6.716
  117OSM    C1312162   0.054   4.739   6.693
  117OSM   H13A12163   0.152   4.783   6.696
  117OSM   H13B12164   0.028   4.696   6.789
  117OSM   H13C12165  -0.028   4.808   6.676
  117OSM    C1212166   0.041   4.666   6.444
  117OSM   H12A12167   0.030   4.577   6.384
  117OSM   H12B12168   0.139   4.706   6.424
  117OSM    C1112169  -0.077   4.748   6.403
  117OSM   H11A12170  -0.169   4.685   6.413
  117OSM   H11B12171  -0.063   4.772   6.295
  117OSM      P12172  -0.210   4.936   6.537
  117OSM    O1312173  -0.310   4.836   6.570
  117OSM    O1412174  -0.162   5.032   6.643
  117OSM    O1112175  -0.266   5.023   6.418
  117OSM    O1212176  -0.085   4.869   6.474
  117OSM    C1S12177  -0.183   5.107   6.340
  117OSM    H1S12178  -0.077   5.074   6.331
  117OSM    H1T12179  -0.196   5.211   6.375
  117OSM     NF12180  -0.130   5.147   6.103
  117OSM    HNF12181  -0.145   5.242   6.077
  117OSM    C2S12182  -0.229   5.094   6.193
  117OSM    H2S12183  -0.232   4.986   6.167
  117OSM    C3S12184  -0.367   5.159   6.165
  117OSM    H3S12185  -0.349   5.268   6.172
  117OSM     O312186  -0.464   5.140   6.267
  117OSM    HO312187  -0.404   5.117   6.338
  117OSM    C4S12188  -0.428   5.135   6.025
  117OSM    H4S12189  -0.359   5.161   5.943
  117OSM    C5S12190  -0.544   5.063   6.010
  117OSM    H5S12191  -0.588   5.010   6.095
  117OSM    C6S12192  -0.598   5.006   5.878
  117OSM    H6S12193  -0.705   5.026   5.854
  117OSM    H6T12194  -0.592   4.895   5.885
  117OSM    C7S12195  -0.505   5.038   5.762
  117OSM    H7S12196  -0.403   4.996   5.778
  117OSM    H7T12197  -0.504   5.149   5.760
  117OSM    C8S12198  -0.555   4.996   5.623
  117OSM    H8S12199  -0.645   5.055   5.593
  117OSM    H8T12200  -0.594   4.892   5.620
  117OSM    C9S12201  -0.446   5.010   5.514
  117OSM    H9S12202  -0.368   4.934   5.538
  117OSM    H9T12203  -0.379   5.098   5.519
  117OSM   C10S12204  -0.491   4.980   5.371
  117OSM   H10S12205  -0.415   5.000   5.292
  117OSM   H10T12206  -0.581   5.036   5.337
  117OSM   C11S12207  -0.518   4.830   5.347
  117OSM   H11S12208  -0.573   4.788   5.434
  117OSM   H11T12209  -0.427   4.766   5.349
  117OSM   C12S12210  -0.590   4.807   5.215
  117OSM   H12S12211  -0.689   4.856   5.227
  117OSM   H12T12212  -0.614   4.701   5.194
  117OSM   C13S12213  -0.518   4.872   5.100
  117OSM   H13S12214  -0.415   4.831   5.098
  117OSM   H13T12215  -0.515   4.983   5.111
  117OSM   C14S12216  -0.594   4.852   4.969
  117OSM   H14S12217  -0.698   4.889   4.975
  117OSM   H14T12218  -0.607   4.745   4.942
  117OSM   C15S12219  -0.529   4.929   4.855
  117OSM   H15S12220  -0.430   4.964   4.889
  117OSM   H15T12221  -0.588   5.015   4.818
  117OSM   C16S12222  -0.494   4.837   4.745
  117OSM   H16S12223  -0.439   4.751   4.789
  117OSM   H16T12224  -0.424   4.895   4.682
  117OSM   C17S12225  -0.612   4.795   4.658
  117OSM   H17S12226  -0.684   4.744   4.726
  117OSM   H17T12227  -0.559   4.719   4.597
  117OSM   C18S12228  -0.668   4.912   4.578
  117OSM   H18S12229  -0.702   4.878   4.478
  117OSM   H18T12230  -0.582   4.975   4.548
  117OSM   H18U12231  -0.747   4.967   4.633
  117OSM    C1F12232  -0.016   5.092   6.078
  117OSM     OF12233  -0.002   4.974   6.111
  117OSM    C2F12234   0.090   5.180   6.022
  117OSM    H2F12235   0.138   5.236   6.106
  117OSM    H2G12236   0.047   5.258   5.956
  117OSM    C3F12237   0.200   5.112   5.943
  117OSM    H3F12238   0.154   5.060   5.856
  117OSM    H3G12239   0.257   5.032   5.995
  117OSM    C4F12240   0.302   5.209   5.886
  117OSM    H4F12241   0.349   5.262   5.972
  117OSM    H4G12242   0.245   5.278   5.821
  117OSM    C5F12243   0.409   5.151   5.796
  117OSM    H5F12244   0.366   5.113   5.701
  117OSM    H5G12245   0.458   5.062   5.840
  117OSM    C6F12246   0.518   5.258   5.763
  117OSM    H6F12247   0.573   5.271   5.859
  117OSM    H6G12248   0.467   5.354   5.741
  117OSM    C7F12249   0.627   5.212   5.666
  117OSM    H7F12250   0.647   5.105   5.689
  117OSM    H7G12251   0.719   5.254   5.711
  117OSM    C8F12252   0.604   5.232   5.516
  117OSM    H8F12253   0.529   5.155   5.490
  117OSM    H8G12254   0.705   5.221   5.471
  117OSM    C9F12255   0.548   5.365   5.479
  117OSM    H9F12256   0.606   5.443   5.530
  117OSM   C10F12257   0.432   5.396   5.419
  117OSM   H10F12258   0.400   5.501   5.427
  117OSM   C11F12259   0.343   5.307   5.337
  117OSM   H11F12260   0.248   5.281   5.388
  117OSM   H11G12261   0.394   5.210   5.323
  117OSM   C12F12262   0.331   5.362   5.194
  117OSM   H12F12263   0.294   5.467   5.195
  117OSM   H12G12264   0.253   5.305   5.139
  117OSM   C13F12265   0.458   5.371   5.113
  117OSM   H13F12266   0.522   5.280   5.120
  117OSM   H13G12267   0.519   5.457   5.147
  117OSM   C14F12268   0.423   5.391   4.965
  117OSM   H14F12269   0.519   5.421   4.916
  117OSM   H14G12270   0.355   5.479   4.963
  117OSM   C15F12271   0.367   5.269   4.890
  117OSM   H15F12272   0.267   5.252   4.935
  117OSM   H15G12273   0.426   5.179   4.918
  117OSM   C16F12274   0.358   5.284   4.735
  117OSM   H16F12275   0.308   5.196   4.692
  117OSM   H16G12276   0.462   5.276   4.696
  117OSM   C17F12277   0.278   5.395   4.677
  117OSM   H17F12278   0.325   5.489   4.713
  117OSM   H17G12279   0.170   5.392   4.704
  117OSM   C18F12280   0.294   5.412   4.524
  117OSM   H18F12281   0.221   5.490   4.492
  117OSM   H18G12282   0.270   5.320   4.468
  117OSM   H18H12283   0.394   5.452   4.497
  118OSM      N12284   0.609   4.143   6.404
  118OSM    C1512285   0.621   4.016   6.486
  118OSM   H15A12286   0.601   4.033   6.590
  118OSM   H15B12287   0.721   3.975   6.490
  118OSM   H15C12288   0.568   3.932   6.443
  118OSM    C1412289   0.482   4.213   6.427
  118OSM   H14A12290   0.393   4.154   6.413
  118OSM   H14B12291   0.477   4.304   6.369
  118OSM   H14C12292   0.484   4.250   6.528
  118OSM    C1312293   0.717   4.242   6.445
  118OSM   H13A12294   0.693   4.338   6.402
  118OSM   H13B12295   0.808   4.205   6.400
  118OSM   H13C12296   0.732   4.273   6.547
  118OSM    C1212297   0.637   4.111   6.259
  118OSM   H12A12298   0.744   4.104   6.247
  118OSM   H12B12299   0.615   4.196   6.197
  118OSM    C1112300   0.558   3.989   6.193
  118OSM   H11A12301   0.587   3.897   6.247
  118OSM   H11B12302   0.609   3.988   6.094
  118OSM      P12303   0.304   3.923   6.197
  118OSM    O1312304   0.335   3.840   6.317
  118OSM    O1412305   0.167   3.994   6.192
  118OSM    O1112306   0.319   3.837   6.064
  118OSM    O1212307   0.414   4.023   6.173
  118OSM    C1S12308   0.247   3.713   6.046
  118OSM    H1S12309   0.140   3.711   6.073
  118OSM    H1T12310   0.289   3.620   6.090
  118OSM     NF12311   0.152   3.585   5.844
  118OSM    HNF12312   0.199   3.498   5.835
  118OSM    C2S12313   0.248   3.690   5.889
  118OSM    H2S12314   0.211   3.784   5.842
  118OSM    C3S12315   0.391   3.668   5.836
  118OSM    H3S12316   0.427   3.570   5.873
  118OSM     O312317   0.489   3.765   5.864
  118OSM    HO312318   0.442   3.823   5.924
  118OSM    C4S12319   0.375   3.660   5.691
  118OSM    H4S12320   0.309   3.736   5.645
  118OSM    C5S12321   0.410   3.562   5.607
  118OSM    H5S12322   0.469   3.476   5.643
  118OSM    C6S12323   0.373   3.546   5.464
  118OSM    H6S12324   0.301   3.464   5.444
  118OSM    H6T12325   0.470   3.520   5.417
  118OSM    C7S12326   0.319   3.668   5.385
  118OSM    H7S12327   0.381   3.757   5.408
  118OSM    H7T12328   0.230   3.697   5.444
  118OSM    C8S12329   0.291   3.639   5.239
  118OSM    H8S12330   0.212   3.708   5.202
  118OSM    H8T12331   0.244   3.539   5.226
  118OSM    C9S12332   0.416   3.650   5.144
  118OSM    H9S12333   0.477   3.558   5.162
  118OSM    H9T12334   0.473   3.741   5.172
  118OSM   C10S12335   0.390   3.653   4.990
  118OSM   H10S12336   0.320   3.734   4.959
  118OSM   H10T12337   0.363   3.552   4.953
  118OSM   C11S12338   0.529   3.681   4.926
  118OSM   H11S12339   0.593   3.600   4.966
  118OSM   H11T12340   0.562   3.782   4.958
  118OSM   C12S12341   0.519   3.686   4.771
  118OSM   H12S12342   0.451   3.767   4.739
  118OSM   H12T12343   0.483   3.589   4.729
  118OSM   C13S12344   0.652   3.705   4.701
  118OSM   H13S12345   0.734   3.662   4.762
  118OSM   H13T12346   0.667   3.815   4.693
  118OSM   C14S12347   0.652   3.659   4.555
  118OSM   H14S12348   0.580   3.727   4.505
  118OSM   H14T12349   0.619   3.553   4.545
  118OSM   C15S12350   0.790   3.675   4.503
  118OSM   H15S12351   0.861   3.620   4.568
  118OSM   H15T12352   0.823   3.781   4.509
  118OSM   C16S12353   0.799   3.630   4.356
  118OSM   H16S12354   0.701   3.636   4.305
  118OSM   H16T12355   0.828   3.523   4.355
  118OSM   C17S12356   0.888   3.704   4.260
  118OSM   H17S12357   0.832   3.800   4.247
  118OSM   H17T12358   0.897   3.647   4.165
  118OSM   C18S12359   1.024   3.732   4.321
  118OSM   H18S12360   1.090   3.783   4.248
  118OSM   H18T12361   1.075   3.644   4.367
  118OSM   H18U12362   1.002   3.806   4.401
  118OSM    C1F12363   0.016   3.604   5.859
  118OSM     OF12364  -0.033   3.716   5.885
  118OSM    C2F12365  -0.068   3.476   5.843
  118OSM    H2F12366  -0.136   3.470   5.931
  118OSM    H2G12367   0.008   3.395   5.843
  118OSM    C3F12368  -0.135   3.473   5.717
  118OSM    H3F12369  -0.214   3.550   5.708
  118OSM    H3G12370  -0.184   3.373   5.705
  118OSM    C4F12371  -0.046   3.487   5.596
  118OSM    H4F12372   0.049   3.430   5.608
  118OSM    H4G12373  -0.009   3.591   5.584
  118OSM    C5F12374  -0.111   3.445   5.464
  118OSM    H5F12375  -0.191   3.516   5.434
  118OSM    H5G12376  -0.150   3.341   5.474
  118OSM    C6F12377  -0.019   3.457   5.339
  118OSM    H6F12378   0.066   3.388   5.354
  118OSM    H6G12379   0.032   3.555   5.328
  118OSM    C7F12380  -0.090   3.416   5.208
  118OSM    H7F12381  -0.171   3.484   5.175
  118OSM    H7G12382  -0.141   3.320   5.230
  118OSM    C8F12383   0.001   3.390   5.086
  118OSM    H8F12384  -0.064   3.325   5.023
  118OSM    H8G12385   0.090   3.338   5.126
  118OSM    C9F12386   0.037   3.522   5.027
  118OSM    H9F12387   0.045   3.610   5.093
  118OSM   C10F12388   0.041   3.549   4.895
  118OSM   H10F12389   0.072   3.652   4.873
  118OSM   C11F12390   0.029   3.456   4.774
  118OSM   H11F12391  -0.044   3.506   4.708
  118OSM   H11G12392  -0.021   3.358   4.790
  118OSM   C12F12393   0.165   3.431   4.709
  118OSM   H12F12394   0.168   3.334   4.655
  118OSM   H12G12395   0.245   3.420   4.786
  118OSM   C13F12396   0.221   3.522   4.590
  118OSM   H13F12397   0.283   3.455   4.527
  118OSM   H13G12398   0.288   3.601   4.630
  118OSM   C14F12399   0.107   3.582   4.496
  118OSM   H14F12400   0.034   3.640   4.556
  118OSM   H14G12401   0.049   3.491   4.467
  118OSM   C15F12402   0.160   3.651   4.369
  118OSM   H15F12403   0.075   3.712   4.331
  118OSM   H15G12404   0.181   3.582   4.284
  118OSM   C16F12405   0.279   3.742   4.392
  118OSM   H16F12406   0.362   3.671   4.407
  118OSM   H16G12407   0.267   3.816   4.474
  118OSM   C17F12408   0.322   3.824   4.263
  118OSM   H17F12409   0.297   3.769   4.170
  118OSM   H17G12410   0.431   3.846   4.262
  118OSM   C18F12411   0.249   3.958   4.239
  118OSM   H18F12412   0.284   3.985   4.137
  118OSM   H18G12413   0.274   4.038   4.312
  118OSM   H18H12414   0.139   3.943   4.247
  119OSM      N12415   2.888   0.159   7.056
  119OSM    C1512416   2.850   0.097   7.186
  119OSM   H15A12417   2.744   0.096   7.208
  119OSM   H15B12418   2.918   0.131   7.262
  119OSM   H15C12419   2.880  -0.007   7.187
  119OSM    C1412420   2.835   0.301   7.035
  119OSM   H14A12421   2.877   0.375   7.103
  119OSM   H14B12422   2.728   0.296   7.047
  119OSM   H14C12423   2.843   0.337   6.933
  119OSM    C1312424   3.032   0.153   7.035
  119OSM   H13A12425   3.089   0.193   7.117
  119OSM   H13B12426   3.054   0.206   6.943
  119OSM   H13C12427   3.072   0.052   7.039
  119OSM    C1212428   2.820   0.077   6.945
  119OSM   H12A12429   2.876  -0.010   6.915
  119OSM   H12B12430   2.820   0.128   6.850
  119OSM    C1112431   2.671   0.031   6.962
  119OSM   H11A12432   2.650  -0.006   7.065
  119OSM   H11B12433   2.647  -0.058   6.901
  119OSM      P12434   2.515   0.166   6.797
  119OSM    O1312435   2.401   0.065   6.781
  119OSM    O1412436   2.475   0.314   6.802
  119OSM    O1112437   2.625   0.151   6.686
  119OSM    O1212438   2.583   0.137   6.934
  119OSM    C1S12439   2.603   0.206   6.555
  119OSM    H1S12440   2.632   0.313   6.559
  119OSM    H1T12441   2.496   0.205   6.525
  119OSM     NF12442   2.682   0.218   6.313
  119OSM    HNF12443   2.604   0.199   6.255
  119OSM    C2S12444   2.680   0.134   6.437
  119OSM    H2S12445   2.784   0.122   6.474
  119OSM    C3S12446   2.624  -0.005   6.418
  119OSM    H3S12447   2.518   0.004   6.384
  119OSM     O312448   2.620  -0.081   6.544
  119OSM    HO312449   2.641  -0.023   6.618
  119OSM    C4S12450   2.709  -0.080   6.313
  119OSM    H4S12451   2.808  -0.112   6.348
  119OSM    C5S12452   2.665  -0.122   6.195
  119OSM    H5S12453   2.564  -0.098   6.159
  119OSM    C6S12454   2.745  -0.201   6.087
  119OSM    H6S12455   2.696  -0.202   5.987
  119OSM    H6T12456   2.736  -0.308   6.116
  119OSM    C7S12457   2.893  -0.144   6.075
  119OSM    H7S12458   2.959  -0.208   6.138
  119OSM    H7T12459   2.909  -0.042   6.117
  119OSM    C8S12460   2.950  -0.132   5.929
  119OSM    H8S12461   2.875  -0.062   5.886
  119OSM    H8T12462   2.931  -0.231   5.882
  119OSM    C9S12463   3.096  -0.088   5.907
  119OSM    H9S12464   3.172  -0.159   5.947
  119OSM    H9T12465   3.114   0.006   5.963
  119OSM   C10S12466   3.137  -0.068   5.757
  119OSM   H10S12467   3.245  -0.042   5.766
  119OSM   H10T12468   3.108   0.031   5.716
  119OSM   C11S12469   3.115  -0.179   5.663
  119OSM   H11S12470   3.005  -0.186   5.648
  119OSM   H11T12471   3.140  -0.269   5.723
  119OSM   C12S12472   3.194  -0.157   5.527
  119OSM   H12S12473   3.146  -0.228   5.457
  119OSM   H12T12474   3.301  -0.181   5.544
  119OSM   C13S12475   3.174  -0.019   5.460
  119OSM   H13S12476   3.250   0.041   5.514
  119OSM   H13T12477   3.077   0.021   5.496
  119OSM   C14S12478   3.191  -0.019   5.310
  119OSM   H14S12479   3.274  -0.082   5.271
  119OSM   H14T12480   3.215   0.082   5.273
  119OSM   C15S12481   3.060  -0.066   5.244
  119OSM   H15S12482   2.974  -0.007   5.281
  119OSM   H15T12483   3.035  -0.174   5.254
  119OSM   C16S12484   3.067  -0.054   5.092
  119OSM   H16S12485   3.171  -0.079   5.061
  119OSM   H16T12486   3.068   0.052   5.059
  119OSM   C17S12487   2.964  -0.131   5.008
  119OSM   H17S12488   2.877  -0.063   5.002
  119OSM   H17T12489   2.939  -0.224   5.063
  119OSM   C18S12490   3.018  -0.158   4.873
  119OSM   H18S12491   3.100  -0.232   4.865
  119OSM   H18T12492   3.046  -0.059   4.830
  119OSM   H18U12493   2.949  -0.209   4.802
  119OSM    C1F12494   2.756   0.323   6.309
  119OSM     OF12495   2.848   0.335   6.388
  119OSM    C2F12496   2.733   0.419   6.206
  119OSM    H2F12497   2.630   0.460   6.219
  119OSM    H2G12498   2.733   0.375   6.104
  119OSM    C3F12499   2.823   0.548   6.207
  119OSM    H3F12500   2.932   0.527   6.200
  119OSM    H3G12501   2.807   0.585   6.311
  119OSM    C4F12502   2.793   0.654   6.101
  119OSM    H4F12503   2.849   0.747   6.127
  119OSM    H4G12504   2.687   0.686   6.095
  119OSM    C5F12505   2.840   0.604   5.958
  119OSM    H5F12506   2.820   0.495   5.954
  119OSM    H5G12507   2.950   0.616   5.956
  119OSM    C6F12508   2.767   0.671   5.846
  119OSM    H6F12509   2.780   0.781   5.853
  119OSM    H6G12510   2.658   0.658   5.860
  119OSM    C7F12511   2.800   0.615   5.710
  119OSM    H7F12512   2.797   0.505   5.718
  119OSM    H7G12513   2.903   0.639   5.676
  119OSM    C8F12514   2.702   0.674   5.600
  119OSM    H8F12515   2.722   0.783   5.604
  119OSM    H8G12516   2.598   0.664   5.638
  119OSM    C9F12517   2.720   0.616   5.464
  119OSM    H9F12518   2.705   0.507   5.470
  119OSM   C10F12519   2.718   0.676   5.341
  119OSM   H10F12520   2.733   0.618   5.248
  119OSM   C11F12521   2.694   0.818   5.302
  119OSM   H11F12522   2.792   0.863   5.331
  119OSM   H11G12523   2.621   0.874   5.364
  119OSM   C12F12524   2.682   0.841   5.146
  119OSM   H12F12525   2.690   0.952   5.145
  119OSM   H12G12526   2.586   0.811   5.099
  119OSM   C13F12527   2.799   0.789   5.062
  119OSM   H13F12528   2.767   0.690   5.022
  119OSM   H13G12529   2.896   0.769   5.114
  119OSM   C14F12530   2.826   0.884   4.938
  119OSM   H14F12531   2.846   0.984   4.984
  119OSM   H14G12532   2.736   0.907   4.878
  119OSM   C15F12533   2.944   0.826   4.854
  119OSM   H15F12534   2.935   0.877   4.756
  119OSM   H15G12535   2.931   0.717   4.841
  119OSM   C16F12536   3.084   0.841   4.912
  119OSM   H16F12537   3.099   0.795   5.012
  119OSM   H16G12538   3.088   0.952   4.920
  119OSM   C17F12539   3.191   0.792   4.823
  119OSM   H17F12540   3.211   0.851   4.731
  119OSM   H17G12541   3.167   0.692   4.782
  119OSM   C18F12542   3.327   0.792   4.884
  119OSM   H18F12543   3.341   0.874   4.958
  119OSM   H18G12544   3.403   0.802   4.804
  119OSM   H18H12545   3.355   0.688   4.914
  120OSM      N12546   5.202   6.772   6.717
  120OSM    C1512547   5.171   6.666   6.817
  120OSM   H15A12548   5.100   6.601   6.768
  120OSM   H15B12549   5.124   6.696   6.910
  120OSM   H15C12550   5.253   6.598   6.835
  120OSM    C1412551   5.090   6.872   6.712
  120OSM   H14A12552   5.075   6.921   6.807
  120OSM   H14B12553   4.994   6.832   6.684
  120OSM   H14C12554   5.113   6.950   6.641
  120OSM    C1312555   5.338   6.840   6.749
  120OSM   H13A12556   5.348   6.888   6.846
  120OSM   H13B12557   5.339   6.934   6.696
  120OSM   H13C12558   5.424   6.784   6.716
  120OSM    C1212559   5.222   6.701   6.581
  120OSM   H12A12560   5.308   6.636   6.583
  120OSM   H12B12561   5.259   6.777   6.514
  120OSM    C1112562   5.102   6.636   6.508
  120OSM   H11A12563   5.139   6.602   6.409
  120OSM   H11B12564   5.022   6.712   6.492
  120OSM      P12565   4.926   6.448   6.507
  120OSM    O1312566   4.838   6.388   6.605
  120OSM    O1412567   4.860   6.539   6.410
  120OSM    O1112568   4.996   6.340   6.421
  120OSM    O1212569   5.040   6.527   6.582
  120OSM    C1S12570   4.932   6.283   6.300
  120OSM    H1S12571   4.909   6.354   6.218
  120OSM    H1T12572   4.845   6.222   6.332
  120OSM     NF12573   4.947   6.132   6.117
  120OSM    HNF12574   4.876   6.063   6.123
  120OSM    C2S12575   5.014   6.171   6.244
  120OSM    H2S12576   5.114   6.204   6.208
  120OSM    C3S12577   5.036   6.055   6.353
  120OSM    H3S12578   4.940   6.002   6.375
  120OSM     O312579   5.080   6.082   6.486
  120OSM    HO312580   5.086   6.178   6.487
  120OSM    C4S12581   5.116   5.947   6.282
  120OSM    H4S12582   5.055   5.871   6.232
  120OSM    C5S12583   5.249   5.942   6.263
  120OSM    H5S12584   5.304   6.036   6.272
  120OSM    C6S12585   5.322   5.840   6.177
  120OSM    H6S12586   5.382   5.769   6.237
  120OSM    H6T12587   5.402   5.896   6.123
  120OSM    C7S12588   5.239   5.752   6.075
  120OSM    H7S12589   5.159   5.700   6.131
  120OSM    H7T12590   5.317   5.684   6.035
  120OSM    C8S12591   5.171   5.839   5.961
  120OSM    H8S12592   5.231   5.932   5.947
  120OSM    H8T12593   5.064   5.853   5.989
  120OSM    C9S12594   5.179   5.761   5.827
  120OSM    H9S12595   5.113   5.672   5.841
  120OSM    H9T12596   5.284   5.728   5.814
  120OSM   C10S12597   5.144   5.845   5.701
  120OSM   H10S12598   5.217   5.927   5.685
  120OSM   H10T12599   5.046   5.896   5.716
  120OSM   C11S12600   5.131   5.740   5.577
  120OSM   H11S12601   5.046   5.673   5.600
  120OSM   H11T12602   5.230   5.689   5.574
  120OSM   C12S12603   5.113   5.804   5.442
  120OSM   H12S12604   5.198   5.870   5.415
  120OSM   H12T12605   5.020   5.863   5.426
  120OSM   C13S12606   5.117   5.698   5.328
  120OSM   H13S12607   5.051   5.613   5.353
  120OSM   H13T12608   5.219   5.655   5.332
  120OSM   C14S12609   5.078   5.766   5.193
  120OSM   H14S12610   5.143   5.856   5.184
  120OSM   H14T12611   4.972   5.801   5.194
  120OSM   C15S12612   5.098   5.680   5.064
  120OSM   H15S12613   5.019   5.602   5.070
  120OSM   H15T12614   5.190   5.620   5.081
  120OSM   C16S12615   5.108   5.755   4.934
  120OSM   H16S12616   5.212   5.792   4.922
  120OSM   H16T12617   5.046   5.846   4.949
  120OSM   C17S12618   5.061   5.681   4.809
  120OSM   H17S12619   4.957   5.647   4.829
  120OSM   H17T12620   5.128   5.594   4.792
  120OSM   C18S12621   5.057   5.780   4.687
  120OSM   H18S12622   5.015   5.712   4.610
  120OSM   H18T12623   5.163   5.803   4.660
  120OSM   H18U12624   4.983   5.860   4.707
  120OSM    C1F12625   4.973   6.180   5.996
  120OSM     OF12626   5.072   6.247   5.975
  120OSM    C2F12627   4.899   6.116   5.871
  120OSM    H2F12628   4.828   6.045   5.919
  120OSM    H2G12629   4.973   6.064   5.806
  120OSM    C3F12630   4.817   6.231   5.802
  120OSM    H3F12631   4.862   6.332   5.807
  120OSM    H3G12632   4.727   6.252   5.864
  120OSM    C4F12633   4.755   6.184   5.667
  120OSM    H4F12634   4.673   6.253   5.638
  120OSM    H4G12635   4.710   6.083   5.684
  120OSM    C5F12636   4.865   6.176   5.556
  120OSM    H5F12637   4.940   6.097   5.576
  120OSM    H5G12638   4.907   6.279   5.559
  120OSM    C6F12639   4.809   6.151   5.415
  120OSM    H6F12640   4.728   6.224   5.393
  120OSM    H6G12641   4.768   6.048   5.417
  120OSM    C7F12642   4.935   6.165   5.319
  120OSM    H7F12643   5.008   6.092   5.359
  120OSM    H7G12644   4.981   6.265   5.333
  120OSM    C8F12645   4.892   6.151   5.175
  120OSM    H8F12646   4.824   6.235   5.145
  120OSM    H8G12647   4.822   6.065   5.165
  120OSM    C9F12648   5.012   6.133   5.083
  120OSM    H9F12649   5.026   6.028   5.052
  120OSM   C10F12650   5.096   6.231   5.036
  120OSM   H10F12651   5.186   6.211   4.976
  120OSM   C11F12652   5.077   6.379   5.052
  120OSM   H11F12653   5.174   6.423   5.082
  120OSM   H11G12654   5.003   6.407   5.129
  120OSM   C12F12655   5.019   6.439   4.922
  120OSM   H12F12656   5.005   6.549   4.932
  120OSM   H12G12657   4.923   6.385   4.906
  120OSM   C13F12658   5.113   6.422   4.792
  120OSM   H13F12659   5.054   6.447   4.701
  120OSM   H13G12660   5.135   6.313   4.784
  120OSM   C14F12661   5.251   6.492   4.792
  120OSM   H14F12662   5.318   6.417   4.839
  120OSM   H14G12663   5.245   6.583   4.855
  120OSM   C15F12664   5.310   6.517   4.652
  120OSM   H15F12665   5.297   6.419   4.602
  120OSM   H15G12666   5.416   6.551   4.655
  120OSM   C16F12667   5.240   6.623   4.569
  120OSM   H16F12668   5.215   6.717   4.623
  120OSM   H16G12669   5.145   6.574   4.540
  120OSM   C17F12670   5.309   6.654   4.431
  120OSM   H17F12671   5.409   6.693   4.460
  120OSM   H17G12672   5.260   6.743   4.388
  120OSM   C18F12673   5.334   6.545   4.328
  120OSM   H18F12674   5.402   6.584   4.249
  120OSM   H18G12675   5.238   6.512   4.284
  120OSM   H18H12676   5.370   6.451   4.374
  121OSM      N12677   6.783   2.256   6.619
  121OSM    C1512678   6.669   2.351   6.635
  121OSM   H15A12679   6.655   2.391   6.734
  121OSM   H15B12680   6.577   2.295   6.625
  121OSM   H15C12681   6.687   2.432   6.567
  121OSM    C1412682   6.908   2.317   6.671
  121OSM   H14A12683   6.919   2.413   6.624
  121OSM   H14B12684   6.997   2.264   6.641
  121OSM   H14C12685   6.909   2.325   6.779
  121OSM    C1312686   6.757   2.128   6.688
  121OSM   H13A12687   6.683   2.073   6.632
  121OSM   H13B12688   6.734   2.149   6.792
  121OSM   H13C12689   6.841   2.060   6.684
  121OSM    C1212690   6.806   2.236   6.465
  121OSM   H12A12691   6.899   2.185   6.444
  121OSM   H12B12692   6.823   2.335   6.425
  121OSM    C1112693   6.688   2.175   6.391
  121OSM   H11A12694   6.693   2.193   6.281
  121OSM   H11B12695   6.600   2.233   6.425
  121OSM      P12696   6.756   1.928   6.357
  121OSM    O1312697   6.901   1.957   6.390
  121OSM    O1412698   6.702   1.795   6.391
  121OSM    O1112699   6.735   1.958   6.206
  121OSM    O1212700   6.671   2.042   6.430
  121OSM    C1S12701   6.608   1.950   6.149
  121OSM    H1S12702   6.551   2.043   6.171
  121OSM    H1T12703   6.543   1.864   6.175
  121OSM     NF12704   6.474   1.932   5.930
  121OSM    HNF12705   6.445   1.845   5.892
  121OSM    C2S12706   6.614   1.942   5.991
  121OSM    H2S12707   6.664   2.032   5.950
  121OSM    C3S12708   6.701   1.814   5.951
  121OSM    H3S12709   6.648   1.741   6.016
  121OSM     O312710   6.835   1.799   5.999
  121OSM    HO312711   6.848   1.853   6.078
  121OSM    C4S12712   6.688   1.770   5.808
  121OSM    H4S12713   6.622   1.684   5.794
  121OSM    C5S12714   6.754   1.811   5.700
  121OSM    H5S12715   6.840   1.879   5.711
  121OSM    C6S12716   6.743   1.745   5.566
  121OSM    H6S12717   6.695   1.817   5.496
  121OSM    H6T12718   6.689   1.648   5.571
  121OSM    C7S12719   6.884   1.725   5.502
  121OSM    H7S12720   6.951   1.662   5.564
  121OSM    H7T12721   6.921   1.828   5.483
  121OSM    C8S12722   6.872   1.660   5.366
  121OSM    H8S12723   6.811   1.723   5.297
  121OSM    H8T12724   6.828   1.559   5.378
  121OSM    C9S12725   7.009   1.636   5.314
  121OSM    H9S12726   7.053   1.572   5.393
  121OSM    H9T12727   7.065   1.733   5.314
  121OSM   C10S12728   7.019   1.566   5.178
  121OSM   H10S12729   6.954   1.615   5.103
  121OSM   H10T12730   6.986   1.460   5.182
  121OSM   C11S12731   7.166   1.542   5.134
  121OSM   H11S12732   7.224   1.467   5.193
  121OSM   H11T12733   7.222   1.638   5.125
  121OSM   C12S12734   7.157   1.494   4.989
  121OSM   H12S12735   7.117   1.578   4.929
  121OSM   H12T12736   7.087   1.409   4.978
  121OSM   C13S12737   7.287   1.442   4.928
  121OSM   H13S12738   7.327   1.350   4.975
  121OSM   H13T12739   7.361   1.524   4.916
  121OSM   C14S12740   7.267   1.388   4.783
  121OSM   H14S12741   7.232   1.466   4.713
  121OSM   H14T12742   7.186   1.313   4.797
  121OSM   C15S12743   7.390   1.309   4.728
  121OSM   H15S12744   7.363   1.251   4.637
  121OSM   H15T12745   7.426   1.246   4.812
  121OSM   C16S12746   7.508   1.409   4.704
  121OSM   H16S12747   7.566   1.413   4.799
  121OSM   H16T12748   7.473   1.512   4.685
  121OSM   C17S12749   7.598   1.380   4.586
  121OSM   H17S12750   7.536   1.380   4.493
  121OSM   H17T12751   7.638   1.277   4.596
  121OSM   C18S12752   7.708   1.482   4.570
  121OSM   H18S12753   7.740   1.481   4.464
  121OSM   H18T12754   7.793   1.463   4.639
  121OSM   H18U12755   7.671   1.585   4.588
  121OSM    C1F12756   6.407   2.042   5.936
  121OSM     OF12757   6.448   2.148   5.981
  121OSM    C2F12758   6.273   2.030   5.877
  121OSM    H2F12759   6.202   2.101   5.923
  121OSM    H2G12760   6.244   1.923   5.873
  121OSM    C3F12761   6.286   2.080   5.732
  121OSM    H3F12762   6.292   2.190   5.723
  121OSM    H3G12763   6.194   2.049   5.678
  121OSM    C4F12764   6.393   2.018   5.642
  121OSM    H4F12765   6.389   1.909   5.663
  121OSM    H4G12766   6.490   2.063   5.674
  121OSM    C5F12767   6.361   2.045   5.491
  121OSM    H5F12768   6.364   2.153   5.466
  121OSM    H5G12769   6.259   2.001   5.482
  121OSM    C6F12770   6.448   1.965   5.397
  121OSM    H6F12771   6.426   1.859   5.421
  121OSM    H6G12772   6.551   1.993   5.427
  121OSM    C7F12773   6.441   2.002   5.245
  121OSM    H7F12774   6.508   2.088   5.227
  121OSM    H7G12775   6.336   2.023   5.215
  121OSM    C8F12776   6.493   1.881   5.152
  121OSM    H8F12777   6.584   1.839   5.200
  121OSM    H8G12778   6.514   1.934   5.056
  121OSM    C9F12779   6.422   1.756   5.109
  121OSM    H9F12780   6.448   1.666   5.167
  121OSM   C10F12781   6.348   1.742   4.997
  121OSM   H10F12782   6.312   1.640   4.974
  121OSM   C11F12783   6.318   1.847   4.901
  121OSM   H11F12784   6.296   1.799   4.803
  121OSM   H11G12785   6.401   1.919   4.892
  121OSM   C12F12786   6.193   1.922   4.929
  121OSM   H12F12787   6.225   1.994   5.007
  121OSM   H12G12788   6.111   1.858   4.969
  121OSM   C13F12789   6.151   2.016   4.816
  121OSM   H13F12790   6.137   1.972   4.715
  121OSM   H13G12791   6.226   2.098   4.808
  121OSM   C14F12792   6.021   2.090   4.850
  121OSM   H14F12793   5.935   2.026   4.880
  121OSM   H14G12794   5.985   2.152   4.765
  121OSM   C15F12795   6.036   2.203   4.959
  121OSM   H15F12796   6.107   2.283   4.930
  121OSM   H15G12797   6.073   2.160   5.054
  121OSM   C16F12798   5.905   2.279   4.988
  121OSM   H16F12799   5.927   2.359   5.062
  121OSM   H16G12800   5.825   2.217   5.035
  121OSM   C17F12801   5.845   2.347   4.863
  121OSM   H17F12802   5.758   2.406   4.899
  121OSM   H17G12803   5.815   2.268   4.790
  121OSM   C18F12804   5.939   2.442   4.785
  121OSM   H18F12805   6.024   2.377   4.757
  121OSM   H18G12806   5.976   2.525   4.848
  121OSM   H18H12807   5.894   2.478   4.690
  122OSM      N12808   6.009   4.624   6.819
  122OSM    C1512809   5.947   4.596   6.681
  122OSM   H15A12810   5.846   4.633   6.690
  122OSM   H15B12811   5.951   4.492   6.651
  122OSM   H15C12812   5.997   4.657   6.607
  122OSM    C1412813   5.942   4.540   6.920
  122OSM   H14A12814   5.846   4.589   6.929
  122OSM   H14B12815   5.985   4.546   7.019
  122OSM   H14C12816   5.919   4.439   6.889
  122OSM    C1312817   6.149   4.585   6.808
  122OSM   H13A12818   6.191   4.587   6.907
  122OSM   H13B12819   6.206   4.661   6.756
  122OSM   H13C12820   6.161   4.491   6.756
  122OSM    C1212821   5.987   4.767   6.859
  122OSM   H12A12822   5.882   4.787   6.863
  122OSM   H12B12823   6.040   4.838   6.797
  122OSM    C1112824   6.043   4.798   7.002
  122OSM   H11A12825   6.035   4.714   7.074
  122OSM   H11B12826   5.980   4.880   7.043
  122OSM      P12827   6.209   4.990   6.953
  122OSM    O1312828   6.127   5.086   7.037
  122OSM    O1412829   6.356   5.005   6.958
  122OSM    O1112830   6.168   5.013   6.800
  122OSM    O1212831   6.178   4.841   6.987
  122OSM    C1S12832   6.220   4.950   6.681
  122OSM    H1S12833   6.210   4.839   6.675
  122OSM    H1T12834   6.328   4.974   6.670
  122OSM     NF12835   6.193   4.948   6.423
  122OSM    HNF12836   6.250   5.010   6.369
  122OSM    C2S12837   6.153   5.007   6.551
  122OSM    H2S12838   6.045   4.981   6.560
  122OSM    C3S12839   6.150   5.158   6.554
  122OSM    H3S12840   6.257   5.189   6.551
  122OSM     O312841   6.102   5.217   6.673
  122OSM    HO312842   6.090   5.138   6.727
  122OSM    C4S12843   6.080   5.223   6.441
  122OSM    H4S12844   6.122   5.205   6.341
  122OSM    C5S12845   5.967   5.294   6.433
  122OSM    H5S12846   5.907   5.292   6.525
  122OSM    C6S12847   5.903   5.362   6.308
  122OSM    H6S12848   5.915   5.472   6.315
  122OSM    H6T12849   5.796   5.333   6.311
  122OSM    C7S12850   5.970   5.318   6.178
  122OSM    H7S12851   5.953   5.209   6.165
  122OSM    H7T12852   6.081   5.322   6.177
  122OSM    C8S12853   5.928   5.386   6.050
  122OSM    H8S12854   5.971   5.488   6.042
  122OSM    H8T12855   5.818   5.397   6.046
  122OSM    C9S12856   5.994   5.310   5.930
  122OSM    H9S12857   5.960   5.205   5.936
  122OSM    H9T12858   6.103   5.305   5.947
  122OSM   C10S12859   5.948   5.369   5.793
  122OSM   H10S12860   5.961   5.479   5.782
  122OSM   H10T12861   5.841   5.352   5.769
  122OSM   C11S12862   6.032   5.333   5.670
  122OSM   H11S12863   6.022   5.223   5.662
  122OSM   H11T12864   6.141   5.349   5.686
  122OSM   C12S12865   5.989   5.399   5.540
  122OSM   H12S12866   5.990   5.510   5.552
  122OSM   H12T12867   5.881   5.390   5.518
  122OSM   C13S12868   6.071   5.351   5.422
  122OSM   H13S12869   6.068   5.240   5.416
  122OSM   H13T12870   6.175   5.381   5.446
  122OSM   C14S12871   6.034   5.429   5.299
  122OSM   H14S12872   6.056   5.538   5.306
  122OSM   H14T12873   5.932   5.398   5.268
  122OSM   C15S12874   6.124   5.400   5.182
  122OSM   H15S12875   6.113   5.295   5.148
  122OSM   H15T12876   6.230   5.414   5.213
  122OSM   C16S12877   6.089   5.490   5.060
  122OSM   H16S12878   6.100   5.598   5.084
  122OSM   H16T12879   5.989   5.457   5.022
  122OSM   C17S12880   6.182   5.471   4.947
  122OSM   H17S12881   6.281   5.512   4.978
  122OSM   H17T12882   6.148   5.531   4.860
  122OSM   C18S12883   6.209   5.324   4.906
  122OSM   H18S12884   6.289   5.286   4.973
  122OSM   H18T12885   6.239   5.311   4.800
  122OSM   H18U12886   6.118   5.266   4.934
  122OSM    C1F12887   6.183   4.814   6.398
  122OSM     OF12888   6.129   4.742   6.479
  122OSM    C2F12889   6.243   4.775   6.264
  122OSM    H2F12890   6.284   4.865   6.212
  122OSM    H2G12891   6.150   4.760   6.205
  122OSM    C3F12892   6.341   4.656   6.272
  122OSM    H3F12893   6.288   4.566   6.311
  122OSM    H3G12894   6.428   4.686   6.333
  122OSM    C4F12895   6.398   4.628   6.128
  122OSM    H4F12896   6.460   4.535   6.127
  122OSM    H4G12897   6.459   4.711   6.087
  122OSM    C5F12898   6.288   4.607   6.024
  122OSM    H5F12899   6.231   4.702   6.014
  122OSM    H5G12900   6.230   4.523   6.069
  122OSM    C6F12901   6.345   4.562   5.889
  122OSM    H6F12902   6.387   4.460   5.902
  122OSM    H6G12903   6.423   4.638   5.863
  122OSM    C7F12904   6.250   4.561   5.770
  122OSM    H7F12905   6.175   4.641   5.783
  122OSM    H7G12906   6.189   4.468   5.763
  122OSM    C8F12907   6.315   4.579   5.634
  122OSM    H8F12908   6.384   4.666   5.634
  122OSM    H8G12909   6.240   4.600   5.555
  122OSM    C9F12910   6.407   4.466   5.594
  122OSM    H9F12911   6.486   4.441   5.668
  122OSM   C10F12912   6.393   4.398   5.473
  122OSM   H10F12913   6.467   4.318   5.457
  122OSM   C11F12914   6.298   4.416   5.361
  122OSM   H11F12915   6.277   4.525   5.351
  122OSM   H11G12916   6.200   4.366   5.377
  122OSM   C12F12917   6.364   4.363   5.232
  122OSM   H12F12918   6.411   4.264   5.251
  122OSM   H12G12919   6.437   4.441   5.201
  122OSM   C13F12920   6.266   4.347   5.112
  122OSM   H13F12921   6.191   4.429   5.110
  122OSM   H13G12922   6.231   4.242   5.122
  122OSM   C14F12923   6.325   4.358   4.968
  122OSM   H14F12924   6.393   4.272   4.952
  122OSM   H14G12925   6.382   4.450   4.945
  122OSM   C15F12926   6.225   4.359   4.857
  122OSM   H15F12927   6.158   4.446   4.876
  122OSM   H15G12928   6.170   4.263   4.871
  122OSM   C16F12929   6.298   4.359   4.717
  122OSM   H16F12930   6.355   4.264   4.705
  122OSM   H16G12931   6.380   4.434   4.716
  122OSM   C17F12932   6.196   4.397   4.598
  122OSM   H17F12933   6.153   4.495   4.628
  122OSM   H17G12934   6.106   4.335   4.581
  122OSM   C18F12935   6.247   4.410   4.461
  122OSM   H18F12936   6.256   4.309   4.415
  122OSM   H18G12937   6.348   4.455   4.472
  122OSM   H18H12938   6.175   4.471   4.403
  123OSM      N12939   2.648   3.526   1.901
  123OSM    C1512940   2.593   3.410   1.975
  123OSM   H15A12941   2.506   3.441   2.031
  123OSM   H15B12942   2.658   3.365   2.048
  123OSM   H15C12943   2.559   3.336   1.904
  123OSM    C1412944   2.773   3.488   1.850
  123OSM   H14A12945   2.845   3.467   1.928
  123OSM   H14B12946   2.812   3.569   1.791
  123OSM   H14C12947   2.768   3.399   1.789
  123OSM    C1312948   2.556   3.560   1.790
  123OSM   H13A12949   2.595   3.631   1.719
  123OSM   H13B12950   2.470   3.613   1.829
  123OSM   H13C12951   2.521   3.478   1.729
  123OSM    C1212952   2.658   3.636   2.004
  123OSM   H12A12953   2.681   3.729   1.955
  123OSM   H12B12954   2.742   3.612   2.068
  123OSM    C1112955   2.536   3.659   2.098
  123OSM   H11A12956   2.557   3.759   2.142
  123OSM   H11B12957   2.527   3.576   2.172
  123OSM      P12958   2.272   3.637   2.093
  123OSM    O1312959   2.162   3.714   2.020
  123OSM    O1412960   2.261   3.491   2.118
  123OSM    O1112961   2.295   3.708   2.233
  123OSM    O1212962   2.413   3.665   2.022
  123OSM    C1S12963   2.184   3.766   2.301
  123OSM    H1S12964   2.084   3.733   2.267
  123OSM    H1T12965   2.183   3.874   2.274
  123OSM     NF12966   2.086   3.811   2.516
  123OSM    HNF12967   2.076   3.910   2.526
  123OSM    C2S12968   2.207   3.761   2.454
  123OSM    H2S12969   2.220   3.655   2.485
  123OSM    C3S12970   2.340   3.841   2.499
  123OSM    H3S12971   2.325   3.950   2.486
  123OSM     O312972   2.455   3.798   2.432
  123OSM    HO312973   2.432   3.734   2.365
  123OSM    C4S12974   2.368   3.805   2.643
  123OSM    H4S12975   2.430   3.715   2.658
  123OSM    C5S12976   2.319   3.872   2.754
  123OSM    H5S12977   2.247   3.953   2.733
  123OSM    C6S12978   2.342   3.842   2.900
  123OSM    H6S12979   2.241   3.825   2.942
  123OSM    H6T12980   2.387   3.931   2.948
  123OSM    C7S12981   2.414   3.712   2.945
  123OSM    H7S12982   2.518   3.711   2.906
  123OSM    H7T12983   2.372   3.622   2.895
  123OSM    C8S12984   2.422   3.687   3.094
  123OSM    H8S12985   2.319   3.670   3.133
  123OSM    H8T12986   2.464   3.775   3.147
  123OSM    C9S12987   2.503   3.561   3.125
  123OSM    H9S12988   2.598   3.583   3.071
  123OSM    H9T12989   2.453   3.479   3.071
  123OSM   C10S12990   2.521   3.540   3.276
  123OSM   H10S12991   2.419   3.548   3.317
  123OSM   H10T12992   2.582   3.625   3.315
  123OSM   C11S12993   2.569   3.394   3.310
  123OSM   H11S12994   2.640   3.357   3.233
  123OSM   H11T12995   2.480   3.327   3.305
  123OSM   C12S12996   2.649   3.386   3.433
  123OSM   H12S12997   2.734   3.457   3.422
  123OSM   H12T12998   2.696   3.285   3.434
  123OSM   C13S12999   2.580   3.381   3.566
  123OSM   H13S13000   2.659   3.377   3.644
  123OSM   H13T13001   2.515   3.292   3.581
  123OSM   C14S13002   2.489   3.500   3.597
  123OSM   H14S13003   2.410   3.502   3.519
  123OSM   H14T13004   2.560   3.584   3.585
  123OSM   C15S13005   2.427   3.486   3.736
  123OSM   H15S13006   2.516   3.471   3.801
  123OSM   H15T13007   2.372   3.390   3.734
  123OSM   C16S13008   2.337   3.604   3.778
  123OSM   H16S13009   2.244   3.603   3.719
  123OSM   H16T13010   2.398   3.692   3.748
  123OSM   C17S13011   2.294   3.594   3.923
  123OSM   H17S13012   2.384   3.595   3.988
  123OSM   H17T13013   2.249   3.494   3.941
  123OSM   C18S13014   2.190   3.697   3.961
  123OSM   H18S13015   2.100   3.674   3.899
  123OSM   H18T13016   2.223   3.799   3.933
  123OSM   H18U13017   2.159   3.691   4.067
  123OSM    C1F13018   1.968   3.739   2.514
  123OSM     OF13019   1.963   3.625   2.475
  123OSM    C2F13020   1.845   3.803   2.571
  123OSM    H2F13021   1.763   3.780   2.500
  123OSM    H2G13022   1.858   3.913   2.580
  123OSM    C3F13023   1.816   3.745   2.709
  123OSM    H3F13024   1.786   3.638   2.715
  123OSM    H3G13025   1.722   3.797   2.736
  123OSM    C4F13026   1.923   3.764   2.815
  123OSM    H4F13027   1.957   3.869   2.827
  123OSM    H4G13028   2.015   3.702   2.803
  123OSM    C5F13029   1.854   3.745   2.957
  123OSM    H5F13030   1.807   3.644   2.950
  123OSM    H5G13031   1.761   3.805   2.968
  123OSM    C6F13032   1.935   3.776   3.082
  123OSM    H6F13033   1.947   3.886   3.086
  123OSM    H6G13034   2.037   3.732   3.073
  123OSM    C7F13035   1.869   3.731   3.209
  123OSM    H7F13036   1.856   3.621   3.196
  123OSM    H7G13037   1.768   3.773   3.228
  123OSM    C8F13038   1.952   3.743   3.336
  123OSM    H8F13039   1.964   3.852   3.354
  123OSM    H8G13040   2.054   3.699   3.325
  123OSM    C9F13041   1.880   3.670   3.447
  123OSM    H9F13042   1.860   3.565   3.419
  123OSM   C10F13043   1.818   3.722   3.557
  123OSM   H10F13044   1.776   3.640   3.616
  123OSM   C11F13045   1.815   3.862   3.605
  123OSM   H11F13046   1.706   3.881   3.611
  123OSM   H11G13047   1.842   3.940   3.531
  123OSM   C12F13048   1.889   3.870   3.738
  123OSM   H12F13049   1.982   3.811   3.739
  123OSM   H12G13050   1.833   3.821   3.820
  123OSM   C13F13051   1.924   4.018   3.780
  123OSM   H13F13052   1.833   4.082   3.776
  123OSM   H13G13053   1.989   4.060   3.700
  123OSM   C14F13054   1.992   4.036   3.919
  123OSM   H14F13055   2.043   4.134   3.915
  123OSM   H14G13056   2.065   3.956   3.942
  123OSM   C15F13057   1.893   4.055   4.035
  123OSM   H15F13058   1.849   3.965   4.082
  123OSM   H15G13059   1.805   4.114   4.000
  123OSM   C16F13060   1.969   4.122   4.154
  123OSM   H16F13061   2.056   4.063   4.191
  123OSM   H16G13062   1.891   4.115   4.233
  123OSM   C17F13063   1.992   4.278   4.153
  123OSM   H17F13064   1.896   4.332   4.138
  123OSM   H17G13065   2.054   4.316   4.069
  123OSM   C18F13066   2.034   4.330   4.292
  123OSM   H18F13067   1.949   4.314   4.362
  123OSM   H18G13068   2.047   4.440   4.284
  123OSM   H18H13069   2.133   4.288   4.321
  124OSM      N13070   2.302   5.814   1.992
  124OSM    C1513071   2.212   5.898   1.906
  124OSM   H15A13072   2.280   5.960   1.850
  124OSM   H15B13073   2.154   5.967   1.964
  124OSM   H15C13074   2.151   5.828   1.850
  124OSM    C1413075   2.356   5.702   1.907
  124OSM   H14A13076   2.280   5.630   1.882
  124OSM   H14B13077   2.441   5.653   1.953
  124OSM   H14C13078   2.390   5.747   1.815
  124OSM    C1313079   2.414   5.900   2.060
  124OSM   H13A13080   2.472   5.832   2.121
  124OSM   H13B13081   2.371   5.984   2.113
  124OSM   H13C13082   2.470   5.938   1.975
  124OSM    C1213083   2.221   5.756   2.103
  124OSM   H12A13084   2.211   5.831   2.180
  124OSM   H12B13085   2.271   5.676   2.156
  124OSM    C1113086   2.083   5.693   2.080
  124OSM   H11A13087   2.018   5.761   2.021
  124OSM   H11B13088   2.025   5.667   2.171
  124OSM      P13089   2.157   5.443   2.070
  124OSM    O1313090   2.049   5.343   2.099
  124OSM    O1413091   2.265   5.404   1.981
  124OSM    O1113092   2.221   5.500   2.203
  124OSM    O1213093   2.093   5.568   2.006
  124OSM    C1S13094   2.354   5.465   2.242
  124OSM    H1S13095   2.428   5.535   2.199
  124OSM    H1T13096   2.376   5.360   2.212
  124OSM     NF13097   2.495   5.447   2.428
  124OSM    HNF13098   2.533   5.361   2.461
  124OSM    C2S13099   2.355   5.471   2.394
  124OSM    H2S13100   2.321   5.571   2.428
  124OSM    C3S13101   2.254   5.361   2.456
  124OSM    H3S13102   2.269   5.257   2.420
  124OSM     O313103   2.119   5.368   2.417
  124OSM    HO313104   2.126   5.433   2.347
  124OSM    C4S13105   2.279   5.345   2.605
  124OSM    H4S13106   2.348   5.264   2.634
  124OSM    C5S13107   2.218   5.412   2.700
  124OSM    H5S13108   2.145   5.487   2.666
  124OSM    C6S13109   2.240   5.405   2.852
  124OSM    H6S13110   2.141   5.406   2.901
  124OSM    H6T13111   2.284   5.500   2.889
  124OSM    C7S13112   2.317   5.290   2.918
  124OSM    H7S13113   2.421   5.307   2.882
  124OSM    H7T13114   2.286   5.192   2.878
  124OSM    C8S13115   2.308   5.299   3.071
  124OSM    H8S13116   2.201   5.313   3.096
  124OSM    H8T13117   2.356   5.397   3.092
  124OSM    C9S13118   2.364   5.176   3.140
  124OSM    H9S13119   2.466   5.156   3.099
  124OSM    H9T13120   2.309   5.089   3.099
  124OSM   C10S13121   2.373   5.186   3.292
  124OSM   H10S13122   2.445   5.267   3.318
  124OSM   H10T13123   2.406   5.088   3.333
  124OSM   C11S13124   2.235   5.216   3.357
  124OSM   H11S13125   2.160   5.146   3.316
  124OSM   H11T13126   2.199   5.317   3.327
  124OSM   C12S13127   2.229   5.201   3.512
  124OSM   H12S13128   2.310   5.262   3.556
  124OSM   H12T13129   2.240   5.093   3.533
  124OSM   C13S13130   2.101   5.263   3.572
  124OSM   H13S13131   2.007   5.214   3.539
  124OSM   H13T13132   2.085   5.366   3.532
  124OSM   C14S13133   2.102   5.276   3.720
  124OSM   H14S13134   2.187   5.345   3.738
  124OSM   H14T13135   2.112   5.172   3.758
  124OSM   C15S13136   1.976   5.345   3.767
  124OSM   H15S13137   1.899   5.267   3.782
  124OSM   H15T13138   1.942   5.425   3.698
  124OSM   C16S13139   2.001   5.409   3.909
  124OSM   H16S13140   2.107   5.442   3.916
  124OSM   H16T13141   1.988   5.341   3.996
  124OSM   C17S13142   1.917   5.532   3.942
  124OSM   H17S13143   1.925   5.566   4.047
  124OSM   H17T13144   1.809   5.509   3.933
  124OSM   C18S13145   1.947   5.657   3.855
  124OSM   H18S13146   2.027   5.721   3.897
  124OSM   H18T13147   1.859   5.725   3.858
  124OSM   H18U13148   1.967   5.633   3.749
  124OSM    C1F13149   2.587   5.542   2.417
  124OSM     OF13150   2.546   5.654   2.382
  124OSM    C2F13151   2.730   5.519   2.450
  124OSM    H2F13152   2.776   5.474   2.360
  124OSM    H2G13153   2.734   5.446   2.534
  124OSM    C3F13154   2.804   5.647   2.489
  124OSM    H3F13155   2.758   5.687   2.581
  124OSM    H3G13156   2.791   5.723   2.409
  124OSM    C4F13157   2.952   5.630   2.526
  124OSM    H4F13158   3.001   5.609   2.428
  124OSM    H4G13159   2.950   5.547   2.599
  124OSM    C5F13160   3.027   5.749   2.593
  124OSM    H5F13161   3.000   5.837   2.530
  124OSM    H5G13162   3.136   5.728   2.587
  124OSM    C6F13163   2.973   5.765   2.731
  124OSM    H6F13164   2.862   5.761   2.734
  124OSM    H6G13165   3.002   5.867   2.765
  124OSM    C7F13166   3.029   5.663   2.830
  124OSM    H7F13167   3.138   5.640   2.821
  124OSM    H7G13168   3.001   5.563   2.790
  124OSM    C8F13169   2.968   5.672   2.970
  124OSM    H8F13170   2.864   5.710   2.965
  124OSM    H8G13171   3.014   5.755   3.028
  124OSM    C9F13172   2.981   5.538   3.045
  124OSM    H9F13173   2.944   5.449   2.993
  124OSM   C10F13174   3.041   5.519   3.165
  124OSM   H10F13175   3.039   5.415   3.200
  124OSM   C11F13176   3.124   5.620   3.244
  124OSM   H11F13177   3.146   5.695   3.165
  124OSM   H11G13178   3.219   5.581   3.285
  124OSM   C12F13179   3.046   5.679   3.355
  124OSM   H12F13180   2.952   5.727   3.322
  124OSM   H12G13181   3.105   5.764   3.396
  124OSM   C13F13182   3.011   5.571   3.466
  124OSM   H13F13183   3.101   5.507   3.479
  124OSM   H13G13184   2.929   5.506   3.428
  124OSM   C14F13185   2.969   5.635   3.604
  124OSM   H14F13186   2.864   5.668   3.591
  124OSM   H14G13187   3.033   5.726   3.613
  124OSM   C15F13188   2.973   5.533   3.724
  124OSM   H15F13189   3.077   5.502   3.750
  124OSM   H15G13190   2.919   5.443   3.686
  124OSM   C16F13191   2.905   5.573   3.862
  124OSM   H16F13192   2.804   5.610   3.833
  124OSM   H16G13193   2.955   5.665   3.898
  124OSM   C17F13194   2.893   5.455   3.959
  124OSM   H17F13195   2.899   5.349   3.925
  124OSM   H17G13196   2.795   5.459   4.011
  124OSM   C18F13197   2.997   5.469   4.074
  124OSM   H18F13198   2.985   5.565   4.128
  124OSM   H18G13199   3.097   5.463   4.025
  124OSM   H18H13200   2.997   5.378   4.137
  125OSM      N13201   3.577   1.420   1.997
  125OSM    C1513202   3.541   1.496   1.877
  125OSM   H15A13203   3.594   1.452   1.794
  125OSM   H15B13204   3.566   1.600   1.886
  125OSM   H15C13205   3.434   1.487   1.862
  125OSM    C1413206   3.522   1.283   1.986
  125OSM   H14A13207   3.548   1.221   2.070
  125OSM   H14B13208   3.564   1.233   1.900
  125OSM   H14C13209   3.414   1.279   1.982
  125OSM    C1313210   3.730   1.394   2.000
  125OSM   H13A13211   3.784   1.483   1.974
  125OSM   H13B13212   3.758   1.316   1.931
  125OSM   H13C13213   3.758   1.356   2.098
  125OSM    C1213214   3.539   1.488   2.124
  125OSM   H12A13215   3.593   1.444   2.206
  125OSM   H12B13216   3.432   1.475   2.137
  125OSM    C1113217   3.574   1.644   2.145
  125OSM   H11A13218   3.560   1.666   2.254
  125OSM   H11B13219   3.496   1.693   2.083
  125OSM      P13220   3.742   1.824   2.098
  125OSM    O1313221   3.886   1.850   2.084
  125OSM    O1413222   3.659   1.884   1.994
  125OSM    O1113223   3.696   1.875   2.239
  125OSM    O1213224   3.706   1.675   2.103
  125OSM    C1S13225   3.593   1.975   2.261
  125OSM    H1S13226   3.507   1.953   2.194
  125OSM    H1T13227   3.636   2.076   2.249
  125OSM     NF13228   3.445   2.087   2.418
  125OSM    HNF13229   3.466   2.177   2.456
  125OSM    C2S13230   3.545   1.981   2.411
  125OSM    H2S13231   3.500   1.883   2.437
  125OSM    C3S13232   3.664   1.997   2.500
  125OSM    H3S13233   3.718   2.094   2.490
  125OSM     O313234   3.764   1.899   2.485
  125OSM    HO313235   3.741   1.852   2.404
  125OSM    C4S13236   3.616   1.979   2.637
  125OSM    H4S13237   3.558   1.888   2.657
  125OSM    C5S13238   3.638   2.060   2.740
  125OSM    H5S13239   3.691   2.155   2.727
  125OSM    C6S13240   3.584   2.025   2.877
  125OSM    H6S13241   3.514   1.939   2.883
  125OSM    H6T13242   3.539   2.121   2.908
  125OSM    C7S13243   3.692   2.005   2.983
  125OSM    H7S13244   3.761   2.092   2.993
  125OSM    H7T13245   3.757   1.918   2.959
  125OSM    C8S13246   3.631   1.981   3.126
  125OSM    H8S13247   3.705   1.936   3.197
  125OSM    H8T13248   3.541   1.916   3.122
  125OSM    C9S13249   3.583   2.112   3.197
  125OSM    H9S13250   3.493   2.151   3.145
  125OSM    H9T13251   3.652   2.197   3.178
  125OSM   C10S13252   3.556   2.101   3.347
  125OSM   H10S13253   3.654   2.081   3.396
  125OSM   H10T13254   3.488   2.013   3.354
  125OSM   C11S13255   3.492   2.224   3.423
  125OSM   H11S13256   3.382   2.216   3.420
  125OSM   H11T13257   3.534   2.310   3.367
  125OSM   C12S13258   3.510   2.241   3.571
  125OSM   H12S13259   3.417   2.290   3.608
  125OSM   H12T13260   3.595   2.308   3.595
  125OSM   C13S13261   3.525   2.115   3.659
  125OSM   H13S13262   3.621   2.063   3.644
  125OSM   H13T13263   3.443   2.046   3.629
  125OSM   C14S13264   3.505   2.130   3.815
  125OSM   H14S13265   3.405   2.178   3.819
  125OSM   H14T13266   3.595   2.184   3.851
  125OSM   C15S13267   3.492   1.994   3.881
  125OSM   H15S13268   3.587   1.944   3.854
  125OSM   H15T13269   3.415   1.934   3.828
  125OSM   C16S13270   3.462   2.001   4.041
  125OSM   H16S13271   3.372   2.064   4.059
  125OSM   H16T13272   3.548   2.057   4.082
  125OSM   C17S13273   3.461   1.861   4.104
  125OSM   H17S13274   3.559   1.810   4.118
  125OSM   H17T13275   3.407   1.789   4.040
  125OSM   C18S13276   3.391   1.875   4.237
  125OSM   H18S13277   3.440   1.807   4.309
  125OSM   H18T13278   3.280   1.867   4.229
  125OSM   H18U13279   3.405   1.982   4.260
  125OSM    C1F13280   3.319   2.063   2.375
  125OSM     OF13281   3.283   1.953   2.336
  125OSM    C2F13282   3.228   2.175   2.381
  125OSM    H2F13283   3.205   2.209   2.278
  125OSM    H2G13284   3.286   2.262   2.420
  125OSM    C3F13285   3.109   2.138   2.473
  125OSM    H3F13286   3.043   2.051   2.454
  125OSM    H3G13287   3.049   2.231   2.476
  125OSM    C4F13288   3.154   2.104   2.610
  125OSM    H4F13289   3.230   2.184   2.621
  125OSM    H4G13290   3.208   2.007   2.612
  125OSM    C5F13291   3.059   2.115   2.722
  125OSM    H5F13292   2.968   2.051   2.712
  125OSM    H5G13293   3.021   2.219   2.733
  125OSM    C6F13294   3.130   2.082   2.854
  125OSM    H6F13295   3.222   2.141   2.872
  125OSM    H6G13296   3.173   1.981   2.834
  125OSM    C7F13297   3.040   2.100   2.979
  125OSM    H7F13298   2.952   2.033   2.970
  125OSM    H7G13299   3.008   2.206   2.985
  125OSM    C8F13300   3.110   2.048   3.108
  125OSM    H8F13301   3.153   2.140   3.153
  125OSM    H8G13302   3.181   1.968   3.078
  125OSM    C9F13303   3.012   1.996   3.203
  125OSM    H9F13304   2.913   1.967   3.166
  125OSM   C10F13305   3.021   1.996   3.338
  125OSM   H10F13306   2.935   1.950   3.389
  125OSM   C11F13307   3.142   2.036   3.415
  125OSM   H11F13308   3.221   2.079   3.350
  125OSM   H11G13309   3.189   1.949   3.464
  125OSM   C12F13310   3.102   2.147   3.520
  125OSM   H12F13311   3.071   2.234   3.459
  125OSM   H12G13312   3.189   2.176   3.583
  125OSM   C13F13313   2.990   2.096   3.613
  125OSM   H13F13314   3.011   1.991   3.641
  125OSM   H13G13315   2.888   2.090   3.569
  125OSM   C14F13316   2.982   2.178   3.737
  125OSM   H14F13317   2.982   2.284   3.705
  125OSM   H14G13318   3.077   2.148   3.787
  125OSM   C15F13319   2.861   2.161   3.829
  125OSM   H15F13320   2.880   2.059   3.869
  125OSM   H15G13321   2.765   2.168   3.774
  125OSM   C16F13322   2.864   2.269   3.942
  125OSM   H16F13323   2.780   2.253   4.013
  125OSM   H16G13324   2.843   2.365   3.889
  125OSM   C17F13325   2.994   2.287   4.021
  125OSM   H17F13326   3.054   2.195   4.002
  125OSM   H17G13327   2.974   2.292   4.130
  125OSM   C18F13328   3.078   2.405   3.966
  125OSM   H18F13329   3.166   2.414   4.032
  125OSM   H18G13330   3.027   2.503   3.971
  125OSM   H18H13331   3.109   2.385   3.861
  126OSM      N13332   1.305   2.325   1.591
  126OSM    C1513333   1.420   2.414   1.546
  126OSM   H15A13334   1.516   2.381   1.584
  126OSM   H15B13335   1.405   2.516   1.578
  126OSM   H15C13336   1.417   2.421   1.439
  126OSM    C1413337   1.180   2.399   1.570
  126OSM   H14A13338   1.157   2.404   1.465
  126OSM   H14B13339   1.187   2.499   1.610
  126OSM   H14C13340   1.100   2.353   1.625
  126OSM    C1313341   1.318   2.198   1.505
  126OSM   H13A13342   1.233   2.132   1.505
  126OSM   H13B13343   1.406   2.149   1.545
  126OSM   H13C13344   1.341   2.219   1.402
  126OSM    C1213345   1.310   2.289   1.738
  126OSM   H12A13346   1.217   2.239   1.761
  126OSM   H12B13347   1.306   2.373   1.806
  126OSM    C1113348   1.417   2.192   1.785
  126OSM   H11A13349   1.418   2.097   1.726
  126OSM   H11B13350   1.382   2.158   1.885
  126OSM      P13351   1.591   2.344   1.889
  126OSM    O1313352   1.718   2.394   1.836
  126OSM    O1413353   1.485   2.447   1.911
  126OSM    O1113354   1.616   2.259   2.023
  126OSM    O1213355   1.549   2.237   1.781
  126OSM    C1S13356   1.692   2.306   2.133
  126OSM    H1S13357   1.707   2.416   2.126
  126OSM    H1T13358   1.790   2.255   2.130
  126OSM     NF13359   1.688   2.324   2.378
  126OSM    HNF13360   1.755   2.268   2.425
  126OSM    C2S13361   1.625   2.259   2.263
  126OSM    H2S13362   1.520   2.295   2.254
  126OSM    C3S13363   1.608   2.101   2.258
  126OSM    H3S13364   1.710   2.064   2.234
  126OSM     O313365   1.534   2.039   2.151
  126OSM    HO313366   1.515   2.108   2.087
  126OSM    C4S13367   1.583   2.038   2.397
  126OSM    H4S13368   1.681   2.028   2.446
  126OSM    C5S13369   1.473   2.019   2.472
  126OSM    H5S13370   1.377   2.052   2.429
  126OSM    C6S13371   1.476   1.990   2.620
  126OSM    H6S13372   1.477   1.881   2.643
  126OSM    H6T13373   1.381   2.031   2.660
  126OSM    C7S13374   1.595   2.048   2.700
  126OSM    H7S13375   1.578   2.158   2.690
  126OSM    H7T13376   1.688   2.012   2.652
  126OSM    C8S13377   1.597   2.015   2.846
  126OSM    H8S13378   1.589   1.905   2.857
  126OSM    H8T13379   1.513   2.054   2.908
  126OSM    C9S13380   1.715   2.086   2.914
  126OSM    H9S13381   1.702   2.196   2.914
  126OSM    H9T13382   1.817   2.075   2.870
  126OSM   C10S13383   1.712   2.050   3.059
  126OSM   H10S13384   1.731   1.941   3.061
  126OSM   H10T13385   1.614   2.072   3.107
  126OSM   C11S13386   1.823   2.121   3.126
  126OSM   H11S13387   1.807   2.231   3.115
  126OSM   H11T13388   1.919   2.104   3.074
  126OSM   C12S13389   1.827   2.081   3.275
  126OSM   H12S13390   1.865   1.977   3.276
  126OSM   H12T13391   1.719   2.086   3.302
  126OSM   C13S13392   1.922   2.170   3.367
  126OSM   H13S13393   1.912   2.278   3.343
  126OSM   H13T13394   2.029   2.154   3.342
  126OSM   C14S13395   1.900   2.147   3.522
  126OSM   H14S13396   1.909   2.039   3.547
  126OSM   H14T13397   1.803   2.186   3.559
  126OSM   C15S13398   2.013   2.215   3.603
  126OSM   H15S13399   2.026   2.320   3.568
  126OSM   H15T13400   2.104   2.158   3.572
  126OSM   C16S13401   2.009   2.212   3.756
  126OSM   H16S13402   1.996   2.106   3.788
  126OSM   H16T13403   1.926   2.279   3.788
  126OSM   C17S13404   2.140   2.272   3.810
  126OSM   H17S13405   2.141   2.383   3.803
  126OSM   H17T13406   2.227   2.231   3.754
  126OSM   C18S13407   2.151   2.227   3.958
  126OSM   H18S13408   2.063   2.269   4.012
  126OSM   H18T13409   2.248   2.246   4.009
  126OSM   H18U13410   2.132   2.118   3.951
  126OSM    C1F13411   1.697   2.452   2.406
  126OSM     OF13412   1.623   2.528   2.351
  126OSM    C2F13413   1.796   2.501   2.502
  126OSM    H2F13414   1.893   2.453   2.477
  126OSM    H2G13415   1.766   2.466   2.604
  126OSM    C3F13416   1.808   2.655   2.514
  126OSM    H3F13417   1.707   2.701   2.513
  126OSM    H3G13418   1.875   2.690   2.433
  126OSM    C4F13419   1.862   2.687   2.656
  126OSM    H4F13420   1.943   2.616   2.682
  126OSM    H4G13421   1.785   2.669   2.733
  126OSM    C5F13422   1.912   2.827   2.686
  126OSM    H5F13423   1.832   2.902   2.667
  126OSM    H5G13424   1.984   2.847   2.603
  126OSM    C6F13425   1.971   2.869   2.824
  126OSM    H6F13426   1.999   2.975   2.808
  126OSM    H6G13427   2.059   2.808   2.855
  126OSM    C7F13428   1.869   2.868   2.937
  126OSM    H7F13429   1.820   2.768   2.935
  126OSM    H7G13430   1.788   2.942   2.922
  126OSM    C8F13431   1.958   2.884   3.066
  126OSM    H8F13432   1.987   2.991   3.069
  126OSM    H8G13433   2.052   2.825   3.063
  126OSM    C9F13434   1.883   2.846   3.194
  126OSM    H9F13435   1.883   2.736   3.203
  126OSM   C10F13436   1.820   2.912   3.289
  126OSM   H10F13437   1.759   2.860   3.364
  126OSM   C11F13438   1.823   3.066   3.297
  126OSM   H11F13439   1.924   3.101   3.325
  126OSM   H11G13440   1.760   3.105   3.381
  126OSM   C12F13441   1.784   3.147   3.166
  126OSM   H12F13442   1.692   3.105   3.121
  126OSM   H12G13443   1.868   3.150   3.093
  126OSM   C13F13444   1.745   3.295   3.205
  126OSM   H13F13445   1.762   3.357   3.115
  126OSM   H13G13446   1.818   3.329   3.282
  126OSM   C14F13447   1.600   3.310   3.261
  126OSM   H14F13448   1.585   3.266   3.362
  126OSM   H14G13449   1.517   3.275   3.197
  126OSM   C15F13450   1.563   3.454   3.280
  126OSM   H15F13451   1.639   3.512   3.337
  126OSM   H15G13452   1.470   3.456   3.341
  126OSM   C16F13453   1.541   3.536   3.148
  126OSM   H16F13454   1.469   3.485   3.080
  126OSM   H16G13455   1.637   3.531   3.091
  126OSM   C17F13456   1.492   3.679   3.170
  126OSM   H17F13457   1.483   3.741   3.078
  126OSM   H17G13458   1.580   3.719   3.224
  126OSM   C18F13459   1.360   3.684   3.244
  126OSM   H18F13460   1.372   3.654   3.351
  126OSM   H18G13461   1.279   3.623   3.198
  126OSM   H18H13462   1.338   3.793   3.235
  127OSM      N13463   1.880   4.773   2.119
  127OSM    C1513464   1.857   4.916   2.072
  127OSM   H15A13465   1.758   4.933   2.033
  127OSM   H15B13466   1.925   4.940   1.992
  127OSM   H15C13467   1.866   4.981   2.158
  127OSM    C1413468   1.890   4.692   1.989
  127OSM   H14A13469   1.955   4.747   1.921
  127OSM   H14B13470   1.794   4.678   1.943
  127OSM   H14C13471   1.932   4.595   2.009
  127OSM    C1313472   2.014   4.777   2.186
  127OSM   H13A13473   2.047   4.681   2.221
  127OSM   H13B13474   2.008   4.848   2.268
  127OSM   H13C13475   2.091   4.824   2.126
  127OSM    C1213476   1.780   4.709   2.208
  127OSM   H12A13477   1.783   4.753   2.307
  127OSM   H12B13478   1.809   4.606   2.217
  127OSM    C1113479   1.627   4.696   2.168
  127OSM   H11A13480   1.599   4.800   2.142
  127OSM   H11B13481   1.556   4.670   2.249
  127OSM      P13482   1.650   4.472   2.036
  127OSM    O1313483   1.629   4.431   1.893
  127OSM    O1413484   1.787   4.446   2.093
  127OSM    O1113485   1.538   4.408   2.121
  127OSM    O1213486   1.616   4.626   2.048
  127OSM    C1S13487   1.554   4.313   2.232
  127OSM    H1S13488   1.654   4.266   2.241
  127OSM    H1T13489   1.484   4.230   2.214
  127OSM     NF13490   1.549   4.285   2.480
  127OSM    HNF13491   1.473   4.228   2.512
  127OSM    C2S13492   1.512   4.371   2.374
  127OSM    H2S13493   1.564   4.468   2.389
  127OSM    C3S13494   1.356   4.412   2.368
  127OSM    H3S13495   1.304   4.320   2.334
  127OSM     O313496   1.315   4.501   2.269
  127OSM    HO313497   1.381   4.502   2.200
  127OSM    C4S13498   1.317   4.466   2.507
  127OSM    H4S13499   1.353   4.561   2.547
  127OSM    C5S13500   1.241   4.399   2.593
  127OSM    H5S13501   1.205   4.301   2.560
  127OSM    C6S13502   1.205   4.436   2.730
  127OSM    H6S13503   1.208   4.341   2.787
  127OSM    H6T13504   1.095   4.449   2.720
  127OSM    C7S13505   1.272   4.549   2.799
  127OSM    H7S13506   1.261   4.652   2.757
  127OSM    H7T13507   1.379   4.520   2.809
  127OSM    C8S13508   1.240   4.559   2.951
  127OSM    H8S13509   1.252   4.463   3.007
  127OSM    H8T13510   1.132   4.582   2.963
  127OSM    C9S13511   1.313   4.664   3.034
  127OSM    H9S13512   1.292   4.770   3.006
  127OSM    H9T13513   1.423   4.656   3.021
  127OSM   C10S13514   1.282   4.646   3.185
  127OSM   H10S13515   1.323   4.729   3.246
  127OSM   H10T13516   1.341   4.560   3.223
  127OSM   C11S13517   1.133   4.636   3.220
  127OSM   H11S13518   1.088   4.547   3.171
  127OSM   H11T13519   1.066   4.720   3.188
  127OSM   C12S13520   1.104   4.632   3.371
  127OSM   H12S13521   1.185   4.587   3.432
  127OSM   H12T13522   1.010   4.580   3.399
  127OSM   C13S13523   1.085   4.773   3.433
  127OSM   H13S13524   1.002   4.811   3.370
  127OSM   H13T13525   1.178   4.833   3.421
  127OSM   C14S13526   1.045   4.777   3.582
  127OSM   H14S13527   0.945   4.736   3.610
  127OSM   H14T13528   1.034   4.885   3.608
  127OSM   C15S13529   1.144   4.709   3.683
  127OSM   H15S13530   1.247   4.744   3.660
  127OSM   H15T13531   1.143   4.601   3.655
  127OSM   C16S13532   1.108   4.723   3.834
  127OSM   H16S13533   1.000   4.702   3.849
  127OSM   H16T13534   1.113   4.834   3.837
  127OSM   C17S13535   1.203   4.646   3.927
  127OSM   H17S13536   1.307   4.675   3.904
  127OSM   H17T13537   1.198   4.538   3.900
  127OSM   C18S13538   1.180   4.676   4.077
  127OSM   H18S13539   1.092   4.620   4.115
  127OSM   H18T13540   1.150   4.782   4.095
  127OSM   H18U13541   1.270   4.656   4.139
  127OSM    C1F13542   1.665   4.262   2.524
  127OSM     OF13543   1.764   4.329   2.489
  127OSM    C2F13544   1.673   4.167   2.638
  127OSM    H2F13545   1.757   4.097   2.620
  127OSM    H2G13546   1.583   4.103   2.631
  127OSM    C3F13547   1.682   4.244   2.770
  127OSM    H3F13548   1.585   4.299   2.768
  127OSM    H3G13549   1.758   4.324   2.768
  127OSM    C4F13550   1.698   4.161   2.893
  127OSM    H4F13551   1.753   4.221   2.970
  127OSM    H4G13552   1.775   4.081   2.884
  127OSM    C5F13553   1.568   4.119   2.961
  127OSM    H5F13554   1.594   4.022   3.008
  127OSM    H5G13555   1.488   4.100   2.886
  127OSM    C6F13556   1.517   4.211   3.075
  127OSM    H6F13557   1.407   4.207   3.092
  127OSM    H6G13558   1.550   4.314   3.051
  127OSM    C7F13559   1.573   4.169   3.212
  127OSM    H7F13560   1.675   4.211   3.213
  127OSM    H7G13561   1.573   4.058   3.225
  127OSM    C8F13562   1.502   4.238   3.336
  127OSM    H8F13563   1.405   4.188   3.360
  127OSM    H8G13564   1.485   4.345   3.310
  127OSM    C9F13565   1.586   4.225   3.459
  127OSM    H9F13566   1.686   4.183   3.439
  127OSM   C10F13567   1.557   4.230   3.589
  127OSM   H10F13568   1.635   4.213   3.665
  127OSM   C11F13569   1.421   4.272   3.645
  127OSM   H11F13570   1.383   4.180   3.695
  127OSM   H11G13571   1.341   4.300   3.573
  127OSM   C12F13572   1.439   4.387   3.747
  127OSM   H12F13573   1.337   4.416   3.782
  127OSM   H12G13574   1.476   4.478   3.695
  127OSM   C13F13575   1.511   4.337   3.868
  127OSM   H13F13576   1.622   4.338   3.860
  127OSM   H13G13577   1.481   4.232   3.891
  127OSM   C14F13578   1.480   4.425   3.993
  127OSM   H14F13579   1.371   4.442   4.004
  127OSM   H14G13580   1.529   4.523   3.974
  127OSM   C15F13581   1.549   4.379   4.122
  127OSM   H15F13582   1.654   4.361   4.091
  127OSM   H15G13583   1.515   4.279   4.156
  127OSM   C16F13584   1.560   4.489   4.234
  127OSM   H16F13585   1.474   4.494   4.304
  127OSM   H16G13586   1.553   4.583   4.176
  127OSM   C17F13587   1.698   4.488   4.304
  127OSM   H17F13588   1.782   4.516   4.238
  127OSM   H17G13589   1.720   4.384   4.335
  127OSM   C18F13590   1.700   4.576   4.428
  127OSM   H18F13591   1.642   4.669   4.407
  127OSM   H18G13592   1.804   4.601   4.456
  127OSM   H18H13593   1.651   4.514   4.507
  128OSM      N13594   1.781   3.383   1.721
  128OSM    C1513595   1.801   3.520   1.772
  128OSM   H15A13596   1.729   3.586   1.726
  128OSM   H15B13597   1.899   3.555   1.742
  128OSM   H15C13598   1.798   3.530   1.879
  128OSM    C1413599   1.631   3.364   1.708
  128OSM   H14A13600   1.605   3.271   1.659
  128OSM   H14B13601   1.578   3.439   1.651
  128OSM   H14C13602   1.588   3.369   1.807
  128OSM    C1313603   1.831   3.378   1.577
  128OSM   H13A13604   1.825   3.274   1.550
  128OSM   H13B13605   1.930   3.418   1.560
  128OSM   H13C13606   1.756   3.414   1.509
  128OSM    C1213607   1.856   3.281   1.809
  128OSM   H12A13608   1.819   3.276   1.911
  128OSM   H12B13609   1.955   3.316   1.834
  128OSM    C1113610   1.867   3.133   1.767
  128OSM   H11A13611   1.923   3.070   1.839
  128OSM   H11B13612   1.927   3.132   1.674
  128OSM      P13613   1.652   3.008   1.851
  128OSM    O1313614   1.542   3.106   1.879
  128OSM    O1413615   1.616   2.867   1.815
  128OSM    O1113616   1.752   3.003   1.977
  128OSM    O1213617   1.739   3.074   1.737
  128OSM    C1S13618   1.717   3.041   2.112
  128OSM    H1S13619   1.618   3.000   2.140
  128OSM    H1T13620   1.716   3.152   2.124
  128OSM     NF13621   1.760   3.021   2.348
  128OSM    HNF13622   1.805   3.090   2.403
  128OSM    C2S13623   1.818   2.985   2.222
  128OSM    H2S13624   1.817   2.877   2.199
  128OSM    C3S13625   1.960   3.036   2.194
  128OSM    H3S13626   1.959   3.146   2.182
  128OSM     O313627   2.005   3.007   2.066
  128OSM    HO313628   1.924   2.975   2.025
  128OSM    C4S13629   2.051   2.987   2.300
  128OSM    H4S13630   2.034   3.040   2.394
  128OSM    C5S13631   2.138   2.881   2.291
  128OSM    H5S13632   2.133   2.822   2.198
  128OSM    C6S13633   2.230   2.834   2.400
  128OSM    H6S13634   2.325   2.811   2.348
  128OSM    H6T13635   2.190   2.743   2.449
  128OSM    C7S13636   2.253   2.938   2.515
  128OSM    H7S13637   2.164   2.994   2.550
  128OSM    H7T13638   2.318   3.017   2.472
  128OSM    C8S13639   2.330   2.872   2.641
  128OSM    H8S13640   2.423   2.819   2.612
  128OSM    H8T13641   2.271   2.785   2.677
  128OSM    C9S13642   2.360   2.982   2.743
  128OSM    H9S13643   2.266   3.011   2.794
  128OSM    H9T13644   2.405   3.069   2.692
  128OSM   C10S13645   2.456   2.942   2.862
  128OSM   H10S13646   2.483   3.030   2.924
  128OSM   H10T13647   2.556   2.922   2.818
  128OSM   C11S13648   2.415   2.813   2.943
  128OSM   H11S13649   2.415   2.718   2.886
  128OSM   H11T13650   2.311   2.820   2.982
  128OSM   C12S13651   2.513   2.810   3.060
  128OSM   H12S13652   2.531   2.912   3.102
  128OSM   H12T13653   2.609   2.768   3.023
  128OSM   C13S13654   2.473   2.714   3.176
  128OSM   H13S13655   2.478   2.606   3.150
  128OSM   H13T13656   2.374   2.736   3.220
  128OSM   C14S13657   2.570   2.739   3.304
  128OSM   H14S13658   2.677   2.715   3.285
  128OSM   H14T13659   2.531   2.658   3.371
  128OSM   C15S13660   2.547   2.877   3.370
  128OSM   H15S13661   2.440   2.907   3.362
  128OSM   H15T13662   2.608   2.959   3.327
  128OSM   C16S13663   2.574   2.874   3.521
  128OSM   H16S13664   2.682   2.853   3.532
  128OSM   H16T13665   2.503   2.804   3.569
  128OSM   C17S13666   2.545   3.002   3.592
  128OSM   H17S13667   2.586   3.086   3.532
  128OSM   H17T13668   2.602   2.996   3.688
  128OSM   C18S13669   2.398   3.024   3.623
  128OSM   H18S13670   2.356   2.940   3.682
  128OSM   H18T13671   2.338   3.031   3.529
  128OSM   H18U13672   2.375   3.110   3.689
  128OSM    C1F13673   1.641   2.976   2.399
  128OSM     OF13674   1.568   2.905   2.327
  128OSM    C2F13675   1.586   3.022   2.528
  128OSM    H2F13676   1.508   3.101   2.530
  128OSM    H2G13677   1.665   3.081   2.579
  128OSM    C3F13678   1.547   2.908   2.620
  128OSM    H3F13679   1.629   2.837   2.643
  128OSM    H3G13680   1.458   2.855   2.579
  128OSM    C4F13681   1.502   2.985   2.752
  128OSM    H4F13682   1.426   3.059   2.719
  128OSM    H4G13683   1.599   3.035   2.777
  128OSM    C5F13684   1.468   2.894   2.868
  128OSM    H5F13685   1.549   2.821   2.888
  128OSM    H5G13686   1.379   2.830   2.852
  128OSM    C6F13687   1.442   2.981   2.992
  128OSM    H6F13688   1.359   3.052   2.969
  128OSM    H6G13689   1.538   3.031   3.015
  128OSM    C7F13690   1.389   2.891   3.109
  128OSM    H7F13691   1.462   2.811   3.133
  128OSM    H7G13692   1.300   2.830   3.083
  128OSM    C8F13693   1.347   2.986   3.228
  128OSM    H8F13694   1.249   2.948   3.263
  128OSM    H8G13695   1.337   3.086   3.180
  128OSM    C9F13696   1.454   2.974   3.334
  128OSM    H9F13697   1.540   3.040   3.315
  128OSM   C10F13698   1.441   2.924   3.459
  128OSM   H10F13699   1.526   2.929   3.529
  128OSM   C11F13700   1.324   2.835   3.497
  128OSM   H11F13701   1.365   2.747   3.550
  128OSM   H11G13702   1.277   2.791   3.406
  128OSM   C12F13703   1.212   2.901   3.584
  128OSM   H12F13704   1.135   2.821   3.592
  128OSM   H12G13705   1.166   2.976   3.515
  128OSM   C13F13706   1.262   2.962   3.719
  128OSM   H13F13707   1.175   3.006   3.773
  128OSM   H13G13708   1.336   3.045   3.708
  128OSM   C14F13709   1.316   2.860   3.820
  128OSM   H14F13710   1.405   2.808   3.778
  128OSM   H14G13711   1.245   2.776   3.835
  128OSM   C15F13712   1.369   2.925   3.946
  128OSM   H15F13713   1.279   2.980   3.979
  128OSM   H15G13714   1.451   2.994   3.914
  128OSM   C16F13715   1.412   2.831   4.059
  128OSM   H16F13716   1.503   2.776   4.025
  128OSM   H16G13717   1.333   2.753   4.063
  128OSM   C17F13718   1.437   2.900   4.192
  128OSM   H17F13719   1.456   3.002   4.153
  128OSM   H17G13720   1.528   2.857   4.239
  128OSM   C18F13721   1.309   2.904   4.282
  128OSM   H18F13722   1.315   2.998   4.341
  128OSM   H18G13723   1.302   2.827   4.362
  128OSM   H18H13724   1.226   2.892   4.209
  129OSM      N13725   2.727   1.449   1.432
  129OSM    C1513726   2.805   1.320   1.452
  129OSM   H15A13727   2.834   1.310   1.556
  129OSM   H15B13728   2.903   1.325   1.408
  129OSM   H15C13729   2.750   1.239   1.406
  129OSM    C1413730   2.722   1.480   1.284
  129OSM   H14A13731   2.680   1.580   1.277
  129OSM   H14B13732   2.674   1.409   1.219
  129OSM   H14C13733   2.820   1.487   1.239
  129OSM    C1313734   2.585   1.442   1.482
  129OSM   H13A13735   2.534   1.374   1.415
  129OSM   H13B13736   2.536   1.537   1.469
  129OSM   H13C13737   2.578   1.399   1.581
  129OSM    C1213738   2.806   1.556   1.505
  129OSM   H12A13739   2.768   1.654   1.479
  129OSM   H12B13740   2.907   1.566   1.469
  129OSM    C1113741   2.817   1.552   1.659
  129OSM   H11A13742   2.885   1.626   1.707
  129OSM   H11B13743   2.838   1.448   1.692
  129OSM      P13744   2.630   1.731   1.726
  129OSM    O1313745   2.697   1.821   1.634
  129OSM    O1413746   2.485   1.721   1.724
  129OSM    O1113747   2.676   1.757   1.878
  129OSM    O1213748   2.684   1.584   1.701
  129OSM    C1S13749   2.629   1.658   1.974
  129OSM    H1S13750   2.655   1.557   1.936
  129OSM    H1T13751   2.518   1.662   1.975
  129OSM     NF13752   2.665   1.567   2.195
  129OSM    HNF13753   2.607   1.590   2.273
  129OSM    C2S13754   2.690   1.680   2.114
  129OSM    H2S13755   2.799   1.682   2.092
  129OSM    C3S13756   2.653   1.823   2.171
  129OSM    H3S13757   2.544   1.836   2.183
  129OSM     O313758   2.695   1.924   2.082
  129OSM    HO313759   2.703   1.881   1.997
  129OSM    C4S13760   2.718   1.835   2.314
  129OSM    H4S13761   2.825   1.858   2.327
  129OSM    C5S13762   2.648   1.839   2.431
  129OSM    H5S13763   2.539   1.829   2.422
  129OSM    C6S13764   2.713   1.845   2.573
  129OSM    H6S13765   2.670   1.937   2.617
  129OSM    H6T13766   2.823   1.857   2.574
  129OSM    C7S13767   2.680   1.724   2.663
  129OSM    H7S13768   2.710   1.631   2.610
  129OSM    H7T13769   2.572   1.713   2.685
  129OSM    C8S13770   2.760   1.726   2.795
  129OSM    H8S13771   2.723   1.817   2.847
  129OSM    H8T13772   2.865   1.758   2.778
  129OSM    C9S13773   2.744   1.609   2.883
  129OSM    H9S13774   2.771   1.524   2.817
  129OSM    H9T13775   2.640   1.598   2.918
  129OSM   C10S13776   2.838   1.625   2.999
  129OSM   H10S13777   2.800   1.713   3.054
  129OSM   H10T13778   2.941   1.641   2.961
  129OSM   C11S13779   2.831   1.509   3.097
  129OSM   H11S13780   2.893   1.431   3.048
  129OSM   H11T13781   2.727   1.471   3.108
  129OSM   C12S13782   2.877   1.547   3.238
  129OSM   H12S13783   2.817   1.632   3.279
  129OSM   H12T13784   2.974   1.600   3.230
  129OSM   C13S13785   2.881   1.425   3.329
  129OSM   H13S13786   2.967   1.362   3.300
  129OSM   H13T13787   2.785   1.371   3.313
  129OSM   C14S13788   2.882   1.453   3.474
  129OSM   H14S13789   2.790   1.501   3.515
  129OSM   H14T13790   2.961   1.529   3.494
  129OSM   C15S13791   2.911   1.335   3.571
  129OSM   H15S13792   2.941   1.389   3.664
  129OSM   H15T13793   3.000   1.280   3.536
  129OSM   C16S13794   2.804   1.233   3.600
  129OSM   H16S13795   2.770   1.190   3.504
  129OSM   H16T13796   2.714   1.269   3.654
  129OSM   C17S13797   2.869   1.118   3.679
  129OSM   H17S13798   2.954   1.082   3.618
  129OSM   H17T13799   2.788   1.042   3.685
  129OSM   C18S13800   2.924   1.158   3.816
  129OSM   H18S13801   2.840   1.207   3.870
  129OSM   H18T13802   3.005   1.232   3.804
  129OSM   H18U13803   2.961   1.068   3.870
  129OSM    C1F13804   2.727   1.445   2.179
  129OSM     OF13805   2.809   1.427   2.091
  129OSM    C2F13806   2.687   1.335   2.275
  129OSM    H2F13807   2.730   1.236   2.248
  129OSM    H2G13808   2.577   1.336   2.290
  129OSM    C3F13809   2.749   1.367   2.411
  129OSM    H3F13810   2.738   1.473   2.443
  129OSM    H3G13811   2.857   1.357   2.388
  129OSM    C4F13812   2.712   1.261   2.518
  129OSM    H4F13813   2.721   1.164   2.466
  129OSM    H4G13814   2.607   1.264   2.556
  129OSM    C5F13815   2.792   1.270   2.648
  129OSM    H5F13816   2.742   1.220   2.734
  129OSM    H5G13817   2.806   1.379   2.669
  129OSM    C6F13818   2.930   1.204   2.634
  129OSM    H6F13819   2.979   1.246   2.544
  129OSM    H6G13820   2.915   1.095   2.616
  129OSM    C7F13821   3.017   1.233   2.760
  129OSM    H7F13822   2.971   1.312   2.824
  129OSM    H7G13823   3.102   1.288   2.715
  129OSM    C8F13824   3.067   1.115   2.843
  129OSM    H8F13825   3.153   1.163   2.895
  129OSM    H8G13826   3.111   1.045   2.769
  129OSM    C9F13827   2.963   1.047   2.934
  129OSM    H9F13828   2.882   1.004   2.873
  129OSM   C10F13829   2.974   1.037   3.068
  129OSM   H10F13830   2.890   0.989   3.120
  129OSM   C11F13831   3.075   1.108   3.149
  129OSM   H11F13832   3.024   1.109   3.248
  129OSM   H11G13833   3.087   1.210   3.108
  129OSM   C12F13834   3.219   1.048   3.172
  129OSM   H12F13835   3.270   1.040   3.074
  129OSM   H12G13836   3.198   0.943   3.203
  129OSM   C13F13837   3.306   1.125   3.274
  129OSM   H13F13838   3.315   1.231   3.242
  129OSM   H13G13839   3.408   1.081   3.272
  129OSM   C14F13840   3.247   1.109   3.412
  129OSM   H14F13841   3.260   1.001   3.430
  129OSM   H14G13842   3.141   1.138   3.430
  129OSM   C15F13843   3.342   1.192   3.504
  129OSM   H15F13844   3.339   1.299   3.477
  129OSM   H15G13845   3.445   1.154   3.487
  129OSM   C16F13846   3.305   1.171   3.656
  129OSM   H16F13847   3.298   1.061   3.665
  129OSM   H16G13848   3.205   1.218   3.672
  129OSM   C17F13849   3.398   1.232   3.758
  129OSM   H17F13850   3.395   1.343   3.755
  129OSM   H17G13851   3.504   1.208   3.736
  129OSM   C18F13852   3.349   1.192   3.895
  129OSM   H18F13853   3.248   1.237   3.912
  129OSM   H18G13854   3.420   1.218   3.976
  129OSM   H18H13855   3.340   1.082   3.909
  130OSM      N13856   3.436   4.710   1.731
  130OSM    C1513857   3.418   4.564   1.706
  130OSM   H15A13858   3.511   4.515   1.733
  130OSM   H15B13859   3.386   4.543   1.606
  130OSM   H15C13860   3.341   4.534   1.776
  130OSM    C1413861   3.529   4.772   1.630
  130OSM   H14A13862   3.542   4.876   1.654
  130OSM   H14B13863   3.489   4.762   1.530
  130OSM   H14C13864   3.618   4.711   1.628
  130OSM    C1313865   3.314   4.790   1.715
  130OSM   H13A13866   3.241   4.769   1.792
  130OSM   H13B13867   3.277   4.785   1.614
  130OSM   H13C13868   3.344   4.891   1.741
  130OSM    C1213869   3.503   4.732   1.868
  130OSM   H12A13870   3.591   4.670   1.866
  130OSM   H12B13871   3.439   4.687   1.942
  130OSM    C1113872   3.524   4.877   1.919
  130OSM   H11A13873   3.564   4.870   2.022
  130OSM   H11B13874   3.421   4.918   1.924
  130OSM      P13875   3.611   5.114   1.859
  130OSM    O1313876   3.743   5.174   1.817
  130OSM    O1413877   3.489   5.175   1.804
  130OSM    O1113878   3.591   5.102   2.014
  130OSM    O1213879   3.609   4.953   1.832
  130OSM    C1S13880   3.468   5.144   2.078
  130OSM    H1S13881   3.376   5.112   2.025
  130OSM    H1T13882   3.464   5.254   2.093
  130OSM     NF13883   3.350   5.144   2.287
  130OSM    HNF13884   3.376   5.202   2.364
  130OSM    C2S13885   3.459   5.083   2.223
  130OSM    H2S13886   3.436   4.976   2.204
  130OSM    C3S13887   3.586   5.096   2.307
  130OSM    H3S13888   3.601   5.205   2.324
  130OSM     O313889   3.702   5.048   2.247
  130OSM    HO313890   3.692   5.061   2.152
  130OSM    C4S13891   3.569   5.023   2.441
  130OSM    H4S13892   3.534   5.096   2.516
  130OSM    C5S13893   3.587   4.897   2.475
  130OSM    H5S13894   3.624   4.830   2.396
  130OSM    C6S13895   3.579   4.837   2.614
  130OSM    H6S13896   3.567   4.726   2.605
  130OSM    H6T13897   3.488   4.879   2.663
  130OSM    C7S13898   3.706   4.879   2.694
  130OSM    H7S13899   3.701   4.988   2.716
  130OSM    H7T13900   3.794   4.843   2.637
  130OSM    C8S13901   3.707   4.813   2.829
  130OSM    H8S13902   3.812   4.814   2.866
  130OSM    H8T13903   3.678   4.706   2.824
  130OSM    C9S13904   3.603   4.875   2.925
  130OSM    H9S13905   3.503   4.861   2.878
  130OSM    H9T13906   3.621   4.984   2.932
  130OSM   C10S13907   3.614   4.811   3.067
  130OSM   H10S13908   3.720   4.818   3.100
  130OSM   H10T13909   3.588   4.705   3.048
  130OSM   C11S13910   3.520   4.860   3.180
  130OSM   H11S13911   3.414   4.865   3.148
  130OSM   H11T13912   3.554   4.966   3.189
  130OSM   C12S13913   3.526   4.792   3.314
  130OSM   H12S13914   3.632   4.764   3.334
  130OSM   H12T13915   3.472   4.696   3.295
  130OSM   C13S13916   3.479   4.882   3.428
  130OSM   H13S13917   3.371   4.903   3.409
  130OSM   H13T13918   3.535   4.978   3.427
  130OSM   C14S13919   3.500   4.822   3.568
  130OSM   H14S13920   3.474   4.892   3.651
  130OSM   H14T13921   3.607   4.801   3.588
  130OSM   C15S13922   3.430   4.694   3.609
  130OSM   H15S13923   3.465   4.609   3.545
  130OSM   H15T13924   3.323   4.693   3.580
  130OSM   C16S13925   3.441   4.669   3.765
  130OSM   H16S13926   3.379   4.745   3.816
  130OSM   H16T13927   3.547   4.678   3.798
  130OSM   C17S13928   3.368   4.544   3.803
  130OSM   H17S13929   3.436   4.460   3.780
  130OSM   H17T13930   3.272   4.525   3.750
  130OSM   C18S13931   3.342   4.543   3.962
  130OSM   H18S13932   3.256   4.474   3.977
  130OSM   H18T13933   3.306   4.642   3.995
  130OSM   H18U13934   3.441   4.521   4.008
  130OSM    C1F13935   3.226   5.147   2.240
  130OSM     OF13936   3.183   5.058   2.168
  130OSM    C2F13937   3.141   5.266   2.272
  130OSM    H2F13938   3.117   5.305   2.171
  130OSM    H2G13939   3.203   5.348   2.317
  130OSM    C3F13940   3.019   5.242   2.364
  130OSM    H3F13941   2.950   5.172   2.313
  130OSM    H3G13942   2.958   5.335   2.374
  130OSM    C4F13943   3.035   5.188   2.515
  130OSM    H4F13944   3.078   5.269   2.579
  130OSM    H4G13945   3.105   5.102   2.518
  130OSM    C5F13946   2.900   5.151   2.578
  130OSM    H5F13947   2.874   5.044   2.567
  130OSM    H5G13948   2.819   5.206   2.526
  130OSM    C6F13949   2.894   5.171   2.730
  130OSM    H6F13950   2.911   5.279   2.750
  130OSM    H6G13951   2.985   5.135   2.784
  130OSM    C7F13952   2.770   5.110   2.799
  130OSM    H7F13953   2.756   5.002   2.779
  130OSM    H7G13954   2.687   5.158   2.742
  130OSM    C8F13955   2.761   5.134   2.953
  130OSM    H8F13956   2.663   5.095   2.989
  130OSM    H8G13957   2.775   5.242   2.975
  130OSM    C9F13958   2.867   5.067   3.027
  130OSM    H9F13959   2.935   4.997   2.975
  130OSM   C10F13960   2.898   5.091   3.160
  130OSM   H10F13961   2.990   5.050   3.205
  130OSM   C11F13962   2.831   5.197   3.244
  130OSM   H11F13963   2.763   5.268   3.193
  130OSM   H11G13964   2.914   5.256   3.290
  130OSM   C12F13965   2.744   5.130   3.350
  130OSM   H12F13966   2.787   5.042   3.403
  130OSM   H12G13967   2.661   5.082   3.294
  130OSM   C13F13968   2.688   5.220   3.468
  130OSM   H13F13969   2.617   5.299   3.435
  130OSM   H13G13970   2.768   5.288   3.503
  130OSM   C14F13971   2.638   5.146   3.593
  130OSM   H14F13972   2.708   5.067   3.626
  130OSM   H14G13973   2.545   5.094   3.563
  130OSM   C15F13974   2.609   5.235   3.710
  130OSM   H15F13975   2.538   5.313   3.675
  130OSM   H15G13976   2.689   5.298   3.754
  130OSM   C16F13977   2.548   5.158   3.831
  130OSM   H16F13978   2.623   5.111   3.899
  130OSM   H16G13979   2.482   5.079   3.790
  130OSM   C17F13980   2.478   5.252   3.924
  130OSM   H17F13981   2.387   5.286   3.870
  130OSM   H17G13982   2.544   5.331   3.965
  130OSM   C18F13983   2.416   5.192   4.047
  130OSM   H18F13984   2.394   5.084   4.030
  130OSM   H18G13985   2.319   5.242   4.068
  130OSM   H18H13986   2.482   5.191   4.137
  131OSM      N13987   0.652   2.196   2.158
  131OSM    C1513988   0.532   2.142   2.103
  131OSM   H15A13989   0.553   2.042   2.067
  131OSM   H15B13990   0.507   2.200   2.015
  131OSM   H15C13991   0.450   2.143   2.173
  131OSM    C1413992   0.639   2.346   2.168
  131OSM   H14A13993   0.560   2.381   2.233
  131OSM   H14B13994   0.639   2.394   2.071
  131OSM   H14C13995   0.734   2.379   2.208
  131OSM    C1313996   0.658   2.140   2.303
  131OSM   H13A13997   0.639   2.035   2.288
  131OSM   H13B13998   0.574   2.181   2.357
  131OSM   H13C13999   0.747   2.171   2.355
  131OSM    C1214000   0.769   2.151   2.078
  131OSM   H12A14001   0.751   2.180   1.975
  131OSM   H12B14002   0.790   2.045   2.082
  131OSM    C1114003   0.899   2.224   2.116
  131OSM   H11A14004   0.990   2.169   2.086
  131OSM   H11B14005   0.896   2.243   2.225
  131OSM      P14006   0.968   2.381   1.903
  131OSM    O1314007   0.967   2.265   1.811
  131OSM    O1414008   0.910   2.505   1.849
  131OSM    O1114009   1.120   2.413   1.949
  131OSM    O1214010   0.898   2.350   2.040
  131OSM    C1S14011   1.152   2.530   2.020
  131OSM    H1S14012   1.079   2.608   1.989
  131OSM    H1T14013   1.258   2.558   2.004
  131OSM     NF14014   1.196   2.642   2.242
  131OSM    HNF14015   1.281   2.644   2.295
  131OSM    C2S14016   1.156   2.520   2.178
  131OSM    H2S14017   1.049   2.501   2.204
  131OSM    C3S14018   1.241   2.395   2.225
  131OSM    H3S14019   1.348   2.418   2.207
  131OSM     O314020   1.207   2.268   2.169
  131OSM    HO314021   1.156   2.293   2.092
  131OSM    C4S14022   1.225   2.379   2.377
  131OSM    H4S14023   1.121   2.357   2.406
  131OSM    C5S14024   1.326   2.372   2.466
  131OSM    H5S14025   1.427   2.383   2.425
  131OSM    C6S14026   1.313   2.348   2.610
  131OSM    H6S14027   1.330   2.240   2.634
  131OSM    H6T14028   1.215   2.386   2.645
  131OSM    C7S14029   1.421   2.429   2.689
  131OSM    H7S14030   1.408   2.539   2.678
  131OSM    H7T14031   1.520   2.407   2.644
  131OSM    C8S14032   1.419   2.385   2.842
  131OSM    H8S14033   1.445   2.278   2.850
  131OSM    H8T14034   1.310   2.396   2.862
  131OSM    C9S14035   1.503   2.492   2.909
  131OSM    H9S14036   1.477   2.589   2.862
  131OSM    H9T14037   1.605   2.469   2.870
  131OSM   C10S14038   1.481   2.492   3.064
  131OSM   H10S14039   1.466   2.388   3.099
  131OSM   H10T14040   1.389   2.542   3.101
  131OSM   C11S14041   1.612   2.542   3.126
  131OSM   H11S14042   1.627   2.645   3.086
  131OSM   H11T14043   1.690   2.469   3.097
  131OSM   C12S14044   1.622   2.567   3.274
  131OSM   H12S14045   1.546   2.643   3.300
  131OSM   H12T14046   1.719   2.616   3.297
  131OSM   C13S14047   1.607   2.437   3.357
  131OSM   H13S14048   1.695   2.372   3.342
  131OSM   H13T14049   1.510   2.391   3.328
  131OSM   C14S14050   1.597   2.461   3.509
  131OSM   H14S14051   1.552   2.371   3.556
  131OSM   H14T14052   1.521   2.541   3.520
  131OSM   C15S14053   1.727   2.515   3.572
  131OSM   H15S14054   1.785   2.598   3.526
  131OSM   H15T14055   1.794   2.428   3.552
  131OSM   C16S14056   1.740   2.536   3.718
  131OSM   H16S14057   1.840   2.538   3.766
  131OSM   H16T14058   1.695   2.442   3.758
  131OSM   C17S14059   1.660   2.656   3.776
  131OSM   H17S14060   1.621   2.637   3.878
  131OSM   H17T14061   1.562   2.658   3.722
  131OSM   C18S14062   1.725   2.791   3.772
  131OSM   H18S14063   1.762   2.802   3.668
  131OSM   H18T14064   1.811   2.798   3.843
  131OSM   H18U14065   1.653   2.874   3.785
  131OSM    C1F14066   1.113   2.750   2.244
  131OSM     OF14067   1.007   2.743   2.191
  131OSM    C2F14068   1.159   2.880   2.310
  131OSM    H2F14069   1.172   2.957   2.231
  131OSM    H2G14070   1.252   2.873   2.371
  131OSM    C3F14071   1.052   2.934   2.409
  131OSM    H3F14072   1.043   2.871   2.500
  131OSM    H3G14073   0.954   2.937   2.359
  131OSM    C4F14074   1.092   3.073   2.457
  131OSM    H4F14075   1.077   3.142   2.371
  131OSM    H4G14076   1.200   3.083   2.481
  131OSM    C5F14077   0.999   3.125   2.571
  131OSM    H5F14078   0.900   3.079   2.550
  131OSM    H5G14079   1.001   3.236   2.567
  131OSM    C6F14080   1.063   3.094   2.708
  131OSM    H6F14081   1.144   3.164   2.735
  131OSM    H6G14082   1.108   2.995   2.686
  131OSM    C7F14083   0.955   3.065   2.820
  131OSM    H7F14084   0.901   2.971   2.793
  131OSM    H7G14085   0.879   3.147   2.822
  131OSM    C8F14086   1.023   3.047   2.955
  131OSM    H8F14087   1.106   2.973   2.943
  131OSM    H8G14088   0.951   2.995   3.022
  131OSM    C9F14089   1.068   3.175   3.012
  131OSM    H9F14090   1.086   3.253   2.937
  131OSM   C10F14091   1.067   3.213   3.140
  131OSM   H10F14092   1.102   3.314   3.165
  131OSM   C11F14093   1.035   3.121   3.256
  131OSM   H11F14094   1.116   3.136   3.329
  131OSM   H11G14095   1.047   3.013   3.231
  131OSM   C12F14096   0.889   3.142   3.298
  131OSM   H12F14097   0.817   3.111   3.220
  131OSM   H12G14098   0.880   3.252   3.308
  131OSM   C13F14099   0.860   3.068   3.432
  131OSM   H13F14100   0.916   2.972   3.430
  131OSM   H13G14101   0.751   3.066   3.453
  131OSM   C14F14102   0.915   3.142   3.560
  131OSM   H14F14103   0.843   3.227   3.565
  131OSM   H14G14104   1.017   3.187   3.555
  131OSM   C15F14105   0.914   3.058   3.685
  131OSM   H15F14106   0.994   2.981   3.687
  131OSM   H15G14107   0.816   3.005   3.688
  131OSM   C16F14108   0.940   3.146   3.809
  131OSM   H16F14109   0.861   3.225   3.808
  131OSM   H16G14110   1.038   3.197   3.817
  131OSM   C17F14111   0.923   3.053   3.931
  131OSM   H17F14112   1.004   2.977   3.925
  131OSM   H17G14113   0.838   2.982   3.919
  131OSM   C18F14114   0.918   3.123   4.068
  131OSM   H18F14115   0.899   3.048   4.148
  131OSM   H18G14116   0.846   3.209   4.066
  131OSM   H18H14117   1.020   3.159   4.090
  132OSM      N14118   0.201   1.689   2.118
  132OSM    C1514119   0.098   1.581   2.140
  132OSM   H15A14120   0.026   1.585   2.060
  132OSM   H15B14121   0.039   1.590   2.230
  132OSM   H15C14122   0.127   1.478   2.120
  132OSM    C1414123   0.312   1.660   2.209
  132OSM   H14A14124   0.288   1.642   2.313
  132OSM   H14B14125   0.381   1.742   2.217
  132OSM   H14C14126   0.369   1.578   2.168
  132OSM    C1314127   0.249   1.699   1.978
  132OSM   H13A14128   0.262   1.603   1.929
  132OSM   H13B14129   0.348   1.743   1.984
  132OSM   H13C14130   0.191   1.766   1.916
  132OSM    C1214131   0.140   1.828   2.168
  132OSM   H12A14132   0.143   1.852   2.273
  132OSM   H12B14133   0.039   1.835   2.132
  132OSM    C1114134   0.210   1.953   2.109
  132OSM   H11A14135   0.320   1.938   2.107
  132OSM   H11B14136   0.191   2.034   2.183
  132OSM      P14137   0.203   2.110   1.902
  132OSM    O1314138   0.340   2.100   1.854
  132OSM    O1414139   0.099   2.148   1.799
  132OSM    O1114140   0.205   2.216   2.022
  132OSM    O1214141   0.159   1.982   1.978
  132OSM    C1S14142   0.091   2.266   2.085
  132OSM    H1S14143   0.011   2.190   2.079
  132OSM    H1T14144   0.052   2.356   2.032
  132OSM     NF14145   0.000   2.329   2.297
  132OSM    HNF14146  -0.026   2.426   2.297
  132OSM    C2S14147   0.124   2.316   2.230
  132OSM    H2S14148   0.177   2.233   2.283
  132OSM    C3S14149   0.207   2.447   2.225
  132OSM    H3S14150   0.149   2.524   2.171
  132OSM     O314151   0.328   2.432   2.146
  132OSM    HO314152   0.311   2.349   2.101
  132OSM    C4S14153   0.235   2.487   2.371
  132OSM    H4S14154   0.325   2.442   2.414
  132OSM    C5S14155   0.183   2.598   2.416
  132OSM    H5S14156   0.153   2.674   2.343
  132OSM    C6S14157   0.224   2.657   2.543
  132OSM    H6S14158   0.132   2.683   2.598
  132OSM    H6T14159   0.287   2.747   2.527
  132OSM    C7S14160   0.290   2.563   2.646
  132OSM    H7S14161   0.386   2.517   2.615
  132OSM    H7T14162   0.222   2.477   2.665
  132OSM    C8S14163   0.294   2.635   2.785
  132OSM    H8S14164   0.197   2.686   2.806
  132OSM    H8T14165   0.376   2.709   2.792
  132OSM    C9S14166   0.312   2.543   2.907
  132OSM    H9S14167   0.403   2.484   2.883
  132OSM    H9T14168   0.224   2.475   2.908
  132OSM   C10S14169   0.320   2.612   3.043
  132OSM   H10S14170   0.232   2.680   3.053
  132OSM   H10T14171   0.410   2.674   3.061
  132OSM   C11S14172   0.326   2.511   3.164
  132OSM   H11S14173   0.417   2.452   3.138
  132OSM   H11T14174   0.240   2.441   3.160
  132OSM   C12S14175   0.331   2.568   3.301
  132OSM   H12S14176   0.397   2.657   3.297
  132OSM   H12T14177   0.372   2.497   3.376
  132OSM   C13S14178   0.199   2.607   3.361
  132OSM   H13S14179   0.129   2.522   3.376
  132OSM   H13T14180   0.144   2.677   3.295
  132OSM   C14S14181   0.211   2.672   3.505
  132OSM   H14S14182   0.113   2.714   3.534
  132OSM   H14T14183   0.285   2.752   3.484
  132OSM   C15S14184   0.258   2.570   3.613
  132OSM   H15S14185   0.356   2.531   3.577
  132OSM   H15T14186   0.178   2.493   3.616
  132OSM   C16S14187   0.284   2.632   3.744
  132OSM   H16S14188   0.290   2.743   3.746
  132OSM   H16T14189   0.385   2.597   3.774
  132OSM   C17S14190   0.183   2.590   3.854
  132OSM   H17S14191   0.163   2.481   3.857
  132OSM   H17T14192   0.091   2.640   3.816
  132OSM   C18S14193   0.225   2.646   3.990
  132OSM   H18S14194   0.147   2.620   4.065
  132OSM   H18T14195   0.237   2.755   3.978
  132OSM   H18U14196   0.318   2.605   4.034
  132OSM    C1F14197  -0.070   2.232   2.353
  132OSM     OF14198  -0.035   2.116   2.332
  132OSM    C2F14199  -0.195   2.269   2.415
  132OSM    H2F14200  -0.273   2.194   2.391
  132OSM    H2G14201  -0.228   2.359   2.357
  132OSM    C3F14202  -0.184   2.311   2.561
  132OSM    H3F14203  -0.168   2.217   2.618
  132OSM    H3G14204  -0.280   2.353   2.597
  132OSM    C4F14205  -0.092   2.428   2.582
  132OSM    H4F14206  -0.116   2.514   2.516
  132OSM    H4G14207   0.014   2.396   2.577
  132OSM    C5F14208  -0.112   2.485   2.733
  132OSM    H5F14209  -0.210   2.536   2.735
  132OSM    H5G14210  -0.026   2.549   2.759
  132OSM    C6F14211  -0.107   2.377   2.840
  132OSM    H6F14212  -0.033   2.300   2.810
  132OSM    H6G14213  -0.209   2.336   2.832
  132OSM    C7F14214  -0.083   2.421   2.990
  132OSM    H7F14215   0.008   2.484   3.002
  132OSM    H7G14216  -0.067   2.322   3.037
  132OSM    C8F14217  -0.202   2.495   3.055
  132OSM    H8F14218  -0.167   2.501   3.160
  132OSM    H8G14219  -0.285   2.422   3.063
  132OSM    C9F14220  -0.236   2.632   2.998
  132OSM    H9F14221  -0.309   2.621   2.917
  132OSM   C10F14222  -0.210   2.754   3.039
  132OSM   H10F14223  -0.255   2.837   2.982
  132OSM   C11F14224  -0.122   2.794   3.150
  132OSM   H11F14225  -0.076   2.718   3.217
  132OSM   H11G14226  -0.189   2.845   3.222
  132OSM   C12F14227  -0.017   2.901   3.120
  132OSM   H12F14228   0.054   2.863   3.044
  132OSM   H12G14229   0.045   2.917   3.211
  132OSM   C13F14230  -0.068   3.027   3.065
  132OSM   H13F14231  -0.148   3.065   3.133
  132OSM   H13G14232  -0.120   3.004   2.969
  132OSM   C14F14233   0.027   3.147   3.039
  132OSM   H14F14234   0.064   3.183   3.137
  132OSM   H14G14235  -0.039   3.225   2.994
  132OSM   C15F14236   0.144   3.110   2.953
  132OSM   H15F14237   0.204   3.032   3.005
  132OSM   H15G14238   0.213   3.197   2.949
  132OSM   C16F14239   0.105   3.100   2.804
  132OSM   H16F14240   0.200   3.125   2.753
  132OSM   H16G14241   0.021   3.172   2.795
  132OSM   C17F14242   0.063   2.959   2.761
  132OSM   H17F14243  -0.018   2.926   2.829
  132OSM   H17G14244   0.151   2.891   2.769
  132OSM   C18F14245   0.013   2.949   2.619
  132OSM   H18F14246  -0.002   2.841   2.595
  132OSM   H18G14247   0.089   2.980   2.543
  132OSM   H18H14248  -0.078   3.011   2.608
  133OSM      N14249   5.139   3.183   1.754
  133OSM    C1514250   5.077   3.061   1.711
  133OSM   H15A14251   5.129   2.966   1.717
  133OSM   H15B14252   5.054   3.078   1.606
  133OSM   H15C14253   4.983   3.044   1.761
  133OSM    C1414254   5.278   3.184   1.693
  133OSM   H14A14255   5.268   3.195   1.586
  133OSM   H14B14256   5.342   3.100   1.714
  133OSM   H14C14257   5.333   3.263   1.741
  133OSM    C1314258   5.070   3.301   1.700
  133OSM   H13A14259   5.110   3.401   1.705
  133OSM   H13B14260   4.981   3.305   1.761
  133OSM   H13C14261   5.051   3.292   1.594
  133OSM    C1214262   5.149   3.195   1.900
  133OSM   H12A14263   5.225   3.270   1.916
  133OSM   H12B14264   5.191   3.104   1.940
  133OSM    C1114265   5.023   3.239   1.980
  133OSM   H11A14266   4.997   3.346   1.964
  133OSM   H11B14267   5.060   3.237   2.085
  133OSM      P14268   4.861   3.037   2.047
  133OSM    O1314269   4.720   3.053   2.076
  133OSM    O1414270   4.889   2.911   1.984
  133OSM    O1114271   4.956   3.043   2.177
  133OSM    O1214272   4.916   3.150   1.956
  133OSM    C1S14273   4.918   3.113   2.296
  133OSM    H1S14274   4.809   3.134   2.291
  133OSM    H1T14275   4.970   3.211   2.305
  133OSM     NF14276   4.908   3.092   2.539
  133OSM    HNF14277   4.969   3.155   2.586
  133OSM    C2S14278   4.958   3.032   2.415
  133OSM    H2S14279   4.906   2.934   2.408
  133OSM    C3S14280   5.114   3.003   2.414
  133OSM    H3S14281   5.149   3.106   2.436
  133OSM     O314282   5.176   2.975   2.288
  133OSM    HO314283   5.114   2.993   2.217
  133OSM    C4S14284   5.158   2.909   2.527
  133OSM    H4S14285   5.190   2.967   2.614
  133OSM    C5S14286   5.145   2.770   2.517
  133OSM    H5S14287   5.109   2.723   2.424
  133OSM    C6S14288   5.171   2.675   2.629
  133OSM    H6S14289   5.266   2.621   2.609
  133OSM    H6T14290   5.094   2.596   2.638
  133OSM    C7S14291   5.176   2.734   2.769
  133OSM    H7S14292   5.233   2.830   2.770
  133OSM    H7T14293   5.237   2.674   2.840
  133OSM    C8S14294   5.043   2.762   2.835
  133OSM    H8S14295   4.983   2.669   2.843
  133OSM    H8T14296   4.987   2.842   2.783
  133OSM    C9S14297   5.063   2.812   2.977
  133OSM    H9S14298   5.027   2.917   2.976
  133OSM    H9T14299   5.173   2.820   2.989
  133OSM   C10S14300   4.997   2.740   3.090
  133OSM   H10S14301   5.029   2.633   3.085
  133OSM   H10T14302   4.888   2.752   3.074
  133OSM   C11S14303   5.039   2.802   3.227
  133OSM   H11S14304   4.984   2.898   3.242
  133OSM   H11T14305   5.148   2.821   3.224
  133OSM   C12S14306   4.996   2.703   3.338
  133OSM   H12S14307   5.026   2.759   3.429
  133OSM   H12T14308   5.051   2.606   3.336
  133OSM   C13S14309   4.850   2.683   3.351
  133OSM   H13S14310   4.831   2.622   3.261
  133OSM   H13T14311   4.784   2.772   3.363
  133OSM   C14S14312   4.811   2.603   3.483
  133OSM   H14S14313   4.822   2.673   3.569
  133OSM   H14T14314   4.880   2.516   3.484
  133OSM   C15S14315   4.663   2.557   3.472
  133OSM   H15S14316   4.647   2.483   3.391
  133OSM   H15T14317   4.610   2.652   3.451
  133OSM   C16S14318   4.603   2.500   3.608
  133OSM   H16S14319   4.652   2.401   3.621
  133OSM   H16T14320   4.496   2.478   3.590
  133OSM   C17S14321   4.619   2.586   3.734
  133OSM   H17S14322   4.725   2.616   3.737
  133OSM   H17T14323   4.593   2.523   3.821
  133OSM   C18S14324   4.537   2.712   3.739
  133OSM   H18S14325   4.564   2.774   3.651
  133OSM   H18T14326   4.554   2.772   3.831
  133OSM   H18U14327   4.430   2.683   3.740
  133OSM    C1F14328   4.777   3.103   2.573
  133OSM     OF14329   4.692   3.043   2.507
  133OSM    C2F14330   4.732   3.190   2.681
  133OSM    H2F14331   4.704   3.290   2.642
  133OSM    H2G14332   4.820   3.220   2.741
  133OSM    C3F14333   4.616   3.133   2.767
  133OSM    H3F14334   4.527   3.114   2.704
  133OSM    H3G14335   4.594   3.221   2.831
  133OSM    C4F14336   4.654   3.015   2.847
  133OSM    H4F14337   4.763   3.000   2.863
  133OSM    H4G14338   4.647   2.927   2.780
  133OSM    C5F14339   4.574   2.998   2.971
  133OSM    H5F14340   4.476   2.956   2.941
  133OSM    H5G14341   4.558   3.092   3.028
  133OSM    C6F14342   4.632   2.894   3.063
  133OSM    H6F14343   4.730   2.933   3.098
  133OSM    H6G14344   4.647   2.801   3.004
  133OSM    C7F14345   4.534   2.864   3.177
  133OSM    H7F14346   4.559   2.763   3.216
  133OSM    H7G14347   4.429   2.867   3.141
  133OSM    C8F14348   4.539   2.970   3.297
  133OSM    H8F14349   4.477   3.054   3.259
  133OSM    H8G14350   4.639   3.010   3.325
  133OSM    C9F14351   4.469   2.910   3.416
  133OSM    H9F14352   4.416   2.814   3.405
  133OSM   C10F14353   4.448   2.986   3.528
  133OSM   H10F14354   4.405   2.937   3.617
  133OSM   C11F14355   4.491   3.133   3.555
  133OSM   H11F14356   4.406   3.204   3.567
  133OSM   H11G14357   4.542   3.163   3.461
  133OSM   C12F14358   4.579   3.143   3.677
  133OSM   H12F14359   4.526   3.094   3.761
  133OSM   H12G14360   4.579   3.252   3.699
  133OSM   C13F14361   4.719   3.086   3.660
  133OSM   H13F14362   4.760   3.159   3.587
  133OSM   H13G14363   4.721   3.001   3.589
  133OSM   C14F14364   4.792   3.082   3.792
  133OSM   H14F14365   4.725   3.043   3.873
  133OSM   H14G14366   4.806   3.186   3.829
  133OSM   C15F14367   4.935   3.018   3.798
  133OSM   H15F14368   4.998   3.070   3.873
  133OSM   H15G14369   4.994   3.023   3.704
  133OSM   C16F14370   4.927   2.866   3.832
  133OSM   H16F14371   4.866   2.811   3.759
  133OSM   H16G14372   4.881   2.848   3.932
  133OSM   C17F14373   5.068   2.801   3.849
  133OSM   H17F14374   5.073   2.712   3.916
  133OSM   H17G14375   5.146   2.867   3.890
  133OSM   C18F14376   5.130   2.752   3.718
  133OSM   H18F14377   5.212   2.680   3.737
  133OSM   H18G14378   5.175   2.836   3.661
  133OSM   H18H14379   5.056   2.698   3.654
  134OSM      N14380   5.005   5.994   1.642
  134OSM    C1514381   5.061   6.039   1.514
  134OSM   H15A14382   5.050   6.145   1.499
  134OSM   H15B14383   5.006   5.990   1.435
  134OSM   H15C14384   5.163   6.004   1.508
  134OSM    C1414385   4.866   6.041   1.640
  134OSM   H14A14386   4.869   6.148   1.628
  134OSM   H14B14387   4.810   6.007   1.726
  134OSM   H14C14388   4.812   6.009   1.552
  134OSM    C1314389   5.001   5.844   1.639
  134OSM   H13A14390   4.959   5.804   1.730
  134OSM   H13B14391   5.102   5.808   1.628
  134OSM   H13C14392   4.935   5.808   1.561
  134OSM    C1214393   5.083   6.033   1.765
  134OSM   H12A14394   5.100   6.139   1.750
  134OSM   H12B14395   5.182   5.991   1.759
  134OSM    C1114396   5.025   6.008   1.911
  134OSM   H11A14397   4.924   6.053   1.915
  134OSM   H11B14398   5.090   6.055   1.989
  134OSM      P14399   4.909   5.802   2.012
  134OSM    O1314400   4.773   5.832   1.970
  134OSM    O1414401   4.939   5.657   2.028
  134OSM    O1114402   4.926   5.860   2.159
  134OSM    O1214403   5.030   5.865   1.930
  134OSM    C1S14404   4.835   5.828   2.262
  134OSM    H1S14405   4.745   5.774   2.225
  134OSM    H1T14406   4.802   5.924   2.307
  134OSM     NF14407   4.804   5.715   2.469
  134OSM    HNF14408   4.807   5.767   2.554
  134OSM    C2S14409   4.899   5.752   2.377
  134OSM    H2S14410   4.947   5.665   2.328
  134OSM    C3S14411   5.012   5.837   2.436
  134OSM    H3S14412   4.981   5.941   2.461
  134OSM     O314413   5.123   5.857   2.347
  134OSM    HO314414   5.081   5.843   2.262
  134OSM    C4S14415   5.063   5.770   2.559
  134OSM    H4S14416   5.032   5.814   2.654
  134OSM    C5S14417   5.149   5.664   2.565
  134OSM    H5S14418   5.160   5.611   2.469
  134OSM    C6S14419   5.215   5.612   2.689
  134OSM    H6S14420   5.326   5.622   2.682
  134OSM    H6T14421   5.207   5.501   2.687
  134OSM    C7S14422   5.162   5.667   2.820
  134OSM    H7S14423   5.053   5.685   2.819
  134OSM    H7T14424   5.196   5.773   2.822
  134OSM    C8S14425   5.205   5.592   2.946
  134OSM    H8S14426   5.316   5.595   2.947
  134OSM    H8T14427   5.167   5.488   2.943
  134OSM    C9S14428   5.145   5.649   3.069
  134OSM    H9S14429   5.077   5.578   3.120
  134OSM    H9T14430   5.096   5.747   3.050
  134OSM   C10S14431   5.264   5.689   3.163
  134OSM   H10S14432   5.331   5.755   3.104
  134OSM   H10T14433   5.315   5.595   3.194
  134OSM   C11S14434   5.221   5.761   3.287
  134OSM   H11S14435   5.154   5.689   3.339
  134OSM   H11T14436   5.165   5.854   3.265
  134OSM   C12S14437   5.329   5.802   3.389
  134OSM   H12S14438   5.418   5.843   3.337
  134OSM   H12T14439   5.367   5.704   3.426
  134OSM   C13S14440   5.295   5.897   3.500
  134OSM   H13S14441   5.265   6.002   3.479
  134OSM   H13T14442   5.373   5.900   3.579
  134OSM   C14S14443   5.167   5.843   3.572
  134OSM   H14S14444   5.177   5.733   3.581
  134OSM   H14T14445   5.081   5.856   3.503
  134OSM   C15S14446   5.146   5.894   3.709
  134OSM   H15S14447   5.151   6.005   3.714
  134OSM   H15T14448   5.233   5.868   3.774
  134OSM   C16S14449   5.024   5.826   3.777
  134OSM   H16S14450   5.041   5.717   3.787
  134OSM   H16T14451   4.934   5.856   3.718
  134OSM   C17S14452   4.983   5.882   3.917
  134OSM   H17S14453   4.963   5.989   3.896
  134OSM   H17T14454   5.073   5.876   3.982
  134OSM   C18S14455   4.869   5.810   3.984
  134OSM   H18S14456   4.841   5.867   4.076
  134OSM   H18T14457   4.902   5.706   4.005
  134OSM   H18U14458   4.778   5.807   3.921
  134OSM    C1F14459   4.712   5.630   2.445
  134OSM     OF14460   4.707   5.565   2.337
  134OSM    C2F14461   4.624   5.597   2.560
  134OSM    H2F14462   4.652   5.653   2.652
  134OSM    H2G14463   4.641   5.490   2.585
  134OSM    C3F14464   4.469   5.623   2.536
  134OSM    H3F14465   4.439   5.553   2.455
  134OSM    H3G14466   4.447   5.727   2.504
  134OSM    C4F14467   4.379   5.602   2.667
  134OSM    H4F14468   4.413   5.502   2.702
  134OSM    H4G14469   4.270   5.597   2.643
  134OSM    C5F14470   4.400   5.708   2.780
  134OSM    H5F14471   4.359   5.807   2.751
  134OSM    H5G14472   4.509   5.726   2.793
  134OSM    C6F14473   4.341   5.654   2.917
  134OSM    H6F14474   4.419   5.607   2.981
  134OSM    H6G14475   4.253   5.588   2.902
  134OSM    C7F14476   4.290   5.785   3.000
  134OSM    H7F14477   4.228   5.853   2.937
  134OSM    H7G14478   4.381   5.847   3.017
  134OSM    C8F14479   4.239   5.737   3.135
  134OSM    H8F14480   4.331   5.704   3.188
  134OSM    H8G14481   4.181   5.644   3.120
  134OSM    C9F14482   4.165   5.842   3.220
  134OSM    H9F14483   4.059   5.854   3.196
  134OSM   C10F14484   4.217   5.902   3.328
  134OSM   H10F14485   4.153   5.970   3.386
  134OSM   C11F14486   4.354   5.873   3.387
  134OSM   H11F14487   4.424   5.850   3.304
  134OSM   H11G14488   4.353   5.789   3.459
  134OSM   C12F14489   4.413   6.004   3.453
  134OSM   H12F14490   4.343   6.033   3.534
  134OSM   H12G14491   4.415   6.085   3.377
  134OSM   C13F14492   4.548   5.986   3.516
  134OSM   H13F14493   4.598   6.084   3.510
  134OSM   H13G14494   4.606   5.922   3.447
  134OSM   C14F14495   4.560   5.937   3.658
  134OSM   H14F14496   4.649   5.869   3.655
  134OSM   H14G14497   4.467   5.884   3.687
  134OSM   C15F14498   4.596   6.034   3.765
  134OSM   H15F14499   4.702   6.053   3.739
  134OSM   H15G14500   4.618   5.980   3.860
  134OSM   C16F14501   4.497   6.145   3.797
  134OSM   H16F14502   4.397   6.096   3.809
  134OSM   H16G14503   4.489   6.223   3.719
  134OSM   C17F14504   4.532   6.222   3.929
  134OSM   H17F14505   4.624   6.281   3.913
  134OSM   H17G14506   4.552   6.149   4.010
  134OSM   C18F14507   4.420   6.320   3.977
  134OSM   H18F14508   4.457   6.415   3.932
  134OSM   H18G14509   4.410   6.327   4.088
  134OSM   H18H14510   4.319   6.297   3.938
  135OSM      N14511   0.411   3.986   1.555
  135OSM    C1514512   0.285   3.931   1.496
  135OSM   H15A14513   0.199   3.993   1.519
  135OSM   H15B14514   0.273   3.832   1.540
  135OSM   H15C14515   0.296   3.910   1.391
  135OSM    C1414516   0.534   3.912   1.510
  135OSM   H14A14517   0.619   3.978   1.519
  135OSM   H14B14518   0.532   3.887   1.405
  135OSM   H14C14519   0.563   3.828   1.571
  135OSM    C1314520   0.419   4.126   1.514
  135OSM   H13A14521   0.476   4.138   1.423
  135OSM   H13B14522   0.454   4.186   1.596
  135OSM   H13C14523   0.330   4.178   1.479
  135OSM    C1214524   0.407   3.978   1.706
  135OSM   H12A14525   0.490   4.033   1.748
  135OSM   H12B14526   0.423   3.876   1.739
  135OSM    C1114527   0.280   4.009   1.782
  135OSM   H11A14528   0.292   3.982   1.889
  135OSM   H11B14529   0.188   3.959   1.745
  135OSM      P14530   0.362   4.264   1.849
  135OSM    O1314531   0.500   4.224   1.817
  135OSM    O1414532   0.316   4.404   1.827
  135OSM    O1114533   0.340   4.250   2.004
  135OSM    O1214534   0.265   4.155   1.781
  135OSM    C1S14535   0.210   4.239   2.059
  135OSM    H1S14536   0.159   4.142   2.038
  135OSM    H1T14537   0.148   4.327   2.032
  135OSM     NF14538   0.081   4.197   2.267
  135OSM    HNF14539   0.039   4.270   2.321
  135OSM    C2S14540   0.213   4.225   2.215
  135OSM    H2S14541   0.278   4.138   2.234
  135OSM    C3S14542   0.281   4.355   2.277
  135OSM    H3S14543   0.198   4.429   2.271
  135OSM     O314544   0.385   4.418   2.195
  135OSM    HO314545   0.394   4.359   2.121
  135OSM    C4S14546   0.307   4.355   2.425
  135OSM    H4S14547   0.215   4.374   2.483
  135OSM    C5S14548   0.424   4.344   2.487
  135OSM    H5S14549   0.514   4.318   2.430
  135OSM    C6S14550   0.441   4.340   2.633
  135OSM    H6S14551   0.496   4.428   2.675
  135OSM    H6T14552   0.508   4.260   2.670
  135OSM    C7S14553   0.308   4.333   2.718
  135OSM    H7S14554   0.242   4.251   2.682
  135OSM    H7T14555   0.260   4.433   2.707
  135OSM    C8S14556   0.345   4.328   2.875
  135OSM    H8S14557   0.413   4.415   2.893
  135OSM    H8T14558   0.406   4.236   2.886
  135OSM    C9S14559   0.227   4.321   2.972
  135OSM    H9S14560   0.158   4.240   2.942
  135OSM    H9T14561   0.179   4.420   2.985
  135OSM   C10S14562   0.269   4.275   3.115
  135OSM   H10S14563   0.352   4.334   3.160
  135OSM   H10T14564   0.310   4.171   3.111
  135OSM   C11S14565   0.149   4.262   3.216
  135OSM   H11S14566   0.080   4.194   3.162
  135OSM   H11T14567   0.094   4.358   3.225
  135OSM   C12S14568   0.197   4.212   3.355
  135OSM   H12S14569   0.280   4.273   3.397
  135OSM   H12T14570   0.225   4.105   3.358
  135OSM   C13S14571   0.087   4.229   3.455
  135OSM   H13S14572  -0.012   4.189   3.424
  135OSM   H13T14573   0.085   4.340   3.463
  135OSM   C14S14574   0.127   4.172   3.596
  135OSM   H14S14575   0.230   4.214   3.592
  135OSM   H14T14576   0.133   4.062   3.606
  135OSM   C15S14577   0.054   4.233   3.710
  135OSM   H15S14578  -0.050   4.193   3.714
  135OSM   H15T14579   0.041   4.342   3.695
  135OSM   C16S14580   0.121   4.196   3.840
  135OSM   H16S14581   0.224   4.238   3.841
  135OSM   H16T14582   0.120   4.086   3.859
  135OSM   C17S14583   0.043   4.267   3.952
  135OSM   H17S14584  -0.064   4.238   3.941
  135OSM   H17T14585   0.047   4.376   3.932
  135OSM   C18S14586   0.082   4.231   4.095
  135OSM   H18S14587   0.046   4.290   4.182
  135OSM   H18T14588   0.192   4.245   4.102
  135OSM   H18U14589   0.054   4.124   4.105
  135OSM    C1F14590   0.023   4.083   2.244
  135OSM     OF14591   0.091   3.989   2.202
  135OSM    C2F14592  -0.133   4.066   2.261
  135OSM    H2F14593  -0.153   3.990   2.183
  135OSM    H2G14594  -0.183   4.165   2.256
  135OSM    C3F14595  -0.162   4.005   2.399
  135OSM    H3F14596  -0.100   3.917   2.424
  135OSM    H3G14597  -0.265   3.966   2.392
  135OSM    C4F14598  -0.141   4.113   2.512
  135OSM    H4F14599  -0.230   4.106   2.578
  135OSM    H4G14600  -0.150   4.215   2.470
  135OSM    C5F14601  -0.003   4.110   2.592
  135OSM    H5F14602  -0.008   4.207   2.647
  135OSM    H5G14603   0.077   4.113   2.515
  135OSM    C6F14604   0.011   3.988   2.685
  135OSM    H6F14605   0.117   3.988   2.718
  135OSM    H6G14606  -0.003   3.901   2.617
  135OSM    C7F14607  -0.092   3.981   2.799
  135OSM    H7F14608  -0.191   3.972   2.749
  135OSM    H7G14609  -0.091   4.082   2.847
  135OSM    C8F14610  -0.066   3.864   2.896
  135OSM    H8F14611  -0.035   3.777   2.834
  135OSM    H8G14612  -0.160   3.832   2.944
  135OSM    C9F14613   0.026   3.892   3.009
  135OSM    H9F14614   0.117   3.935   2.965
  135OSM   C10F14615   0.017   3.881   3.143
  135OSM   H10F14616   0.104   3.903   3.207
  135OSM   C11F14617  -0.107   3.836   3.219
  135OSM   H11F14618  -0.169   3.780   3.146
  135OSM   H11G14619  -0.164   3.925   3.254
  135OSM   C12F14620  -0.070   3.735   3.324
  135OSM   H12F14621   0.012   3.665   3.295
  135OSM   H12G14622  -0.169   3.688   3.341
  135OSM   C13F14623  -0.019   3.796   3.456
  135OSM   H13F14624  -0.084   3.882   3.483
  135OSM   H13G14625   0.086   3.829   3.441
  135OSM   C14F14626  -0.015   3.699   3.584
  135OSM   H14F14627   0.042   3.605   3.568
  135OSM   H14G14628  -0.116   3.662   3.610
  135OSM   C15F14629   0.040   3.777   3.697
  135OSM   H15F14630  -0.025   3.865   3.717
  135OSM   H15G14631   0.140   3.812   3.665
  135OSM   C16F14632   0.047   3.683   3.816
  135OSM   H16F14633  -0.043   3.619   3.800
  135OSM   H16G14634   0.062   3.731   3.915
  135OSM   C17F14635   0.176   3.588   3.808
  135OSM   H17F14636   0.263   3.655   3.800
  135OSM   H17G14637   0.181   3.539   3.708
  135OSM   C18F14638   0.205   3.506   3.929
  135OSM   H18F14639   0.216   3.584   4.007
  135OSM   H18G14640   0.295   3.443   3.909
  135OSM   H18H14641   0.125   3.432   3.951
  136OSM      N14642   3.857   0.036   2.022
  136OSM    C1514643   3.756  -0.055   1.959
  136OSM   H15A14644   3.677  -0.086   2.025
  136OSM   H15B14645   3.805  -0.143   1.919
  136OSM   H15C14646   3.708  -0.003   1.877
  136OSM    C1414647   3.919  -0.039   2.140
  136OSM   H14A14648   3.843  -0.042   2.217
  136OSM   H14B14649   4.006   0.016   2.173
  136OSM   H14C14650   3.949  -0.134   2.100
  136OSM    C1314651   3.967   0.062   1.921
  136OSM   H13A14652   4.015  -0.030   1.889
  136OSM   H13B14653   4.044   0.126   1.960
  136OSM   H13C14654   3.933   0.118   1.836
  136OSM    C1214655   3.805   0.174   2.066
  136OSM   H12A14656   3.786   0.239   1.982
  136OSM   H12B14657   3.882   0.218   2.126
  136OSM    C1114658   3.675   0.176   2.157
  136OSM   H11A14659   3.662   0.277   2.200
  136OSM   H11B14660   3.695   0.105   2.241
  136OSM      P14661   3.497   0.231   1.986
  136OSM    O1314662   3.597   0.293   1.898
  136OSM    O1414663   3.375   0.181   1.919
  136OSM    O1114664   3.449   0.341   2.086
  136OSM    O1214665   3.565   0.130   2.081
  136OSM    C1S14666   3.323   0.329   2.151
  136OSM    H1S14667   3.248   0.265   2.098
  136OSM    H1T14668   3.280   0.431   2.153
  136OSM     NF14669   3.227   0.225   2.357
  136OSM    HNF14670   3.193   0.260   2.444
  136OSM    C2S14671   3.346   0.292   2.297
  136OSM    H2S14672   3.423   0.212   2.294
  136OSM    C3S14673   3.396   0.410   2.379
  136OSM    H3S14674   3.309   0.476   2.399
  136OSM     O314675   3.480   0.504   2.312
  136OSM    HO314676   3.470   0.476   2.221
  136OSM    C4S14677   3.451   0.367   2.512
  136OSM    H4S14678   3.373   0.349   2.588
  136OSM    C5S14679   3.585   0.350   2.544
  136OSM    H5S14680   3.650   0.352   2.455
  136OSM    C6S14681   3.631   0.317   2.682
  136OSM    H6S14682   3.707   0.389   2.719
  136OSM    H6T14683   3.700   0.230   2.677
  136OSM    C7S14684   3.529   0.283   2.794
  136OSM    H7S14685   3.428   0.321   2.769
  136OSM    H7T14686   3.569   0.341   2.880
  136OSM    C8S14687   3.525   0.138   2.821
  136OSM    H8S14688   3.624   0.108   2.863
  136OSM    H8T14689   3.495   0.084   2.728
  136OSM    C9S14690   3.416   0.103   2.920
  136OSM    H9S14691   3.433  -0.006   2.935
  136OSM    H9T14692   3.314   0.123   2.881
  136OSM   C10S14693   3.440   0.169   3.058
  136OSM   H10S14694   3.407   0.275   3.054
  136OSM   H10T14695   3.549   0.175   3.075
  136OSM   C11S14696   3.389   0.086   3.178
  136OSM   H11S14697   3.422  -0.021   3.176
  136OSM   H11T14698   3.278   0.083   3.172
  136OSM   C12S14699   3.411   0.153   3.314
  136OSM   H12S14700   3.380   0.259   3.300
  136OSM   H12T14701   3.520   0.163   3.329
  136OSM   C13S14702   3.340   0.077   3.422
  136OSM   H13S14703   3.377  -0.028   3.424
  136OSM   H13T14704   3.232   0.071   3.397
  136OSM   C14S14705   3.359   0.119   3.566
  136OSM   H14S14706   3.302   0.211   3.592
  136OSM   H14T14707   3.467   0.128   3.587
  136OSM   C15S14708   3.301   0.013   3.667
  136OSM   H15S14709   3.369  -0.073   3.650
  136OSM   H15T14710   3.202  -0.029   3.639
  136OSM   C16S14711   3.293   0.055   3.811
  136OSM   H16S14712   3.392   0.064   3.861
  136OSM   H16T14713   3.256  -0.037   3.862
  136OSM   C17S14714   3.205   0.171   3.857
  136OSM   H17S14715   3.240   0.263   3.806
  136OSM   H17T14716   3.225   0.191   3.965
  136OSM   C18S14717   3.059   0.135   3.846
  136OSM   H18S14718   3.064   0.026   3.862
  136OSM   H18T14719   3.014   0.161   3.748
  136OSM   H18U14720   2.996   0.184   3.924
  136OSM    C1F14721   3.186   0.104   2.318
  136OSM     OF14722   3.252   0.035   2.242
  136OSM    C2F14723   3.051   0.062   2.372
  136OSM    H2F14724   2.978   0.044   2.290
  136OSM    H2G14725   3.003   0.131   2.445
  136OSM    C3F14726   3.072  -0.071   2.442
  136OSM    H3F14727   3.161  -0.074   2.508
  136OSM    H3G14728   3.091  -0.144   2.360
  136OSM    C4F14729   2.954  -0.121   2.525
  136OSM    H4F14730   2.995  -0.217   2.560
  136OSM    H4G14731   2.872  -0.140   2.452
  136OSM    C5F14732   2.898  -0.027   2.633
  136OSM    H5F14733   2.818  -0.075   2.694
  136OSM    H5G14734   2.860   0.063   2.580
  136OSM    C6F14735   3.008   0.018   2.730
  136OSM    H6F14736   2.952   0.098   2.783
  136OSM    H6G14737   3.084   0.067   2.666
  136OSM    C7F14738   3.072  -0.083   2.829
  136OSM    H7F14739   3.152  -0.032   2.887
  136OSM    H7G14740   3.126  -0.150   2.759
  136OSM    C8F14741   2.979  -0.168   2.911
  136OSM    H8F14742   3.051  -0.239   2.957
  136OSM    H8G14743   2.922  -0.245   2.854
  136OSM    C9F14744   2.901  -0.103   3.016
  136OSM    H9F14745   2.801  -0.082   2.973
  136OSM   C10F14746   2.933  -0.083   3.146
  136OSM   H10F14747   2.863  -0.025   3.207
  136OSM   C11F14748   3.059  -0.133   3.213
  136OSM   H11F14749   3.122  -0.044   3.237
  136OSM   H11G14750   3.120  -0.193   3.142
  136OSM   C12F14751   3.033  -0.194   3.353
  136OSM   H12F14752   3.129  -0.216   3.404
  136OSM   H12G14753   2.978  -0.291   3.351
  136OSM   C13F14754   2.950  -0.113   3.454
  136OSM   H13F14755   2.855  -0.086   3.403
  136OSM   H13G14756   2.999  -0.017   3.481
  136OSM   C14F14757   2.930  -0.193   3.587
  136OSM   H14F14758   3.020  -0.215   3.648
  136OSM   H14G14759   2.880  -0.287   3.558
  136OSM   C15F14760   2.823  -0.124   3.682
  136OSM   H15F14761   2.732  -0.103   3.622
  136OSM   H15G14762   2.861  -0.024   3.712
  136OSM   C16F14763   2.780  -0.216   3.792
  136OSM   H16F14764   2.862  -0.250   3.858
  136OSM   H16G14765   2.740  -0.308   3.744
  136OSM   C17F14766   2.682  -0.179   3.900
  136OSM   H17F14767   2.675  -0.256   3.979
  136OSM   H17G14768   2.574  -0.171   3.872
  136OSM   C18F14769   2.715  -0.051   3.971
  136OSM   H18F14770   2.710   0.038   3.904
  136OSM   H18G14771   2.815  -0.059   4.018
  136OSM   H18H14772   2.642  -0.030   4.053
  137OSM      N14773   0.277   5.204   1.885
  137OSM    C1514774   0.150   5.166   1.826
  137OSM   H15A14775   0.080   5.248   1.832
  137OSM   H15B14776   0.099   5.078   1.861
  137OSM   H15C14777   0.152   5.157   1.718
  137OSM    C1414778   0.377   5.096   1.859
  137OSM   H14A14779   0.358   5.061   1.758
  137OSM   H14B14780   0.356   5.005   1.913
  137OSM   H14C14781   0.478   5.133   1.860
  137OSM    C1314782   0.333   5.312   1.801
  137OSM   H13A14783   0.432   5.334   1.837
  137OSM   H13B14784   0.272   5.400   1.812
  137OSM   H13C14785   0.341   5.285   1.696
  137OSM    C1214786   0.271   5.232   2.029
  137OSM   H12A14787   0.192   5.304   2.041
  137OSM   H12B14788   0.360   5.288   2.054
  137OSM    C1114789   0.251   5.115   2.124
  137OSM   H11A14790   0.288   5.132   2.228
  137OSM   H11B14791   0.324   5.037   2.093
  137OSM      P14792   0.076   4.921   2.084
  137OSM    O1314793  -0.074   4.902   2.085
  137OSM    O1414794   0.138   4.880   1.959
  137OSM    O1114795   0.133   4.829   2.203
  137OSM    O1214796   0.116   5.070   2.131
  137OSM    C1S14797   0.119   4.851   2.342
  137OSM    H1S14798   0.021   4.808   2.373
  137OSM    H1T14799   0.120   4.959   2.366
  137OSM     NF14800   0.201   4.786   2.564
  137OSM    HNF14801   0.257   4.857   2.606
  137OSM    C2S14802   0.224   4.778   2.425
  137OSM    H2S14803   0.215   4.670   2.397
  137OSM    C3S14804   0.363   4.830   2.382
  137OSM    H3S14805   0.369   4.937   2.411
  137OSM     O314806   0.403   4.817   2.243
  137OSM    HO314807   0.317   4.837   2.204
  137OSM    C4S14808   0.472   4.753   2.460
  137OSM    H4S14809   0.482   4.648   2.429
  137OSM    C5S14810   0.537   4.809   2.561
  137OSM    H5S14811   0.515   4.915   2.580
  137OSM    C6S14812   0.645   4.744   2.649
  137OSM    H6S14813   0.734   4.787   2.600
  137OSM    H6T14814   0.653   4.634   2.634
  137OSM    C7S14815   0.640   4.784   2.796
  137OSM    H7S14816   0.622   4.893   2.800
  137OSM    H7T14817   0.737   4.762   2.844
  137OSM    C8S14818   0.523   4.709   2.871
  137OSM    H8S14819   0.555   4.602   2.880
  137OSM    H8T14820   0.436   4.703   2.803
  137OSM    C9S14821   0.494   4.759   3.013
  137OSM    H9S14822   0.453   4.863   3.013
  137OSM    H9T14823   0.584   4.767   3.077
  137OSM   C10S14824   0.388   4.666   3.085
  137OSM   H10S14825   0.443   4.573   3.108
  137OSM   H10T14826   0.305   4.657   3.012
  137OSM   C11S14827   0.345   4.704   3.224
  137OSM   H11S14828   0.284   4.796   3.214
  137OSM   H11T14829   0.426   4.731   3.295
  137OSM   C12S14830   0.265   4.594   3.302
  137OSM   H12S14831   0.342   4.517   3.320
  137OSM   H12T14832   0.192   4.539   3.240
  137OSM   C13S14833   0.205   4.646   3.437
  137OSM   H13S14834   0.101   4.607   3.448
  137OSM   H13T14835   0.190   4.755   3.428
  137OSM   C14S14836   0.285   4.600   3.552
  137OSM   H14S14837   0.386   4.646   3.551
  137OSM   H14T14838   0.305   4.492   3.564
  137OSM   C15S14839   0.216   4.644   3.685
  137OSM   H15S14840   0.108   4.622   3.690
  137OSM   H15T14841   0.229   4.754   3.695
  137OSM   C16S14842   0.275   4.583   3.812
  137OSM   H16S14843   0.381   4.614   3.809
  137OSM   H16T14844   0.279   4.474   3.828
  137OSM   C17S14845   0.207   4.646   3.935
  137OSM   H17S14846   0.109   4.601   3.963
  137OSM   H17T14847   0.184   4.751   3.907
  137OSM   C18S14848   0.296   4.645   4.061
  137OSM   H18S14849   0.290   4.538   4.093
  137OSM   H18T14850   0.235   4.703   4.134
  137OSM   H18U14851   0.396   4.689   4.043
  137OSM    C1F14852   0.099   4.722   2.626
  137OSM     OF14853   0.035   4.637   2.571
  137OSM    C2F14854   0.072   4.762   2.766
  137OSM    H2F14855   0.028   4.864   2.770
  137OSM    H2G14856   0.172   4.771   2.813
  137OSM    C3F14857  -0.016   4.657   2.849
  137OSM    H3F14858   0.034   4.560   2.871
  137OSM    H3G14859  -0.111   4.639   2.794
  137OSM    C4F14860  -0.056   4.698   2.994
  137OSM    H4F14861  -0.114   4.790   2.972
  137OSM    H4G14862   0.035   4.722   3.054
  137OSM    C5F14863  -0.131   4.581   3.053
  137OSM    H5F14864  -0.054   4.503   3.069
  137OSM    H5G14865  -0.197   4.534   2.977
  137OSM    C6F14866  -0.216   4.615   3.179
  137OSM    H6F14867  -0.290   4.536   3.203
  137OSM    H6G14868  -0.282   4.705   3.176
  137OSM    C7F14869  -0.124   4.628   3.302
  137OSM    H7F14870  -0.052   4.713   3.297
  137OSM    H7G14871  -0.068   4.532   3.304
  137OSM    C8F14872  -0.202   4.645   3.436
  137OSM    H8F14873  -0.258   4.741   3.430
  137OSM    H8G14874  -0.131   4.671   3.518
  137OSM    C9F14875  -0.312   4.543   3.452
  137OSM    H9F14876  -0.387   4.560   3.374
  137OSM   C10F14877  -0.314   4.460   3.559
  137OSM   H10F14878  -0.390   4.380   3.558
  137OSM   C11F14879  -0.215   4.453   3.666
  137OSM   H11F14880  -0.113   4.468   3.626
  137OSM   H11G14881  -0.218   4.350   3.708
  137OSM   C12F14882  -0.232   4.552   3.780
  137OSM   H12F14883  -0.208   4.653   3.739
  137OSM   H12G14884  -0.161   4.542   3.864
  137OSM   C13F14885  -0.381   4.554   3.834
  137OSM   H13F14886  -0.452   4.521   3.756
  137OSM   H13G14887  -0.390   4.660   3.866
  137OSM   C14F14888  -0.422   4.462   3.951
  137OSM   H14F14889  -0.356   4.493   4.035
  137OSM   H14G14890  -0.392   4.363   3.912
  137OSM   C15F14891  -0.571   4.472   3.977
  137OSM   H15F14892  -0.628   4.483   3.882
  137OSM   H15G14893  -0.601   4.567   4.026
  137OSM   C16F14894  -0.629   4.354   4.057
  137OSM   H16F14895  -0.582   4.358   4.158
  137OSM   H16G14896  -0.602   4.262   4.001
  137OSM   C17F14897  -0.775   4.363   4.099
  137OSM   H17F14898  -0.850   4.362   4.016
  137OSM   H17G14899  -0.793   4.462   4.146
  137OSM   C18F14900  -0.801   4.248   4.200
  137OSM   H18F14901  -0.786   4.151   4.148
  137OSM   H18G14902  -0.909   4.249   4.227
  137OSM   H18H14903  -0.737   4.254   4.290
  138OSM      N14904   6.200   0.271   1.963
  138OSM    C1514905   6.279   0.385   1.899
  138OSM   H15A14906   6.277   0.394   1.791
  138OSM   H15B14907   6.384   0.375   1.921
  138OSM   H15C14908   6.240   0.482   1.927
  138OSM    C1414909   6.254   0.142   1.900
  138OSM   H14A14910   6.238   0.144   1.793
  138OSM   H14B14911   6.210   0.056   1.946
  138OSM   H14C14912   6.360   0.138   1.922
  138OSM    C1314913   6.234   0.259   2.108
  138OSM   H13A14914   6.337   0.289   2.123
  138OSM   H13B14915   6.207   0.166   2.155
  138OSM   H13C14916   6.169   0.329   2.159
  138OSM    C1214917   6.045   0.287   1.946
  138OSM   H12A14918   6.027   0.376   2.004
  138OSM   H12B14919   5.999   0.200   1.990
  138OSM    C1114920   5.995   0.297   1.800
  138OSM   H11A14921   6.056   0.376   1.750
  138OSM   H11B14922   5.901   0.357   1.803
  138OSM      P14923   5.860   0.088   1.739
  138OSM    O1314924   5.754   0.150   1.658
  138OSM    O1414925   5.900  -0.052   1.699
  138OSM    O1114926   5.813   0.095   1.887
  138OSM    O1214927   5.985   0.175   1.735
  138OSM    C1S14928   5.872  -0.009   1.974
  138OSM    H1S14929   5.981  -0.023   1.962
  138OSM    H1T14930   5.824  -0.105   1.943
  138OSM     NF14931   5.901  -0.077   2.210
  138OSM    HNF14932   5.868  -0.171   2.217
  138OSM    C2S14933   5.837   0.020   2.125
  138OSM    H2S14934   5.869   0.118   2.165
  138OSM    C3S14935   5.683   0.017   2.145
  138OSM    H3S14936   5.642  -0.070   2.090
  138OSM     O314937   5.622   0.135   2.087
  138OSM    HO314938   5.686   0.150   2.018
  138OSM    C4S14939   5.646   0.010   2.292
  138OSM    H4S14940   5.623  -0.090   2.332
  138OSM    C5S14941   5.629   0.117   2.368
  138OSM    H5S14942   5.657   0.213   2.322
  138OSM    C6S14943   5.598   0.102   2.517
  138OSM    H6S14944   5.538   0.009   2.533
  138OSM    H6T14945   5.532   0.186   2.547
  138OSM    C7S14946   5.729   0.111   2.592
  138OSM    H7S14947   5.770   0.212   2.571
  138OSM    H7T14948   5.802   0.042   2.545
  138OSM    C8S14949   5.714   0.088   2.744
  138OSM    H8S14950   5.636   0.157   2.783
  138OSM    H8T14951   5.806   0.112   2.801
  138OSM    C9S14952   5.696  -0.053   2.791
  138OSM    H9S14953   5.787  -0.114   2.772
  138OSM    H9T14954   5.614  -0.099   2.732
  138OSM   C10S14955   5.669  -0.063   2.944
  138OSM   H10S14956   5.653  -0.170   2.971
  138OSM   H10T14957   5.580  -0.006   2.975
  138OSM   C11S14958   5.774  -0.008   3.045
  138OSM   H11S14959   5.790   0.101   3.035
  138OSM   H11T14960   5.867  -0.067   3.029
  138OSM   C12S14961   5.723  -0.040   3.188
  138OSM   H12S14962   5.700  -0.149   3.191
  138OSM   H12T14963   5.627   0.009   3.216
  138OSM   C13S14964   5.830  -0.012   3.292
  138OSM   H13S14965   5.850   0.097   3.298
  138OSM   H13T14966   5.924  -0.067   3.270
  138OSM   C14S14967   5.774  -0.042   3.436
  138OSM   H14S14968   5.749  -0.151   3.431
  138OSM   H14T14969   5.671  -0.003   3.448
  138OSM   C15S14970   5.861   0.000   3.552
  138OSM   H15S14971   5.870   0.111   3.548
  138OSM   H15T14972   5.964  -0.036   3.530
  138OSM   C16S14973   5.810  -0.059   3.690
  138OSM   H16S14974   5.798  -0.169   3.688
  138OSM   H16T14975   5.713  -0.007   3.706
  138OSM   C17S14976   5.890  -0.030   3.816
  138OSM   H17S14977   5.921   0.076   3.808
  138OSM   H17T14978   5.980  -0.095   3.820
  138OSM   C18S14979   5.811  -0.040   3.950
  138OSM   H18S14980   5.726   0.031   3.947
  138OSM   H18T14981   5.880  -0.013   4.033
  138OSM   H18U14982   5.778  -0.142   3.979
  138OSM    C1F14983   6.027  -0.060   2.254
  138OSM     OF14984   6.086   0.040   2.224
  138OSM    C2F14985   6.085  -0.170   2.343
  138OSM    H2F14986   6.146  -0.240   2.282
  138OSM    H2G14987   6.009  -0.233   2.395
  138OSM    C3F14988   6.178  -0.124   2.457
  138OSM    H3F14989   6.254  -0.054   2.418
  138OSM    H3G14990   6.238  -0.213   2.487
  138OSM    C4F14991   6.106  -0.069   2.578
  138OSM    H4F14992   6.054  -0.150   2.633
  138OSM    H4G14993   6.026   0.001   2.546
  138OSM    C5F14994   6.195   0.002   2.679
  138OSM    H5F14995   6.247   0.094   2.644
  138OSM    H5G14996   6.275  -0.074   2.692
  138OSM    C6F14997   6.126   0.035   2.812
  138OSM    H6F14998   6.083  -0.056   2.859
  138OSM    H6G14999   6.040   0.101   2.788
  138OSM    C7F15000   6.226   0.095   2.917
  138OSM    H7F15001   6.268   0.192   2.881
  138OSM    H7G15002   6.311   0.023   2.923
  138OSM    C8F15003   6.172   0.114   3.063
  138OSM    H8F15004   6.138   0.016   3.104
  138OSM    H8G15005   6.086   0.184   3.055
  138OSM    C9F15006   6.278   0.176   3.146
  138OSM    H9F15007   6.315   0.277   3.123
  138OSM   C10F15008   6.354   0.120   3.243
  138OSM   H10F15009   6.438   0.179   3.282
  138OSM   C11F15010   6.358  -0.022   3.285
  138OSM   H11F15011   6.463  -0.044   3.314
  138OSM   H11G15012   6.325  -0.086   3.201
  138OSM   C12F15013   6.281  -0.054   3.409
  138OSM   H12F15014   6.244  -0.158   3.396
  138OSM   H12G15015   6.185   0.001   3.413
  138OSM   C13F15016   6.366  -0.024   3.542
  138OSM   H13F15017   6.420   0.073   3.543
  138OSM   H13G15018   6.444  -0.101   3.559
  138OSM   C14F15019   6.278  -0.047   3.665
  138OSM   H14F15020   6.240  -0.151   3.661
  138OSM   H14G15021   6.189   0.020   3.661
  138OSM   C15F15022   6.349   0.007   3.795
  138OSM   H15F15023   6.375   0.113   3.777
  138OSM   H15G15024   6.446  -0.045   3.810
  138OSM   C16F15025   6.261  -0.004   3.924
  138OSM   H16F15026   6.221  -0.108   3.933
  138OSM   H16G15027   6.169   0.057   3.916
  138OSM   C17F15028   6.337   0.036   4.050
  138OSM   H17F15029   6.380   0.137   4.033
  138OSM   H17G15030   6.421  -0.035   4.069
  138OSM   C18F15031   6.254   0.049   4.178
  138OSM   H18F15032   6.159  -0.008   4.166
  138OSM   H18G15033   6.227   0.155   4.197
  138OSM   H18H15034   6.315   0.022   4.267
  139OSM      N15035   1.377   4.176   1.792
  139OSM    C1515036   1.519   4.181   1.759
  139OSM   H15A15037   1.574   4.116   1.827
  139OSM   H15B15038   1.566   4.277   1.774
  139OSM   H15C15039   1.539   4.147   1.658
  139OSM    C1415040   1.310   4.271   1.697
  139OSM   H14A15041   1.352   4.371   1.697
  139OSM   H14B15042   1.205   4.285   1.720
  139OSM   H14C15043   1.314   4.238   1.595
  139OSM    C1315044   1.318   4.040   1.765
  139OSM   H13A15045   1.338   4.014   1.663
  139OSM   H13B15046   1.210   4.038   1.776
  139OSM   H13C15047   1.353   3.968   1.837
  139OSM    C1215048   1.351   4.222   1.938
  139OSM   H12A15049   1.379   4.326   1.949
  139OSM   H12B15050   1.425   4.173   2.000
  139OSM    C1115051   1.218   4.206   2.008
  139OSM   H11A15052   1.134   4.252   1.951
  139OSM   H11B15053   1.214   4.263   2.104
  139OSM      P15054   1.282   3.988   2.131
  139OSM    O1315055   1.245   3.844   2.135
  139OSM    O1415056   1.431   4.012   2.102
  139OSM    O1115057   1.236   4.048   2.269
  139OSM    O1215058   1.191   4.066   2.028
  139OSM    C1S15059   1.108   4.071   2.315
  139OSM    H1S15060   1.029   4.053   2.239
  139OSM    H1T15061   1.094   4.180   2.333
  139OSM     NF15062   0.941   3.966   2.475
  139OSM    HNF15063   0.901   4.014   2.553
  139OSM    C2S15064   1.082   3.987   2.447
  139OSM    H2S15065   1.118   3.884   2.426
  139OSM    C3S15066   1.167   4.040   2.563
  139OSM    H3S15067   1.136   4.142   2.594
  139OSM     O315068   1.300   4.063   2.528
  139OSM    HO315069   1.288   4.081   2.434
  139OSM    C4S15070   1.156   3.943   2.676
  139OSM    H4S15071   1.201   3.844   2.660
  139OSM    C5S15072   1.095   3.971   2.799
  139OSM    H5S15073   1.050   4.066   2.833
  139OSM    C6S15074   1.088   3.857   2.894
  139OSM    H6S15075   1.147   3.763   2.880
  139OSM    H6T15076   0.983   3.827   2.915
  139OSM    C7S15077   1.141   3.898   3.034
  139OSM    H7S15078   1.247   3.931   3.023
  139OSM    H7T15079   1.148   3.807   3.097
  139OSM    C8S15080   1.058   4.008   3.119
  139OSM    H8S15081   0.961   3.967   3.154
  139OSM    H8T15082   1.030   4.095   3.056
  139OSM    C9S15083   1.136   4.073   3.241
  139OSM    H9S15084   1.232   4.115   3.204
  139OSM    H9T15085   1.154   3.987   3.309
  139OSM   C10S15086   1.052   4.175   3.323
  139OSM   H10S15087   0.962   4.121   3.360
  139OSM   H10T15088   1.020   4.262   3.260
  139OSM   C11S15089   1.129   4.237   3.437
  139OSM   H11S15090   1.208   4.293   3.383
  139OSM   H11T15091   1.187   4.163   3.495
  139OSM   C12S15092   1.051   4.337   3.516
  139OSM   H12S15093   0.976   4.390   3.454
  139OSM   H12T15094   1.120   4.412   3.561
  139OSM   C13S15095   0.978   4.281   3.642
  139OSM   H13S15096   1.057   4.219   3.690
  139OSM   H13T15097   0.894   4.212   3.620
  139OSM   C14S15098   0.927   4.379   3.749
  139OSM   H14S15099   0.837   4.435   3.719
  139OSM   H14T15100   0.996   4.463   3.773
  139OSM   C15S15101   0.892   4.308   3.882
  139OSM   H15S15102   0.837   4.213   3.866
  139OSM   H15T15103   0.827   4.367   3.951
  139OSM   C16S15104   1.013   4.284   3.971
  139OSM   H16S15105   1.078   4.374   3.961
  139OSM   H16T15106   1.076   4.195   3.949
  139OSM   C17S15107   0.971   4.283   4.127
  139OSM   H17S15108   0.884   4.216   4.146
  139OSM   H17T15109   0.928   4.385   4.140
  139OSM   C18S15110   1.081   4.263   4.221
  139OSM   H18S15111   1.054   4.253   4.328
  139OSM   H18T15112   1.160   4.341   4.210
  139OSM   H18U15113   1.133   4.168   4.196
  139OSM    C1F15114   0.856   3.899   2.397
  139OSM     OF15115   0.895   3.826   2.301
  139OSM    C2F15116   0.711   3.919   2.423
  139OSM    H2F15117   0.652   3.858   2.351
  139OSM    H2G15118   0.683   4.025   2.404
  139OSM    C3F15119   0.678   3.883   2.572
  139OSM    H3F15120   0.729   3.952   2.642
  139OSM    H3G15121   0.726   3.785   2.593
  139OSM    C4F15122   0.526   3.878   2.601
  139OSM    H4F15123   0.478   3.804   2.534
  139OSM    H4G15124   0.486   3.979   2.579
  139OSM    C5F15125   0.483   3.840   2.747
  139OSM    H5F15126   0.506   3.733   2.769
  139OSM    H5G15127   0.374   3.854   2.758
  139OSM    C6F15128   0.560   3.938   2.846
  139OSM    H6F15129   0.577   4.036   2.796
  139OSM    H6G15130   0.660   3.890   2.857
  139OSM    C7F15131   0.482   3.965   2.972
  139OSM    H7F15132   0.378   4.000   2.956
  139OSM    H7G15133   0.539   4.045   3.023
  139OSM    C8F15134   0.489   3.845   3.063
  139OSM    H8F15135   0.592   3.814   3.090
  139OSM    H8G15136   0.435   3.761   3.014
  139OSM    C9F15137   0.412   3.867   3.193
  139OSM    H9F15138   0.306   3.838   3.189
  139OSM   C10F15139   0.462   3.917   3.306
  139OSM   H10F15140   0.392   3.927   3.390
  139OSM   C11F15141   0.601   3.981   3.332
  139OSM   H11F15142   0.592   4.083   3.375
  139OSM   H11G15143   0.661   4.009   3.242
  139OSM   C12F15144   0.670   3.888   3.433
  139OSM   H12F15145   0.684   3.791   3.381
  139OSM   H12G15146   0.611   3.881   3.527
  139OSM   C13F15147   0.806   3.940   3.470
  139OSM   H13F15148   0.797   4.051   3.477
  139OSM   H13G15149   0.882   3.904   3.398
  139OSM   C14F15150   0.855   3.882   3.603
  139OSM   H14F15151   0.849   3.771   3.596
  139OSM   H14G15152   0.781   3.932   3.669
  139OSM   C15F15153   0.995   3.910   3.632
  139OSM   H15F15154   1.004   4.019   3.613
  139OSM   H15G15155   1.056   3.864   3.552
  139OSM   C16F15156   1.041   3.887   3.775
  139OSM   H16F15157   1.038   3.779   3.800
  139OSM   H16G15158   0.963   3.931   3.841
  139OSM   C17F15159   1.182   3.937   3.802
  139OSM   H17F15160   1.173   4.047   3.795
  139OSM   H17G15161   1.246   3.889   3.725
  139OSM   C18F15162   1.238   3.911   3.937
  139OSM   H18F15163   1.162   3.939   4.014
  139OSM   H18G15164   1.338   3.956   3.955
  139OSM   H18H15165   1.246   3.801   3.949
  140OSM      N15166   5.822   1.484   1.907
  140OSM    C1515167   5.753   1.580   1.814
  140OSM   H15A15168   5.783   1.570   1.711
  140OSM   H15B15169   5.760   1.682   1.845
  140OSM   H15C15170   5.649   1.552   1.825
  140OSM    C1415171   5.825   1.343   1.853
  140OSM   H14A15172   5.723   1.314   1.835
  140OSM   H14B15173   5.878   1.283   1.924
  140OSM   H14C15174   5.881   1.350   1.761
  140OSM    C1315175   5.966   1.531   1.923
  140OSM   H13A15176   6.019   1.529   1.830
  140OSM   H13B15177   6.011   1.460   1.990
  140OSM   H13C15178   5.962   1.631   1.965
  140OSM    C1215179   5.758   1.479   2.048
  140OSM   H12A15180   5.661   1.434   2.033
  140OSM   H12B15181   5.747   1.581   2.081
  140OSM    C1115182   5.839   1.405   2.156
  140OSM   H11A15183   5.792   1.392   2.256
  140OSM   H11B15184   5.931   1.467   2.168
  140OSM      P15185   5.777   1.151   2.136
  140OSM    O1315186   5.637   1.192   2.136
  140OSM    O1415187   5.812   1.049   2.040
  140OSM    O1115188   5.801   1.096   2.289
  140OSM    O1215189   5.880   1.273   2.118
  140OSM    C1S15190   5.928   1.113   2.350
  140OSM    H1S15191   5.969   1.216   2.349
  140OSM    H1T15192   6.002   1.051   2.294
  140OSM     NF15193   6.064   1.067   2.554
  140OSM    HNF15194   6.108   0.977   2.554
  140OSM    C2S15195   5.933   1.073   2.501
  140OSM    H2S15196   5.876   1.149   2.559
  140OSM    C3S15197   5.853   0.938   2.512
  140OSM    H3S15198   5.909   0.859   2.458
  140OSM     O315199   5.725   0.924   2.453
  140OSM    HO315200   5.718   1.011   2.413
  140OSM    C4S15201   5.853   0.880   2.656
  140OSM    H4S15202   5.945   0.824   2.675
  140OSM    C5S15203   5.759   0.896   2.751
  140OSM    H5S15204   5.668   0.952   2.727
  140OSM    C6S15205   5.758   0.822   2.882
  140OSM    H6S15206   5.847   0.757   2.894
  140OSM    H6T15207   5.669   0.757   2.892
  140OSM    C7S15208   5.758   0.909   3.013
  140OSM    H7S15209   5.666   0.968   3.030
  140OSM    H7T15210   5.834   0.989   3.000
  140OSM    C8S15211   5.807   0.834   3.138
  140OSM    H8S15212   5.900   0.780   3.113
  140OSM    H8T15213   5.736   0.754   3.166
  140OSM    C9S15214   5.811   0.926   3.261
  140OSM    H9S15215   5.706   0.958   3.282
  140OSM    H9T15216   5.860   1.026   3.251
  140OSM   C10S15217   5.864   0.851   3.392
  140OSM   H10S15218   5.961   0.802   3.369
  140OSM   H10T15219   5.791   0.770   3.414
  140OSM   C11S15220   5.882   0.935   3.513
  140OSM   H11S15221   5.789   0.995   3.521
  140OSM   H11T15222   5.969   1.002   3.501
  140OSM   C12S15223   5.890   0.849   3.649
  140OSM   H12S15224   5.959   0.769   3.615
  140OSM   H12T15225   5.793   0.801   3.674
  140OSM   C13S15226   5.952   0.914   3.772
  140OSM   H13S15227   5.894   1.003   3.805
  140OSM   H13T15228   6.055   0.940   3.740
  140OSM   C14S15229   5.959   0.819   3.890
  140OSM   H14S15230   6.036   0.852   3.964
  140OSM   H14T15231   6.003   0.722   3.861
  140OSM   C15S15232   5.822   0.776   3.949
  140OSM   H15S15233   5.745   0.766   3.870
  140OSM   H15T15234   5.794   0.860   4.016
  140OSM   C16S15235   5.831   0.642   4.032
  140OSM   H16S15236   5.913   0.657   4.105
  140OSM   H16T15237   5.866   0.561   3.965
  140OSM   C17S15238   5.693   0.608   4.102
  140OSM   H17S15239   5.661   0.704   4.147
  140OSM   H17T15240   5.711   0.522   4.170
  140OSM   C18S15241   5.590   0.559   4.006
  140OSM   H18S15242   5.628   0.472   3.948
  140OSM   H18T15243   5.565   0.647   3.943
  140OSM   H18U15244   5.496   0.524   4.054
  140OSM    C1F15245   6.134   1.172   2.591
  140OSM     OF15246   6.094   1.287   2.567
  140OSM    C2F15247   6.258   1.155   2.669
  140OSM    H2F15248   6.338   1.214   2.619
  140OSM    H2G15249   6.283   1.047   2.657
  140OSM    C3F15250   6.235   1.213   2.808
  140OSM    H3F15251   6.195   1.316   2.796
  140OSM    H3G15252   6.324   1.222   2.874
  140OSM    C4F15253   6.142   1.118   2.885
  140OSM    H4F15254   6.182   1.014   2.883
  140OSM    H4G15255   6.040   1.122   2.839
  140OSM    C5F15256   6.127   1.167   3.027
  140OSM    H5F15257   6.053   1.094   3.068
  140OSM    H5G15258   6.080   1.267   3.027
  140OSM    C6F15259   6.243   1.180   3.119
  140OSM    H6F15260   6.313   1.261   3.090
  140OSM    H6G15261   6.297   1.082   3.123
  140OSM    C7F15262   6.203   1.205   3.267
  140OSM    H7F15263   6.140   1.116   3.286
  140OSM    H7G15264   6.157   1.305   3.281
  140OSM    C8F15265   6.325   1.220   3.366
  140OSM    H8F15266   6.378   1.123   3.360
  140OSM    H8G15267   6.287   1.240   3.469
  140OSM    C9F15268   6.425   1.326   3.339
  140OSM    H9F15269   6.461   1.336   3.236
  140OSM   C10F15270   6.487   1.398   3.430
  140OSM   H10F15271   6.560   1.471   3.392
  140OSM   C11F15272   6.468   1.394   3.578
  140OSM   H11F15273   6.362   1.405   3.609
  140OSM   H11G15274   6.526   1.480   3.619
  140OSM   C12F15275   6.516   1.267   3.651
  140OSM   H12F15276   6.623   1.255   3.627
  140OSM   H12G15277   6.469   1.180   3.601
  140OSM   C13F15278   6.499   1.269   3.809
  140OSM   H13F15279   6.560   1.189   3.856
  140OSM   H13G15280   6.396   1.238   3.833
  140OSM   C14F15281   6.530   1.406   3.875
  140OSM   H14F15282   6.464   1.484   3.832
  140OSM   H14G15283   6.633   1.435   3.847
  140OSM   C15F15284   6.527   1.404   4.037
  140OSM   H15F15285   6.566   1.309   4.080
  140OSM   H15G15286   6.422   1.426   4.067
  140OSM   C16F15287   6.616   1.525   4.089
  140OSM   H16F15288   6.579   1.619   4.042
  140OSM   H16G15289   6.725   1.515   4.073
  140OSM   C17F15290   6.613   1.541   4.245
  140OSM   H17F15291   6.647   1.446   4.291
  140OSM   H17G15292   6.504   1.546   4.265
  140OSM   C18F15293   6.698   1.655   4.306
  140OSM   H18F15294   6.808   1.636   4.300
  140OSM   H18G15295   6.672   1.674   4.413
  140OSM   H18H15296   6.673   1.753   4.262
  141OSM      N15297   1.381   6.195   1.801
  141OSM    C1515298   1.452   6.329   1.808
  141OSM   H15A15299   1.545   6.330   1.753
  141OSM   H15B15300   1.470   6.357   1.910
  141OSM   H15C15301   1.388   6.410   1.776
  141OSM    C1415302   1.351   6.166   1.659
  141OSM   H14A15303   1.310   6.067   1.652
  141OSM   H14B15304   1.443   6.181   1.605
  141OSM   H14C15305   1.270   6.230   1.627
  141OSM    C1315306   1.468   6.082   1.845
  141OSM   H13A15307   1.423   5.985   1.824
  141OSM   H13B15308   1.488   6.078   1.950
  141OSM   H13C15309   1.562   6.084   1.793
  141OSM    C1215310   1.249   6.207   1.879
  141OSM   H12A15311   1.207   6.306   1.864
  141OSM   H12B15312   1.272   6.197   1.984
  141OSM    C1115313   1.143   6.100   1.855
  141OSM   H11A15314   1.112   6.101   1.748
  141OSM   H11B15315   1.058   6.130   1.919
  141OSM      P15316   1.185   5.908   2.019
  141OSM    O1315317   1.062   5.830   2.026
  141OSM    O1415318   1.320   5.843   2.057
  141OSM    O1115319   1.186   6.031   2.120
  141OSM    O1215320   1.195   5.973   1.877
  141OSM    C1S15321   1.116   6.015   2.244
  141OSM    H1S15322   1.023   5.954   2.243
  141OSM    H1T15323   1.094   6.120   2.271
  141OSM     NF15324   1.147   5.986   2.490
  141OSM    HNF15325   1.189   6.046   2.557
  141OSM    C2S15326   1.218   5.975   2.360
  141OSM    H2S15327   1.261   5.874   2.345
  141OSM    C3S15328   1.336   6.073   2.349
  141OSM    H3S15329   1.304   6.178   2.332
  141OSM     O315330   1.431   6.050   2.242
  141OSM    HO315331   1.383   5.990   2.184
  141OSM    C4S15332   1.421   6.071   2.476
  141OSM    H4S15333   1.490   5.988   2.499
  141OSM    C5S15334   1.418   6.172   2.558
  141OSM    H5S15335   1.366   6.261   2.519
  141OSM    C6S15336   1.486   6.182   2.690
  141OSM    H6S15337   1.562   6.263   2.687
  141OSM    H6T15338   1.548   6.091   2.705
  141OSM    C7S15339   1.409   6.182   2.822
  141OSM    H7S15340   1.330   6.259   2.830
  141OSM    H7T15341   1.484   6.199   2.902
  141OSM    C8S15342   1.343   6.048   2.857
  141OSM    H8S15343   1.425   5.975   2.871
  141OSM    H8T15344   1.291   6.020   2.763
  141OSM    C9S15345   1.249   6.037   2.980
  141OSM    H9S15346   1.207   5.935   2.973
  141OSM    H9T15347   1.182   6.125   2.964
  141OSM   C10S15348   1.318   6.045   3.115
  141OSM   H10S15349   1.376   6.138   3.129
  141OSM   H10T15350   1.380   5.953   3.116
  141OSM   C11S15351   1.226   6.051   3.242
  141OSM   H11S15352   1.176   5.952   3.239
  141OSM   H11T15353   1.131   6.105   3.223
  141OSM   C12S15354   1.311   6.089   3.364
  141OSM   H12S15355   1.348   6.192   3.346
  141OSM   H12T15356   1.396   6.019   3.381
  141OSM   C13S15357   1.225   6.085   3.490
  141OSM   H13S15358   1.198   5.980   3.512
  141OSM   H13T15359   1.133   6.140   3.461
  141OSM   C14S15360   1.282   6.164   3.602
  141OSM   H14S15361   1.291   6.272   3.575
  141OSM   H14T15362   1.383   6.121   3.618
  141OSM   C15S15363   1.203   6.162   3.733
  141OSM   H15S15364   1.148   6.067   3.753
  141OSM   H15T15365   1.120   6.235   3.722
  141OSM   C16S15366   1.296   6.203   3.850
  141OSM   H16S15367   1.246   6.254   3.935
  141OSM   H16T15368   1.374   6.271   3.808
  141OSM   C17S15369   1.374   6.075   3.903
  141OSM   H17S15370   1.326   5.980   3.870
  141OSM   H17T15371   1.361   6.076   4.014
  141OSM   C18S15372   1.528   6.077   3.865
  141OSM   H18S15373   1.546   6.093   3.757
  141OSM   H18T15374   1.580   5.983   3.893
  141OSM   H18U15375   1.581   6.164   3.910
  141OSM    C1F15376   1.044   5.911   2.527
  141OSM     OF15377   0.987   5.832   2.452
  141OSM    C2F15378   1.014   5.928   2.672
  141OSM    H2F15379   1.056   6.027   2.701
  141OSM    H2G15380   1.077   5.850   2.720
  141OSM    C3F15381   0.860   5.913   2.708
  141OSM    H3F15382   0.843   5.808   2.736
  141OSM    H3G15383   0.802   5.939   2.616
  141OSM    C4F15384   0.815   5.990   2.828
  141OSM    H4F15385   0.704   5.982   2.828
  141OSM    H4G15386   0.838   6.098   2.813
  141OSM    C5F15387   0.865   5.926   2.964
  141OSM    H5F15388   0.975   5.917   2.970
  141OSM    H5G15389   0.819   5.825   2.962
  141OSM    C6F15390   0.816   5.989   3.097
  141OSM    H6F15391   0.705   5.989   3.101
  141OSM    H6G15392   0.843   6.096   3.086
  141OSM    C7F15393   0.874   5.916   3.213
  141OSM    H7F15394   0.978   5.893   3.183
  141OSM    H7G15395   0.820   5.820   3.221
  141OSM    C8F15396   0.871   6.001   3.343
  141OSM    H8F15397   0.914   6.103   3.329
  141OSM    H8G15398   0.942   5.951   3.412
  141OSM    C9F15399   0.738   6.043   3.394
  141OSM    H9F15400   0.674   6.089   3.318
  141OSM   C10F15401   0.684   6.032   3.518
  141OSM   H10F15402   0.583   6.076   3.520
  141OSM   C11F15403   0.745   5.974   3.644
  141OSM   H11F15404   0.849   5.940   3.629
  141OSM   H11G15405   0.690   5.881   3.669
  141OSM   C12F15406   0.751   6.077   3.763
  141OSM   H12F15407   0.769   6.179   3.723
  141OSM   H12G15408   0.835   6.063   3.834
  141OSM   C13F15409   0.619   6.092   3.841
  141OSM   H13F15410   0.535   6.097   3.768
  141OSM   H13G15411   0.614   6.183   3.904
  141OSM   C14F15412   0.595   5.978   3.940
  141OSM   H14F15413   0.684   5.981   4.006
  141OSM   H14G15414   0.578   5.872   3.911
  141OSM   C15F15415   0.486   6.025   4.045
  141OSM   H15F15416   0.390   5.993   3.998
  141OSM   H15G15417   0.476   6.135   4.059
  141OSM   C16F15418   0.496   5.975   4.185
  141OSM   H16F15419   0.565   6.044   4.238
  141OSM   H16G15420   0.538   5.872   4.181
  141OSM   C17F15421   0.363   5.968   4.262
  141OSM   H17F15422   0.291   5.919   4.194
  141OSM   H17G15423   0.334   6.071   4.293
  141OSM   C18F15424   0.391   5.888   4.394
  141OSM   H18F15425   0.463   5.947   4.454
  141OSM   H18G15426   0.427   5.787   4.363
  141OSM   H18H15427   0.294   5.869   4.445
  142OSM      N15428   1.761   1.131   1.441
  142OSM    C1515429   1.732   1.250   1.368
  142OSM   H15A15430   1.690   1.329   1.428
  142OSM   H15B15431   1.679   1.244   1.274
  142OSM   H15C15432   1.830   1.291   1.348
  142OSM    C1415433   1.630   1.068   1.486
  142OSM   H14A15434   1.553   1.059   1.411
  142OSM   H14B15435   1.581   1.114   1.571
  142OSM   H14C15436   1.652   0.967   1.516
  142OSM    C1315437   1.816   1.032   1.348
  142OSM   H13A15438   1.746   1.000   1.272
  142OSM   H13B15439   1.846   0.939   1.396
  142OSM   H13C15440   1.909   1.066   1.305
  142OSM    C1215441   1.849   1.163   1.556
  142OSM   H12A15442   1.940   1.206   1.519
  142OSM   H12B15443   1.877   1.073   1.610
  142OSM    C1115444   1.790   1.253   1.671
  142OSM   H11A15445   1.755   1.345   1.621
  142OSM   H11B15446   1.876   1.264   1.741
  142OSM      P15447   1.683   1.097   1.853
  142OSM    O1315448   1.547   1.094   1.918
  142OSM    O1415449   1.735   0.970   1.800
  142OSM    O1115450   1.789   1.172   1.949
  142OSM    O1215451   1.673   1.208   1.744
  142OSM    C1S15452   1.753   1.283   2.024
  142OSM    H1S15453   1.674   1.346   1.977
  142OSM    H1T15454   1.839   1.353   2.036
  142OSM     NF15455   1.641   1.368   2.225
  142OSM    HNF15456   1.703   1.423   2.281
  142OSM    C2S15457   1.700   1.251   2.165
  142OSM    H2S15458   1.622   1.172   2.167
  142OSM    C3S15459   1.809   1.196   2.252
  142OSM    H3S15460   1.887   1.274   2.267
  142OSM     O315461   1.875   1.090   2.188
  142OSM    HO315462   1.849   1.101   2.096
  142OSM    C4S15463   1.755   1.157   2.396
  142OSM    H4S15464   1.775   1.237   2.469
  142OSM    C5S15465   1.686   1.047   2.436
  142OSM    H5S15466   1.658   0.969   2.363
  142OSM    C6S15467   1.631   1.020   2.571
  142OSM    H6S15468   1.657   0.917   2.604
  142OSM    H6T15469   1.523   1.004   2.550
  142OSM    C7S15470   1.661   1.116   2.681
  142OSM    H7S15471   1.614   1.211   2.648
  142OSM    H7T15472   1.770   1.137   2.693
  142OSM    C8S15473   1.596   1.078   2.817
  142OSM    H8S15474   1.654   0.992   2.858
  142OSM    H8T15475   1.492   1.044   2.798
  142OSM    C9S15476   1.602   1.183   2.928
  142OSM    H9S15477   1.549   1.276   2.900
  142OSM    H9T15478   1.711   1.199   2.941
  142OSM   C10S15479   1.549   1.117   3.058
  142OSM   H10S15480   1.597   1.018   3.067
  142OSM   H10T15481   1.440   1.098   3.067
  142OSM   C11S15482   1.586   1.219   3.161
  142OSM   H11S15483   1.531   1.310   3.131
  142OSM   H11T15484   1.694   1.245   3.150
  142OSM   C12S15485   1.567   1.183   3.309
  142OSM   H12S15486   1.609   1.082   3.332
  142OSM   H12T15487   1.457   1.169   3.317
  142OSM   C13S15488   1.614   1.285   3.411
  142OSM   H13S15489   1.570   1.384   3.383
  142OSM   H13T15490   1.724   1.291   3.400
  142OSM   C14S15491   1.562   1.252   3.551
  142OSM   H14S15492   1.580   1.144   3.569
  142OSM   H14T15493   1.455   1.280   3.558
  142OSM   C15S15494   1.635   1.325   3.666
  142OSM   H15S15495   1.643   1.432   3.637
  142OSM   H15T15496   1.734   1.284   3.694
  142OSM   C16S15497   1.557   1.326   3.804
  142OSM   H16S15498   1.555   1.221   3.839
  142OSM   H16T15499   1.457   1.359   3.767
  142OSM   C17S15500   1.620   1.425   3.906
  142OSM   H17S15501   1.629   1.528   3.867
  142OSM   H17T15502   1.723   1.393   3.933
  142OSM   C18S15503   1.539   1.420   4.032
  142OSM   H18S15504   1.433   1.444   4.007
  142OSM   H18T15505   1.575   1.491   4.109
  142OSM   H18U15506   1.555   1.315   4.066
  142OSM    C1F15507   1.522   1.422   2.192
  142OSM     OF15508   1.448   1.369   2.111
  142OSM    C2F15509   1.481   1.556   2.254
  142OSM    H2F15510   1.454   1.621   2.167
  142OSM    H2G15511   1.567   1.590   2.315
  142OSM    C3F15512   1.352   1.537   2.341
  142OSM    H3F15513   1.270   1.502   2.275
  142OSM    H3G15514   1.323   1.635   2.386
  142OSM    C4F15515   1.376   1.429   2.444
  142OSM    H4F15516   1.482   1.419   2.475
  142OSM    H4G15517   1.348   1.329   2.405
  142OSM    C5F15518   1.309   1.454   2.582
  142OSM    H5F15519   1.330   1.375   2.657
  142OSM    H5G15520   1.199   1.464   2.568
  142OSM    C6F15521   1.346   1.584   2.655
  142OSM    H6F15522   1.329   1.673   2.590
  142OSM    H6G15523   1.453   1.582   2.686
  142OSM    C7F15524   1.273   1.594   2.792
  142OSM    H7F15525   1.285   1.494   2.838
  142OSM    H7G15526   1.166   1.615   2.768
  142OSM    C8F15527   1.308   1.718   2.875
  142OSM    H8F15528   1.278   1.805   2.812
  142OSM    H8G15529   1.419   1.717   2.871
  142OSM    C9F15530   1.249   1.718   3.012
  142OSM    H9F15531   1.140   1.727   3.014
  142OSM   C10F15532   1.318   1.711   3.128
  142OSM   H10F15533   1.266   1.743   3.219
  142OSM   C11F15534   1.471   1.697   3.133
  142OSM   H11F15535   1.516   1.798   3.132
  142OSM   H11G15536   1.508   1.640   3.045
  142OSM   C12F15537   1.513   1.609   3.251
  142OSM   H12F15538   1.623   1.597   3.253
  142OSM   H12G15539   1.469   1.510   3.229
  142OSM   C13F15540   1.472   1.667   3.393
  142OSM   H13F15541   1.507   1.595   3.470
  142OSM   H13G15542   1.363   1.688   3.405
  142OSM   C14F15543   1.545   1.802   3.406
  142OSM   H14F15544   1.518   1.871   3.323
  142OSM   H14G15545   1.653   1.782   3.392
  142OSM   C15F15546   1.531   1.869   3.543
  142OSM   H15F15547   1.426   1.898   3.566
  142OSM   H15G15548   1.582   1.966   3.560
  142OSM   C16F15549   1.586   1.782   3.654
  142OSM   H16F15550   1.686   1.768   3.609
  142OSM   H16G15551   1.544   1.679   3.661
  142OSM   C17F15552   1.591   1.848   3.793
  142OSM   H17F15553   1.590   1.764   3.865
  142OSM   H17G15554   1.495   1.903   3.809
  142OSM   C18F15555   1.708   1.935   3.830
  142OSM   H18F15556   1.731   2.002   3.745
  142OSM   H18G15557   1.801   1.882   3.860
  142OSM   H18H15558   1.691   2.000   3.919
  143OSM      N15559   1.534   0.388   1.597
  143OSM    C1515560   1.643   0.308   1.664
  143OSM   H15A15561   1.651   0.350   1.763
  143OSM   H15B15562   1.738   0.324   1.616
  143OSM   H15C15563   1.613   0.204   1.675
  143OSM    C1415564   1.597   0.505   1.527
  143OSM   H14A15565   1.524   0.573   1.487
  143OSM   H14B15566   1.676   0.474   1.460
  143OSM   H14C15567   1.653   0.566   1.596
  143OSM    C1315568   1.465   0.310   1.497
  143OSM   H13A15569   1.530   0.259   1.427
  143OSM   H13B15570   1.405   0.364   1.425
  143OSM   H13C15571   1.400   0.239   1.546
  143OSM    C1215572   1.425   0.443   1.697
  143OSM   H12A15573   1.352   0.498   1.640
  143OSM   H12B15574   1.471   0.512   1.766
  143OSM    C1115575   1.362   0.336   1.790
  143OSM   H11A15576   1.298   0.385   1.866
  143OSM   H11B15577   1.440   0.285   1.850
  143OSM      P15578   1.210   0.119   1.785
  143OSM    O1315579   1.075   0.128   1.719
  143OSM    O1415580   1.295   0.001   1.768
  143OSM    O1115581   1.208   0.161   1.936
  143OSM    O1215582   1.289   0.240   1.713
  143OSM    C1S15583   1.102   0.137   2.026
  143OSM    H1S15584   1.037   0.050   2.004
  143OSM    H1T15585   1.034   0.224   2.030
  143OSM     NF15586   1.044   0.076   2.262
  143OSM    HNF15587   0.975   0.136   2.300
  143OSM    C2S15588   1.149   0.123   2.175
  143OSM    H2S15589   1.232   0.049   2.168
  143OSM    C3S15590   1.206   0.259   2.226
  143OSM    H3S15591   1.126   0.334   2.242
  143OSM     O315592   1.300   0.323   2.139
  143OSM    HO315593   1.282   0.282   2.054
  143OSM    C4S15594   1.275   0.233   2.358
  143OSM    H4S15595   1.334   0.140   2.354
  143OSM    C5S15596   1.247   0.298   2.467
  143OSM    H5S15597   1.170   0.376   2.458
  143OSM    C6S15598   1.309   0.272   2.604
  143OSM    H6S15599   1.352   0.366   2.644
  143OSM    H6T15600   1.391   0.199   2.588
  143OSM    C7S15601   1.212   0.219   2.703
  143OSM    H7S15602   1.176   0.118   2.676
  143OSM    H7T15603   1.121   0.283   2.713
  143OSM    C8S15604   1.278   0.219   2.842
  143OSM    H8S15605   1.304   0.324   2.867
  143OSM    H8T15606   1.374   0.166   2.825
  143OSM    C9S15607   1.186   0.161   2.946
  143OSM    H9S15608   1.157   0.057   2.918
  143OSM    H9T15609   1.094   0.223   2.940
  143OSM   C10S15610   1.239   0.167   3.094
  143OSM   H10S15611   1.293   0.263   3.108
  143OSM   H10T15612   1.312   0.083   3.096
  143OSM   C11S15613   1.134   0.146   3.205
  143OSM   H11S15614   1.057   0.071   3.178
  143OSM   H11T15615   1.082   0.242   3.227
  143OSM   C12S15616   1.217   0.102   3.333
  143OSM   H12S15617   1.297   0.177   3.349
  143OSM   H12T15618   1.270   0.010   3.301
  143OSM   C13S15619   1.130   0.093   3.452
  143OSM   H13S15620   1.155   0.006   3.516
  143OSM   H13T15621   1.025   0.085   3.417
  143OSM   C14S15622   1.148   0.217   3.540
  143OSM   H14S15623   1.121   0.301   3.471
  143OSM   H14T15624   1.253   0.219   3.575
  143OSM   C15S15625   1.054   0.229   3.664
  143OSM   H15S15626   0.950   0.236   3.627
  143OSM   H15T15627   1.084   0.321   3.719
  143OSM   C16S15628   1.060   0.100   3.744
  143OSM   H16S15629   1.029   0.015   3.680
  143OSM   H16T15630   0.977   0.110   3.817
  143OSM   C17S15631   1.181   0.090   3.829
  143OSM   H17S15632   1.192   0.179   3.894
  143OSM   H17T15633   1.267   0.099   3.759
  143OSM   C18S15634   1.200  -0.033   3.920
  143OSM   H18S15635   1.298  -0.030   3.972
  143OSM   H18T15636   1.201  -0.130   3.865
  143OSM   H18U15637   1.119  -0.035   3.995
  143OSM    C1F15638   1.018  -0.053   2.253
  143OSM     OF15639   1.093  -0.128   2.194
  143OSM    C2F15640   0.888  -0.102   2.319
  143OSM    H2F15641   0.891  -0.061   2.422
  143OSM    H2G15642   0.897  -0.212   2.335
  143OSM    C3F15643   0.757  -0.095   2.240
  143OSM    H3F15644   0.755  -0.142   2.139
  143OSM    H3G15645   0.715   0.008   2.237
  143OSM    C4F15646   0.649  -0.180   2.315
  143OSM    H4F15647   0.690  -0.284   2.321
  143OSM    H4G15648   0.559  -0.175   2.250
  143OSM    C5F15649   0.606  -0.123   2.449
  143OSM    H5F15650   0.556  -0.024   2.449
  143OSM    H5G15651   0.688  -0.107   2.523
  143OSM    C6F15652   0.496  -0.215   2.516
  143OSM    H6F15653   0.542  -0.311   2.548
  143OSM    H6G15654   0.408  -0.243   2.453
  143OSM    C7F15655   0.445  -0.140   2.635
  143OSM    H7F15656   0.419  -0.036   2.605
  143OSM    H7G15657   0.522  -0.121   2.713
  143OSM    C8F15658   0.317  -0.213   2.694
  143OSM    H8F15659   0.332  -0.321   2.717
  143OSM    H8G15660   0.251  -0.204   2.605
  143OSM    C9F15661   0.264  -0.130   2.809
  143OSM    H9F15662   0.217  -0.033   2.788
  143OSM   C10F15663   0.272  -0.158   2.940
  143OSM   H10F15664   0.241  -0.078   3.009
  143OSM   C11F15665   0.339  -0.281   3.005
  143OSM   H11F15666   0.439  -0.263   3.050
  143OSM   H11G15667   0.352  -0.358   2.927
  143OSM   C12F15668   0.248  -0.343   3.112
  143OSM   H12F15669   0.286  -0.443   3.143
  143OSM   H12G15670   0.150  -0.363   3.063
  143OSM   C13F15671   0.254  -0.245   3.232
  143OSM   H13F15672   0.237  -0.138   3.205
  143OSM   H13G15673   0.355  -0.241   3.278
  143OSM   C14F15674   0.150  -0.283   3.340
  143OSM   H14F15675   0.136  -0.391   3.358
  143OSM   H14G15676   0.053  -0.241   3.305
  143OSM   C15F15677   0.184  -0.213   3.478
  143OSM   H15F15678   0.089  -0.205   3.535
  143OSM   H15G15679   0.224  -0.114   3.448
  143OSM   C16F15680   0.297  -0.301   3.546
  143OSM   H16F15681   0.371  -0.236   3.596
  143OSM   H16G15682   0.356  -0.363   3.475
  143OSM   C17F15683   0.255  -0.403   3.658
  143OSM   H17F15684   0.181  -0.476   3.620
  143OSM   H17G15685   0.204  -0.348   3.740
  143OSM   C18F15686   0.376  -0.467   3.720
  143OSM   H18F15687   0.353  -0.544   3.797
  143OSM   H18G15688   0.447  -0.395   3.765
  143OSM   H18H15689   0.432  -0.516   3.638
  144OSM      N15690   0.654   6.721   1.653
  144OSM    C1515691   0.608   6.844   1.570
  144OSM   H15A15692   0.683   6.921   1.574
  144OSM   H15B15693   0.512   6.888   1.590
  144OSM   H15C15694   0.620   6.816   1.467
  144OSM    C1415695   0.563   6.600   1.623
  144OSM   H14A15696   0.466   6.635   1.654
  144OSM   H14B15697   0.589   6.515   1.684
  144OSM   H14C15698   0.569   6.584   1.516
  144OSM    C1315699   0.793   6.681   1.612
  144OSM   H13A15700   0.822   6.581   1.639
  144OSM   H13B15701   0.853   6.769   1.630
  144OSM   H13C15702   0.792   6.668   1.505
  144OSM    C1215703   0.656   6.744   1.803
  144OSM   H12A15704   0.691   6.648   1.839
  144OSM   H12B15705   0.558   6.750   1.849
  144OSM    C1115706   0.750   6.861   1.858
  144OSM   H11A15707   0.851   6.857   1.814
  144OSM   H11B15708   0.775   6.846   1.965
  144OSM      P15709   0.572   7.042   1.923
  144OSM    O1315710   0.517   7.155   1.847
  144OSM    O1415711   0.482   6.931   1.942
  144OSM    O1115712   0.630   7.096   2.053
  144OSM    O1215713   0.695   6.994   1.844
  144OSM    C1S15714   0.542   7.155   2.156
  144OSM    H1S15715   0.435   7.125   2.143
  144OSM    H1T15716   0.562   7.264   2.159
  144OSM     NF15717   0.468   7.158   2.397
  144OSM    HNF15718   0.484   7.241   2.450
  144OSM    C2S15719   0.572   7.111   2.303
  144OSM    H2S15720   0.569   6.999   2.304
  144OSM    C3S15721   0.718   7.150   2.347
  144OSM    H3S15722   0.729   7.260   2.338
  144OSM     O315723   0.822   7.098   2.264
  144OSM    HO315724   0.780   7.100   2.178
  144OSM    C4S15725   0.739   7.117   2.491
  144OSM    H4S15726   0.699   7.197   2.555
  144OSM    C5S15727   0.816   7.022   2.549
  144OSM    H5S15728   0.872   6.954   2.484
  144OSM    C6S15729   0.838   6.996   2.695
  144OSM    H6S15730   0.867   7.088   2.752
  144OSM    H6T15731   0.921   6.922   2.700
  144OSM    C7S15732   0.720   6.925   2.771
  144OSM    H7S15733   0.699   6.827   2.723
  144OSM    H7T15734   0.631   6.988   2.749
  144OSM    C8S15735   0.735   6.912   2.920
  144OSM    H8S15736   0.743   7.018   2.952
  144OSM    H8T15737   0.830   6.859   2.945
  144OSM    C9S15738   0.614   6.843   2.988
  144OSM    H9S15739   0.616   6.733   2.973
  144OSM    H9T15740   0.518   6.871   2.940
  144OSM   C10S15741   0.608   6.870   3.142
  144OSM   H10S15742   0.613   6.981   3.155
  144OSM   H10T15743   0.702   6.841   3.195
  144OSM   C11S15744   0.476   6.829   3.211
  144OSM   H11S15745   0.466   6.718   3.222
  144OSM   H11T15746   0.393   6.863   3.146
  144OSM   C12S15747   0.453   6.905   3.341
  144OSM   H12S15748   0.355   6.872   3.381
  144OSM   H12T15749   0.437   7.014   3.329
  144OSM   C13S15750   0.550   6.884   3.457
  144OSM   H13S15751   0.651   6.918   3.425
  144OSM   H13T15752   0.540   6.777   3.482
  144OSM   C14S15753   0.505   6.940   3.587
  144OSM   H14S15754   0.399   6.921   3.614
  144OSM   H14T15755   0.502   7.050   3.569
  144OSM   C15S15756   0.613   6.925   3.700
  144OSM   H15S15757   0.712   6.972   3.681
  144OSM   H15T15758   0.636   6.817   3.703
  144OSM   C16S15759   0.571   6.966   3.839
  144OSM   H16S15760   0.656   6.978   3.909
  144OSM   H16T15761   0.501   6.890   3.880
  144OSM   C17S15762   0.493   7.098   3.851
  144OSM   H17S15763   0.404   7.085   3.786
  144OSM   H17T15764   0.556   7.179   3.808
  144OSM   C18S15765   0.424   7.127   3.987
  144OSM   H18S15766   0.379   7.033   4.026
  144OSM   H18T15767   0.336   7.193   3.970
  144OSM   H18U15768   0.495   7.177   4.057
  144OSM    C1F15769   0.342   7.113   2.391
  144OSM     OF15770   0.320   7.004   2.343
  144OSM    C2F15771   0.227   7.207   2.425
  144OSM    H2F15772   0.171   7.224   2.330
  144OSM    H2G15773   0.273   7.306   2.448
  144OSM    C3F15774   0.128   7.159   2.537
  144OSM    H3F15775   0.074   7.070   2.500
  144OSM    H3G15776   0.050   7.236   2.556
  144OSM    C4F15777   0.204   7.121   2.664
  144OSM    H4F15778   0.276   7.037   2.653
  144OSM    H4G15779   0.128   7.080   2.734
  144OSM    C5F15780   0.282   7.242   2.730
  144OSM    H5F15781   0.231   7.330   2.685
  144OSM    H5G15782   0.381   7.244   2.681
  144OSM    C6F15783   0.302   7.247   2.882
  144OSM    H6F15784   0.329   7.152   2.932
  144OSM    H6G15785   0.210   7.294   2.924
  144OSM    C7F15786   0.413   7.352   2.926
  144OSM    H7F15787   0.404   7.383   3.032
  144OSM    H7G15788   0.400   7.440   2.858
  144OSM    C8F15789   0.556   7.293   2.905
  144OSM    H8F15790   0.565   7.274   2.796
  144OSM    H8G15791   0.548   7.193   2.952
  144OSM    C9F15792   0.681   7.364   2.947
  144OSM    H9F15793   0.704   7.452   2.885
  144OSM   C10F15794   0.755   7.331   3.056
  144OSM   H10F15795   0.849   7.385   3.072
  144OSM   C11F15796   0.715   7.233   3.156
  144OSM   H11F15797   0.779   7.144   3.137
  144OSM   H11G15798   0.609   7.199   3.148
  144OSM   C12F15799   0.738   7.301   3.288
  144OSM   H12F15800   0.659   7.377   3.307
  144OSM   H12G15801   0.832   7.360   3.291
  144OSM   C13F15802   0.759   7.205   3.407
  144OSM   H13F15803   0.830   7.129   3.365
  144OSM   H13G15804   0.658   7.159   3.412
  144OSM   C14F15805   0.812   7.265   3.536
  144OSM   H14F15806   0.919   7.293   3.527
  144OSM   H14G15807   0.797   7.189   3.616
  144OSM   C15F15808   0.739   7.396   3.581
  144OSM   H15F15809   0.629   7.386   3.574
  144OSM   H15G15810   0.751   7.479   3.508
  144OSM   C16F15811   0.767   7.455   3.717
  144OSM   H16F15812   0.751   7.379   3.796
  144OSM   H16G15813   0.697   7.532   3.756
  144OSM   C17F15814   0.914   7.506   3.720
  144OSM   H17F15815   0.920   7.586   3.643
  144OSM   H17G15816   0.984   7.425   3.691
  144OSM   C18F15817   0.949   7.565   3.860
  144OSM   H18F15818   0.860   7.586   3.923
  144OSM   H18G15819   1.008   7.659   3.865
  144OSM   H18H15820   1.006   7.485   3.910
  145SAPE     N15821   1.370   0.813   6.429
  145SAPE   HN115822   1.403   0.865   6.513
  145SAPE   HN215823   1.316   0.877   6.366
  145SAPE   HN315824   1.299   0.746   6.464
  145SAPE   C1215825   1.490   0.767   6.350
  145SAPE  H12A15826   1.458   0.701   6.266
  145SAPE  H12B15827   1.551   0.712   6.424
  145SAPE   C1115828   1.585   0.884   6.299
  145SAPE  H11A15829   1.533   0.937   6.217
  145SAPE  H11B15830   1.675   0.835   6.256
  145SAPE     P15831   1.677   1.114   6.366
  145SAPE   O1315832   1.599   1.219   6.442
  145SAPE   O1415833   1.818   1.093   6.415
  145SAPE   O1215834   1.614   0.982   6.395
  145SAPE   O1115835   1.678   1.134   6.210
  145SAPE    C115836   1.570   1.189   6.131
  145SAPE    HA15837   1.548   1.116   6.050
  145SAPE    HB15838   1.479   1.189   6.196
  145SAPE    C215839   1.608   1.325   6.062
  145SAPE    HS15840   1.515   1.366   6.016
  145SAPE   O2115841   1.706   1.295   5.962
  145SAPE   C2115842   1.665   1.303   5.836
  145SAPE   O2215843   1.551   1.324   5.802
  145SAPE   C2215844   1.781   1.291   5.734
  145SAPE   H2R15845   1.876   1.310   5.788
  145SAPE   H2S15846   1.789   1.193   5.683
  145SAPE    C315847   1.658   1.424   6.169
  145SAPE    HX15848   1.746   1.386   6.224
  145SAPE    HY15849   1.576   1.416   6.245
  145SAPE   O3115850   1.677   1.556   6.124
  145SAPE   C3115851   1.792   1.591   6.069
  145SAPE   O3215852   1.896   1.525   6.076
  145SAPE   C3215853   1.778   1.721   5.992
  145SAPE   H2X15854   1.841   1.799   6.040
  145SAPE   H2Y15855   1.677   1.766   6.004
  145SAPE   C2315856   1.770   1.396   5.619
  145SAPE   H3R15857   1.870   1.408   5.572
  145SAPE   H3S15858   1.725   1.494   5.647
  145SAPE   C2415859   1.693   1.330   5.497
  145SAPE   H4R15860   1.593   1.305   5.538
  145SAPE   H4S15861   1.742   1.235   5.465
  145SAPE   C2515862   1.684   1.411   5.374
  145SAPE   H5R15863   1.586   1.458   5.356
  145SAPE   C2615864   1.784   1.428   5.284
  145SAPE   H6R15865   1.756   1.483   5.192
  145SAPE   C2715866   1.919   1.363   5.291
  145SAPE   H7R15867   1.931   1.309   5.388
  145SAPE   H7S15868   1.996   1.443   5.290
  145SAPE   C2815869   1.945   1.271   5.171
  145SAPE   H8R15870   1.916   1.168   5.196
  145SAPE   C2915871   1.976   1.302   5.044
  145SAPE   H9R15872   2.006   1.220   4.978
  145SAPE  C21015873   2.015   1.443   4.995
  145SAPE  H10R15874   2.124   1.443   4.976
  145SAPE  H10S15875   1.992   1.521   5.070
  145SAPE  C21115876   1.932   1.478   4.874
  145SAPE  H11R15877   1.829   1.440   4.880
  145SAPE  C21215878   1.964   1.552   4.765
  145SAPE  H12R15879   1.888   1.560   4.687
  145SAPE  C21315880   2.087   1.619   4.732
  145SAPE  H13R15881   2.127   1.654   4.830
  145SAPE  H13S15882   2.078   1.714   4.675
  145SAPE  C21415883   2.188   1.525   4.675
  145SAPE  H14R15884   2.158   1.419   4.670
  145SAPE  C21515885   2.313   1.548   4.633
  145SAPE  H15R15886   2.373   1.464   4.597
  145SAPE  C21615887   2.374   1.679   4.614
  145SAPE  H16R15888   2.308   1.763   4.644
  145SAPE  H16S15889   2.383   1.686   4.503
  145SAPE  C21715890   2.509   1.697   4.688
  145SAPE  H17R15891   2.586   1.620   4.667
  145SAPE  H17S15892   2.476   1.687   4.793
  145SAPE  C21815893   2.571   1.835   4.662
  145SAPE  H18R15894   2.520   1.910   4.725
  145SAPE  H18S15895   2.556   1.864   4.556
  145SAPE  C21915896   2.724   1.832   4.680
  145SAPE  H19R15897   2.753   1.915   4.612
  145SAPE  H19S15898   2.773   1.740   4.641
  145SAPE  C22015899   2.773   1.856   4.816
  145SAPE  H20R15900   2.745   1.771   4.881
  145SAPE  H20S15901   2.709   1.938   4.855
  145SAPE  H20T15902   2.880   1.884   4.819
  145SAPE   C3315903   1.823   1.700   5.849
  145SAPE   H3X15904   1.762   1.619   5.805
  145SAPE   H3Y15905   1.923   1.651   5.843
  145SAPE   C3415906   1.813   1.814   5.755
  145SAPE   H4X15907   1.876   1.897   5.794
  145SAPE   H4Y15908   1.707   1.847   5.745
  145SAPE   C3515909   1.864   1.771   5.612
  145SAPE   H5X15910   1.789   1.700   5.573
  145SAPE   H5Y15911   1.958   1.717   5.636
  145SAPE   C3615912   1.864   1.886   5.508
  145SAPE   H6X15913   1.927   1.971   5.542
  145SAPE   H6Y15914   1.762   1.927   5.523
  145SAPE   C3715915   1.887   1.848   5.362
  145SAPE   H7X15916   1.840   1.747   5.352
  145SAPE   H7Y15917   1.996   1.833   5.344
  145SAPE   C3815918   1.824   1.947   5.261
  145SAPE   H8X15919   1.875   2.045   5.273
  145SAPE   H8Y15920   1.718   1.955   5.293
  145SAPE   C3915921   1.834   1.902   5.113
  145SAPE   H9X15922   1.928   1.845   5.096
  145SAPE   H9Y15923   1.852   1.987   5.043
  145SAPE  C31015924   1.720   1.807   5.070
  145SAPE  H10X15925   1.619   1.848   5.089
  145SAPE  H10Y15926   1.735   1.716   5.130
  145SAPE  C31115927   1.731   1.785   4.919
  145SAPE  H11X15928   1.678   1.688   4.905
  145SAPE  H11Y15929   1.840   1.770   4.900
  145SAPE  C31215930   1.676   1.903   4.828
  145SAPE  H12X15931   1.732   1.992   4.864
  145SAPE  H12Y15932   1.567   1.918   4.846
  145SAPE  C31315933   1.706   1.884   4.678
  145SAPE  H13X15934   1.709   1.776   4.651
  145SAPE  H13Y15935   1.801   1.934   4.652
  145SAPE  C31415936   1.597   1.954   4.596
  145SAPE  H14X15937   1.584   2.056   4.639
  145SAPE  H14Y15938   1.507   1.889   4.592
  145SAPE  C31515939   1.640   1.975   4.449
  145SAPE  H15X15940   1.669   1.874   4.412
  145SAPE  H15Y15941   1.737   2.028   4.445
  145SAPE  C31615942   1.533   2.023   4.355
  145SAPE  H16X15943   1.579   2.031   4.254
  145SAPE  H16Y15944   1.490   2.120   4.389
  145SAPE  C31715945   1.414   1.925   4.341
  145SAPE  H17X15946   1.335   1.960   4.412
  145SAPE  H17Y15947   1.456   1.823   4.353
  145SAPE  C31815948   1.350   1.919   4.198
  145SAPE  H18X15949   1.282   1.831   4.197
  145SAPE  H18Y15950   1.432   1.908   4.125
  145SAPE  H18Z15951   1.298   2.012   4.167
  146SAPE     N15952   4.836   1.555   6.628
  146SAPE   HN115953   4.936   1.526   6.630
  146SAPE   HN215954   4.799   1.484   6.695
  146SAPE   HN315955   4.791   1.536   6.537
  146SAPE   C1215956   4.844   1.700   6.675
  146SAPE  H12A15957   4.864   1.693   6.784
  146SAPE  H12B15958   4.741   1.740   6.661
  146SAPE   C1115959   4.948   1.785   6.606
  146SAPE  H11A15960   5.041   1.725   6.600
  146SAPE  H11B15961   4.958   1.876   6.670
  146SAPE     P15962   4.796   1.907   6.450
  146SAPE   O1315963   4.679   1.822   6.425
  146SAPE   O1415964   4.793   1.993   6.570
  146SAPE   O1215965   4.920   1.811   6.465
  146SAPE   O1115966   4.837   1.995   6.318
  146SAPE    C115967   4.948   1.963   6.235
  146SAPE    HA15968   5.036   1.939   6.298
  146SAPE    HB15969   4.912   1.869   6.187
  146SAPE    C215970   4.974   2.067   6.118
  146SAPE    HS15971   5.006   2.153   6.179
  146SAPE   O2115972   4.854   2.089   6.047
  146SAPE   C2115973   4.852   2.184   5.954
  146SAPE   O2215974   4.954   2.233   5.906
  146SAPE   C2215975   4.714   2.225   5.910
  146SAPE   H2R15976   4.673   2.304   5.976
  146SAPE   H2S15977   4.712   2.249   5.801
  146SAPE    C315978   5.099   2.024   6.031
  146SAPE    HX15979   5.185   2.028   6.101
  146SAPE    HY15980   5.129   2.095   5.952
  146SAPE   O3115981   5.088   1.886   5.986
  146SAPE   C3115982   5.020   1.875   5.861
  146SAPE   O3215983   4.986   1.960   5.792
  146SAPE   C3215984   4.980   1.733   5.840
  146SAPE   H2X15985   4.873   1.704   5.849
  146SAPE   H2Y15986   5.018   1.670   5.923
  146SAPE   C2315987   4.592   2.121   5.917
  146SAPE   H3R15988   4.559   2.101   6.022
  146SAPE   H3S15989   4.631   2.024   5.878
  146SAPE   C2415990   4.476   2.162   5.818
  146SAPE   H4R15991   4.515   2.162   5.714
  146SAPE   H4S15992   4.439   2.265   5.835
  146SAPE   C2515993   4.361   2.067   5.837
  146SAPE   H5R15994   4.356   2.028   5.940
  146SAPE   C2615995   4.277   2.020   5.746
  146SAPE   H6R15996   4.235   1.920   5.767
  146SAPE   C2715997   4.275   2.064   5.597
  146SAPE   H7R15998   4.220   1.985   5.541
  146SAPE   H7S15999   4.378   2.077   5.557
  146SAPE   C2816000   4.192   2.188   5.577
  146SAPE   H8R16001   4.139   2.227   5.665
  146SAPE   C2916002   4.194   2.276   5.473
  146SAPE   H9R16003   4.123   2.360   5.473
  146SAPE  C21016004   4.269   2.260   5.339
  146SAPE  H10R16005   4.302   2.154   5.334
  146SAPE  H10S16006   4.363   2.319   5.346
  146SAPE  C21116007   4.187   2.304   5.221
  146SAPE  H11R16008   4.080   2.290   5.241
  146SAPE  C21216009   4.232   2.326   5.100
  146SAPE  H12R16010   4.158   2.339   5.019
  146SAPE  C21316011   4.373   2.311   5.055
  146SAPE  H13R16012   4.451   2.297   5.132
  146SAPE  H13S16013   4.392   2.413   5.016
  146SAPE  C21416014   4.402   2.206   4.946
  146SAPE  H14R16015   4.358   2.109   4.975
  146SAPE  C21516016   4.451   2.220   4.823
  146SAPE  H15R16017   4.473   2.129   4.765
  146SAPE  C21616018   4.511   2.353   4.768
  146SAPE  H16R16019   4.597   2.391   4.829
  146SAPE  H16S16020   4.431   2.426   4.746
  146SAPE  C21716021   4.576   2.333   4.629
  146SAPE  H17R16022   4.668   2.271   4.637
  146SAPE  H17S16023   4.610   2.437   4.611
  146SAPE  C21816024   4.477   2.291   4.517
  146SAPE  H18R16025   4.391   2.361   4.522
  146SAPE  H18S16026   4.439   2.188   4.536
  146SAPE  C21916027   4.542   2.309   4.374
  146SAPE  H19R16028   4.628   2.240   4.359
  146SAPE  H19S16029   4.582   2.412   4.377
  146SAPE  C22016030   4.444   2.305   4.250
  146SAPE  H20R16031   4.379   2.216   4.259
  146SAPE  H20S16032   4.494   2.322   4.152
  146SAPE  H20T16033   4.377   2.394   4.257
  146SAPE   C3316034   5.040   1.683   5.700
  146SAPE   H3X16035   5.055   1.574   5.711
  146SAPE   H3Y16036   5.145   1.718   5.691
  146SAPE   C3416037   4.966   1.722   5.574
  146SAPE   H4X16038   5.014   1.817   5.544
  146SAPE   H4Y16039   4.863   1.749   5.605
  146SAPE   C3516040   4.965   1.615   5.466
  146SAPE   H5X16041   4.931   1.517   5.506
  146SAPE   H5Y16042   5.071   1.597   5.438
  146SAPE   C3616043   4.879   1.626   5.340
  146SAPE   H6X16044   4.782   1.647   5.390
  146SAPE   H6Y16045   4.880   1.528   5.288
  146SAPE   C3716046   4.917   1.743   5.253
  146SAPE   H7X16047   4.965   1.816   5.322
  146SAPE   H7Y16048   4.831   1.794   5.207
  146SAPE   C3816049   5.016   1.707   5.148
  146SAPE   H8X16050   5.087   1.627   5.178
  146SAPE   H8Y16051   5.069   1.801   5.125
  146SAPE   C3916052   4.950   1.657   5.019
  146SAPE   H9X16053   4.871   1.729   4.987
  146SAPE   H9Y16054   4.905   1.560   5.047
  146SAPE  C31016055   5.051   1.633   4.907
  146SAPE  H10X16056   5.126   1.551   4.915
  146SAPE  H10Y16057   5.111   1.726   4.900
  146SAPE  C31116058   4.979   1.613   4.772
  146SAPE  H11X16059   4.890   1.677   4.756
  146SAPE  H11Y16060   4.943   1.508   4.773
  146SAPE  C31216061   5.053   1.613   4.642
  146SAPE  H12X16062   5.152   1.564   4.652
  146SAPE  H12Y16063   5.083   1.715   4.610
  146SAPE  C31316064   4.975   1.553   4.525
  146SAPE  H13X16065   4.872   1.589   4.505
  146SAPE  H13Y16066   4.965   1.442   4.530
  146SAPE  C31416067   5.049   1.573   4.391
  146SAPE  H14X16068   5.066   1.681   4.372
  146SAPE  H14Y16069   4.986   1.542   4.305
  146SAPE  C31516070   5.189   1.499   4.385
  146SAPE  H15X16071   5.160   1.392   4.385
  146SAPE  H15Y16072   5.237   1.521   4.482
  146SAPE  C31616073   5.264   1.536   4.261
  146SAPE  H16X16074   5.267   1.647   4.251
  146SAPE  H16Y16075   5.209   1.503   4.170
  146SAPE  C31716076   5.403   1.477   4.262
  146SAPE  H17X16077   5.395   1.368   4.285
  146SAPE  H17Y16078   5.460   1.517   4.349
  146SAPE  C31816079   5.476   1.486   4.133
  146SAPE  H18X16080   5.416   1.430   4.058
  146SAPE  H18Y16081   5.575   1.435   4.141
  146SAPE  H18Z16082   5.493   1.587   4.089
  147SAPE     N16083   3.869   5.402   6.934
  147SAPE   HN116084   3.806   5.399   7.017
  147SAPE   HN216085   3.926   5.316   6.919
  147SAPE   HN316086   3.938   5.477   6.953
  147SAPE   C1216087   3.780   5.433   6.809
  147SAPE  H12A16088   3.698   5.495   6.851
  147SAPE  H12B16089   3.743   5.332   6.780
  147SAPE   C1116090   3.869   5.498   6.697
  147SAPE  H11A16091   3.928   5.574   6.753
  147SAPE  H11B16092   3.802   5.547   6.624
  147SAPE     P16093   3.911   5.298   6.510
  147SAPE   O1316094   4.004   5.182   6.516
  147SAPE   O1416095   3.767   5.269   6.520
  147SAPE   O1216096   3.952   5.400   6.627
  147SAPE   O1116097   3.942   5.372   6.378
  147SAPE    C116098   4.060   5.350   6.304
  147SAPE    HA16099   4.144   5.389   6.366
  147SAPE    HB16100   4.089   5.244   6.290
  147SAPE    C216101   4.053   5.427   6.168
  147SAPE    HS16102   4.028   5.532   6.196
  147SAPE   O2116103   3.948   5.375   6.076
  147SAPE   C2116104   3.824   5.429   6.095
  147SAPE   O2216105   3.799   5.531   6.152
  147SAPE   C2216106   3.725   5.327   6.032
  147SAPE   H2R16107   3.745   5.231   6.085
  147SAPE   H2S16108   3.626   5.362   6.067
  147SAPE    C316109   4.194   5.429   6.094
  147SAPE    HX16110   4.210   5.329   6.048
  147SAPE    HY16111   4.271   5.455   6.169
  147SAPE   O3116112   4.181   5.525   5.988
  147SAPE   C3116113   4.296   5.564   5.928
  147SAPE   O3216114   4.407   5.517   5.950
  147SAPE   C3216115   4.257   5.669   5.817
  147SAPE   H2X16116   4.171   5.628   5.760
  147SAPE   H2Y16117   4.346   5.678   5.752
  147SAPE   C2316118   3.744   5.295   5.883
  147SAPE   H3R16119   3.675   5.210   5.867
  147SAPE   H3S16120   3.848   5.262   5.860
  147SAPE   C2416121   3.724   5.423   5.804
  147SAPE   H4R16122   3.802   5.491   5.845
  147SAPE   H4S16123   3.632   5.477   5.832
  147SAPE   C2516124   3.723   5.380   5.663
  147SAPE   H5R16125   3.659   5.298   5.630
  147SAPE   C2616126   3.815   5.426   5.575
  147SAPE   H6R16127   3.801   5.409   5.467
  147SAPE   C2716128   3.916   5.535   5.587
  147SAPE   H7R16129   3.955   5.530   5.691
  147SAPE   H7S16130   3.871   5.635   5.565
  147SAPE   C2816131   4.049   5.518   5.518
  147SAPE   H8R16132   4.100   5.427   5.554
  147SAPE   C2916133   4.113   5.603   5.435
  147SAPE   H9R16134   4.206   5.575   5.383
  147SAPE  C21016135   4.055   5.735   5.395
  147SAPE  H10R16136   4.042   5.808   5.478
  147SAPE  H10S16137   3.950   5.727   5.359
  147SAPE  C21116138   4.140   5.809   5.293
  147SAPE  H11R16139   4.199   5.889   5.339
  147SAPE  C21216140   4.147   5.789   5.163
  147SAPE  H12R16141   4.232   5.841   5.117
  147SAPE  C21316142   4.075   5.690   5.073
  147SAPE  H13R16143   4.002   5.632   5.133
  147SAPE  H13S16144   4.151   5.624   5.026
  147SAPE  C21416145   4.002   5.782   4.981
  147SAPE  H14R16146   3.919   5.842   5.022
  147SAPE  C21516147   4.017   5.793   4.844
  147SAPE  H15R16148   3.938   5.852   4.794
  147SAPE  C21616149   4.109   5.712   4.747
  147SAPE  H16R16150   4.033   5.651   4.693
  147SAPE  H16S16151   4.177   5.645   4.803
  147SAPE  C21716152   4.199   5.801   4.657
  147SAPE  H17R16153   4.281   5.739   4.615
  147SAPE  H17S16154   4.257   5.881   4.708
  147SAPE  C21816155   4.131   5.876   4.531
  147SAPE  H18R16156   4.194   5.964   4.508
  147SAPE  H18S16157   4.028   5.907   4.558
  147SAPE  C21916158   4.118   5.791   4.406
  147SAPE  H19R16159   4.061   5.701   4.437
  147SAPE  H19S16160   4.221   5.760   4.379
  147SAPE  C22016161   4.045   5.853   4.288
  147SAPE  H20R16162   4.023   5.777   4.210
  147SAPE  H20S16163   4.105   5.937   4.247
  147SAPE  H20T16164   3.955   5.902   4.332
  147SAPE   C3316165   4.213   5.797   5.892
  147SAPE   H3X16166   4.257   5.806   5.993
  147SAPE   H3Y16167   4.104   5.781   5.906
  147SAPE   C3416168   4.245   5.924   5.819
  147SAPE   H4X16169   4.351   5.921   5.786
  147SAPE   H4Y16170   4.224   6.010   5.886
  147SAPE   C3516171   4.158   5.947   5.697
  147SAPE   H5X16172   4.051   5.954   5.727
  147SAPE   H5Y16173   4.169   5.864   5.624
  147SAPE   C3616174   4.179   6.079   5.630
  147SAPE   H6X16175   4.167   6.170   5.692
  147SAPE   H6Y16176   4.097   6.100   5.557
  147SAPE   C3716177   4.311   6.077   5.551
  147SAPE   H7X16178   4.324   5.985   5.491
  147SAPE   H7Y16179   4.396   6.093   5.621
  147SAPE   C3816180   4.310   6.179   5.439
  147SAPE   H8X16181   4.284   6.283   5.470
  147SAPE   H8Y16182   4.219   6.141   5.388
  147SAPE   C3916183   4.447   6.198   5.361
  147SAPE   H9X16184   4.504   6.104   5.347
  147SAPE   H9Y16185   4.515   6.268   5.415
  147SAPE  C31016186   4.434   6.239   5.215
  147SAPE  H10X16187   4.533   6.267   5.173
  147SAPE  H10Y16188   4.377   6.333   5.196
  147SAPE  C31116189   4.366   6.127   5.131
  147SAPE  H11X16190   4.266   6.119   5.179
  147SAPE  H11Y16191   4.419   6.031   5.145
  147SAPE  C31216192   4.355   6.174   4.989
  147SAPE  H12X16193   4.298   6.269   4.984
  147SAPE  H12Y16194   4.290   6.092   4.952
  147SAPE  C31316195   4.491   6.184   4.923
  147SAPE  H13X16196   4.543   6.089   4.946
  147SAPE  H13Y16197   4.549   6.271   4.962
  147SAPE  C31416198   4.479   6.206   4.768
  147SAPE  H14X16199   4.431   6.306   4.763
  147SAPE  H14Y16200   4.402   6.137   4.726
  147SAPE  C31516201   4.610   6.186   4.679
  147SAPE  H15X16202   4.653   6.085   4.697
  147SAPE  H15Y16203   4.684   6.264   4.704
  147SAPE  C31616204   4.584   6.197   4.529
  147SAPE  H16X16205   4.571   6.306   4.513
  147SAPE  H16Y16206   4.487   6.150   4.502
  147SAPE  C31716207   4.694   6.136   4.451
  147SAPE  H17X16208   4.698   6.027   4.472
  147SAPE  H17Y16209   4.791   6.177   4.485
  147SAPE  C31816210   4.682   6.162   4.299
  147SAPE  H18X16211   4.581   6.129   4.266
  147SAPE  H18Y16212   4.748   6.097   4.236
  147SAPE  H18Z16213   4.703   6.265   4.264
  148SAPE     N16214   1.692   5.942   6.851
  148SAPE   HN116215   1.650   5.924   6.757
  148SAPE   HN216216   1.676   5.857   6.908
  148SAPE   HN316217   1.651   6.028   6.893
  148SAPE   C1216218   1.841   5.946   6.843
  148SAPE  H12A16219   1.876   5.854   6.790
  148SAPE  H12B16220   1.872   5.945   6.949
  148SAPE   C1116221   1.875   6.084   6.788
  148SAPE  H11A16222   1.985   6.104   6.795
  148SAPE  H11B16223   1.828   6.156   6.859
  148SAPE     P16224   1.848   6.243   6.595
  148SAPE   O1316225   1.773   6.264   6.466
  148SAPE   O1416226   1.831   6.342   6.709
  148SAPE   O1216227   1.820   6.098   6.655
  148SAPE   O1116228   2.000   6.217   6.557
  148SAPE    C116229   2.094   6.320   6.575
  148SAPE    HA16230   2.092   6.355   6.680
  148SAPE    HB16231   2.192   6.268   6.567
  148SAPE    C216232   2.075   6.444   6.481
  148SAPE    HS16233   1.975   6.488   6.498
  148SAPE   O2116234   2.090   6.392   6.347
  148SAPE   C2116235   1.996   6.426   6.254
  148SAPE   O2216236   1.909   6.512   6.274
  148SAPE   C2216237   2.008   6.344   6.118
  148SAPE   H2R16238   2.109   6.360   6.075
  148SAPE   H2S16239   1.996   6.236   6.139
  148SAPE    C316240   2.181   6.549   6.515
  148SAPE    HX16241   2.284   6.509   6.520
  148SAPE    HY16242   2.156   6.588   6.616
  148SAPE   O3116243   2.174   6.644   6.418
  148SAPE   C3116244   2.082   6.738   6.415
  148SAPE   O3216245   1.984   6.749   6.485
  148SAPE   C3216246   2.120   6.840   6.306
  148SAPE   H2X16247   2.217   6.884   6.336
  148SAPE   H2Y16248   2.048   6.922   6.328
  148SAPE   C2316249   1.905   6.402   6.017
  148SAPE   H3R16250   1.900   6.512   6.035
  148SAPE   H3S16251   1.809   6.348   6.022
  148SAPE   C2416252   1.962   6.403   5.875
  148SAPE   H4R16253   2.059   6.453   5.896
  148SAPE   H4S16254   1.903   6.460   5.800
  148SAPE   C2516255   1.980   6.276   5.809
  148SAPE   H5R16256   2.001   6.185   5.867
  148SAPE   C2616257   1.999   6.254   5.678
  148SAPE   H6R16258   2.022   6.151   5.648
  148SAPE   C2716259   1.994   6.357   5.568
  148SAPE   H7R16260   2.038   6.454   5.600
  148SAPE   H7S16261   1.889   6.384   5.542
  148SAPE   C2816262   2.064   6.304   5.441
  148SAPE   H8R16263   2.143   6.229   5.459
  148SAPE   C2916264   2.034   6.349   5.317
  148SAPE   H9R16265   2.084   6.303   5.230
  148SAPE  C21016266   1.934   6.454   5.270
  148SAPE  H10R16267   1.988   6.547   5.243
  148SAPE  H10S16268   1.888   6.502   5.359
  148SAPE  C21116269   1.829   6.398   5.181
  148SAPE  H11R16270   1.804   6.292   5.194
  148SAPE  C21216271   1.776   6.464   5.077
  148SAPE  H12R16272   1.703   6.416   5.010
  148SAPE  C21316273   1.804   6.613   5.045
  148SAPE  H13R16274   1.913   6.629   5.034
  148SAPE  H13S16275   1.763   6.667   5.133
  148SAPE  C21416276   1.751   6.648   4.912
  148SAPE  H14R16277   1.641   6.643   4.915
  148SAPE  C21516278   1.802   6.733   4.814
  148SAPE  H15R16279   1.743   6.754   4.724
  148SAPE  C21616280   1.928   6.803   4.817
  148SAPE  H16R16281   1.999   6.763   4.893
  148SAPE  H16S16282   1.916   6.911   4.840
  148SAPE  C21716283   2.005   6.777   4.684
  148SAPE  H17R16284   2.089   6.849   4.694
  148SAPE  H17S16285   1.941   6.808   4.599
  148SAPE  C21816286   2.062   6.641   4.668
  148SAPE  H18R16287   1.996   6.570   4.722
  148SAPE  H18S16288   2.158   6.626   4.723
  148SAPE  C21916289   2.076   6.585   4.517
  148SAPE  H19R16290   1.976   6.602   4.472
  148SAPE  H19S16291   2.091   6.476   4.532
  148SAPE  C22016292   2.176   6.648   4.430
  148SAPE  H20R16293   2.137   6.748   4.401
  148SAPE  H20S16294   2.187   6.585   4.340
  148SAPE  H20T16295   2.275   6.652   4.481
  148SAPE   C3316296   2.111   6.806   6.152
  148SAPE   H3X16297   2.097   6.910   6.115
  148SAPE   H3Y16298   2.014   6.754   6.134
  148SAPE   C3416299   2.222   6.726   6.077
  148SAPE   H4X16300   2.212   6.621   6.114
  148SAPE   H4Y16301   2.321   6.763   6.108
  148SAPE   C3516302   2.196   6.734   5.931
  148SAPE   H5X16303   2.165   6.837   5.906
  148SAPE   H5Y16304   2.103   6.677   5.910
  148SAPE   C3616305   2.311   6.701   5.836
  148SAPE   H6X16306   2.362   6.610   5.874
  148SAPE   H6Y16307   2.377   6.790   5.845
  148SAPE   C3716308   2.284   6.672   5.690
  148SAPE   H7X16309   2.253   6.759   5.628
  148SAPE   H7Y16310   2.211   6.589   5.683
  148SAPE   C3816311   2.411   6.611   5.627
  148SAPE   H8X16312   2.452   6.542   5.704
  148SAPE   H8Y16313   2.487   6.692   5.621
  148SAPE   C3916314   2.385   6.547   5.488
  148SAPE   H9X16315   2.308   6.469   5.504
  148SAPE   H9Y16316   2.478   6.499   5.449
  148SAPE  C31016317   2.323   6.644   5.383
  148SAPE  H10X16318   2.386   6.734   5.368
  148SAPE  H10Y16319   2.229   6.670   5.435
  148SAPE  C31116320   2.300   6.576   5.247
  148SAPE  H11X16321   2.235   6.631   5.175
  148SAPE  H11Y16322   2.255   6.475   5.257
  148SAPE  C31216323   2.433   6.570   5.175
  148SAPE  H12X16324   2.499   6.512   5.241
  148SAPE  H12Y16325   2.493   6.663   5.166
  148SAPE  C31316326   2.406   6.502   5.042
  148SAPE  H13X16327   2.364   6.573   4.967
  148SAPE  H13Y16328   2.341   6.413   5.056
  148SAPE  C31416329   2.530   6.448   4.970
  148SAPE  H14X16330   2.579   6.379   5.042
  148SAPE  H14Y16331   2.588   6.540   4.947
  148SAPE  C31516332   2.506   6.381   4.835
  148SAPE  H15X16333   2.442   6.454   4.780
  148SAPE  H15Y16334   2.445   6.290   4.852
  148SAPE  C31616335   2.638   6.368   4.757
  148SAPE  H16X16336   2.709   6.334   4.835
  148SAPE  H16Y16337   2.658   6.473   4.728
  148SAPE  C31716338   2.626   6.279   4.636
  148SAPE  H17X16339   2.711   6.309   4.571
  148SAPE  H17Y16340   2.526   6.302   4.592
  148SAPE  C31816341   2.637   6.136   4.674
  148SAPE  H18X16342   2.541   6.103   4.719
  148SAPE  H18Y16343   2.720   6.128   4.746
  148SAPE  H18Z16344   2.658   6.069   4.588
  149SAPE     N16345   2.609   3.121   6.645
  149SAPE   HN116346   2.616   3.215   6.601
  149SAPE   HN216347   2.699   3.110   6.697
  149SAPE   HN316348   2.618   3.057   6.564
  149SAPE   C1216349   2.495   3.075   6.717
  149SAPE  H12A16350   2.406   3.079   6.651
  149SAPE  H12B16351   2.483   3.145   6.802
  149SAPE   C1116352   2.512   2.935   6.773
  149SAPE  H11A16353   2.414   2.903   6.814
  149SAPE  H11B16354   2.582   2.949   6.859
  149SAPE     P16355   2.533   2.707   6.634
  149SAPE   O1316356   2.642   2.655   6.552
  149SAPE   O1416357   2.506   2.626   6.762
  149SAPE   O1216358   2.567   2.851   6.676
  149SAPE   O1116359   2.405   2.738   6.542
  149SAPE    C116360   2.274   2.761   6.598
  149SAPE    HA16361   2.244   2.664   6.643
  149SAPE    HB16362   2.273   2.850   6.665
  149SAPE    C216363   2.178   2.801   6.485
  149SAPE    HS16364   2.074   2.813   6.523
  149SAPE   O2116365   2.180   2.689   6.390
  149SAPE   C2116366   2.065   2.669   6.319
  149SAPE   O2216367   1.963   2.735   6.329
  149SAPE   C2216368   2.073   2.542   6.235
  149SAPE   H2R16369   2.162   2.484   6.264
  149SAPE   H2S16370   1.975   2.492   6.254
  149SAPE    C316371   2.216   2.938   6.420
  149SAPE    HX16372   2.318   2.928   6.376
  149SAPE    HY16373   2.219   3.017   6.498
  149SAPE   O3116374   2.125   2.976   6.309
  149SAPE   C3116375   2.020   3.039   6.355
  149SAPE   O3216376   1.989   3.059   6.474
  149SAPE   C3216377   1.933   3.090   6.240
  149SAPE   H2X16378   1.948   3.200   6.228
  149SAPE   H2Y16379   1.829   3.077   6.277
  149SAPE   C2316380   2.085   2.569   6.084
  149SAPE   H3R16381   2.120   2.473   6.041
  149SAPE   H3S16382   2.169   2.639   6.061
  149SAPE   C2416383   1.955   2.618   6.017
  149SAPE   H4R16384   1.994   2.646   5.917
  149SAPE   H4S16385   1.935   2.716   6.066
  149SAPE   C2516386   1.850   2.508   6.013
  149SAPE   H5R16387   1.788   2.498   6.103
  149SAPE   C2616388   1.835   2.410   5.924
  149SAPE   H6R16389   1.757   2.335   5.946
  149SAPE   C2716390   1.898   2.401   5.789
  149SAPE   H7R16391   1.940   2.503   5.773
  149SAPE   H7S16392   1.823   2.386   5.709
  149SAPE   C2816393   2.009   2.294   5.780
  149SAPE   H8R16394   2.065   2.264   5.870
  149SAPE   C2916395   2.057   2.252   5.663
  149SAPE   H9R16396   2.141   2.180   5.663
  149SAPE  C21016397   2.020   2.288   5.522
  149SAPE  H10R16398   1.938   2.361   5.507
  149SAPE  H10S16399   1.979   2.194   5.479
  149SAPE  C21116400   2.138   2.328   5.444
  149SAPE  H11R16401   2.231   2.336   5.502
  149SAPE  C21216402   2.154   2.322   5.312
  149SAPE  H12R16403   2.246   2.371   5.278
  149SAPE  C21316404   2.042   2.301   5.211
  149SAPE  H13R16405   1.952   2.280   5.272
  149SAPE  H13S16406   2.068   2.208   5.156
  149SAPE  C21416407   2.010   2.407   5.109
  149SAPE  H14R16408   2.070   2.498   5.125
  149SAPE  C21516409   1.924   2.384   5.007
  149SAPE  H15R16410   1.903   2.473   4.946
  149SAPE  C21616411   1.848   2.259   4.975
  149SAPE  H16R16412   1.784   2.219   5.057
  149SAPE  H16S16413   1.907   2.175   4.933
  149SAPE  C21716414   1.753   2.295   4.867
  149SAPE  H17R16415   1.685   2.379   4.892
  149SAPE  H17S16416   1.685   2.209   4.846
  149SAPE  C21816417   1.812   2.335   4.730
  149SAPE  H18R16418   1.831   2.247   4.666
  149SAPE  H18S16419   1.915   2.374   4.746
  149SAPE  C21916420   1.732   2.440   4.643
  149SAPE  H19R16421   1.778   2.484   4.551
  149SAPE  H19S16422   1.728   2.529   4.710
  149SAPE  C22016423   1.599   2.385   4.603
  149SAPE  H20R16424   1.520   2.463   4.594
  149SAPE  H20S16425   1.554   2.327   4.686
  149SAPE  H20T16426   1.610   2.329   4.507
  149SAPE   C3316427   1.957   3.013   6.106
  149SAPE   H3X16428   1.929   2.907   6.120
  149SAPE   H3Y16429   2.057   3.021   6.058
  149SAPE   C3416430   1.863   3.063   5.995
  149SAPE   H4X16431   1.876   3.171   5.971
  149SAPE   H4Y16432   1.758   3.061   6.031
  149SAPE   C3516433   1.861   2.980   5.868
  149SAPE   H5X16434   1.840   2.872   5.882
  149SAPE   H5Y16435   1.966   2.981   5.831
  149SAPE   C3616436   1.764   3.045   5.770
  149SAPE   H6X16437   1.798   3.144   5.732
  149SAPE   H6Y16438   1.661   3.058   5.809
  149SAPE   C3716439   1.751   2.965   5.639
  149SAPE   H7X16440   1.667   2.999   5.576
  149SAPE   H7Y16441   1.731   2.858   5.663
  149SAPE   C3816442   1.867   2.988   5.544
  149SAPE   H8X16443   1.963   2.956   5.590
  149SAPE   H8Y16444   1.878   3.097   5.524
  149SAPE   C3916445   1.843   2.911   5.411
  149SAPE   H9X16446   1.741   2.934   5.375
  149SAPE   H9Y16447   1.850   2.802   5.432
  149SAPE  C31016448   1.943   2.951   5.306
  149SAPE  H10X16449   2.037   2.964   5.365
  149SAPE  H10Y16450   1.937   3.051   5.256
  149SAPE  C31116451   1.971   2.838   5.207
  149SAPE  H11X16452   1.876   2.829   5.150
  149SAPE  H11Y16453   1.989   2.743   5.261
  149SAPE  C31216454   2.068   2.866   5.089
  149SAPE  H12X16455   2.169   2.839   5.125
  149SAPE  H12Y16456   2.072   2.975   5.069
  149SAPE  C31316457   2.026   2.783   4.963
  149SAPE  H13X16458   1.994   2.680   4.990
  149SAPE  H13Y16459   2.115   2.776   4.897
  149SAPE  C31416460   1.926   2.859   4.871
  149SAPE  H14X16461   1.981   2.956   4.865
  149SAPE  H14Y16462   1.828   2.875   4.920
  149SAPE  C31516463   1.914   2.791   4.734
  149SAPE  H15X16464   1.876   2.687   4.738
  149SAPE  H15Y16465   2.017   2.786   4.694
  149SAPE  C31616466   1.825   2.874   4.639
  149SAPE  H16X16467   1.876   2.970   4.619
  149SAPE  H16Y16468   1.735   2.897   4.700
  149SAPE  C31716469   1.787   2.814   4.498
  149SAPE  H17X16470   1.719   2.885   4.447
  149SAPE  H17Y16471   1.738   2.716   4.517
  149SAPE  C31816472   1.905   2.788   4.397
  149SAPE  H18X16473   1.860   2.724   4.318
  149SAPE  H18Y16474   1.974   2.724   4.457
  149SAPE  H18Z16475   1.955   2.885   4.377
  150SAPE     N16476   4.982   3.440   6.667
  150SAPE   HN116477   4.993   3.536   6.705
  150SAPE   HN216478   4.998   3.447   6.564
  150SAPE   HN316479   4.887   3.402   6.681
  150SAPE   C1216480   5.082   3.346   6.736
  150SAPE  H12A16481   5.053   3.324   6.841
  150SAPE  H12B16482   5.183   3.390   6.720
  150SAPE   C1116483   5.084   3.218   6.650
  150SAPE  H11A16484   5.145   3.138   6.699
  150SAPE  H11B16485   5.126   3.253   6.554
  150SAPE     P16486   4.929   3.041   6.525
  150SAPE   O1316487   4.928   2.918   6.610
  150SAPE   O1416488   4.807   3.077   6.451
  150SAPE   O1216489   4.949   3.164   6.635
  150SAPE   O1116490   5.060   3.055   6.431
  150SAPE    C116491   5.042   3.098   6.296
  150SAPE    HA16492   4.979   3.022   6.247
  150SAPE    HB16493   4.979   3.189   6.295
  150SAPE    C216494   5.184   3.116   6.224
  150SAPE    HS16495   5.214   3.009   6.230
  150SAPE   O2116496   5.274   3.199   6.306
  150SAPE   C2116497   5.396   3.165   6.295
  150SAPE   O2216498   5.436   3.055   6.262
  150SAPE   C2216499   5.490   3.280   6.329
  150SAPE   H2R16500   5.438   3.349   6.398
  150SAPE   H2S16501   5.571   3.242   6.395
  150SAPE    C316502   5.176   3.166   6.080
  150SAPE    HX16503   5.278   3.165   6.036
  150SAPE    HY16504   5.154   3.274   6.094
  150SAPE   O3116505   5.085   3.085   6.004
  150SAPE   C3116506   5.001   3.150   5.929
  150SAPE   O3216507   5.009   3.271   5.902
  150SAPE   C3216508   4.884   3.054   5.893
  150SAPE   H2X16509   4.824   3.044   5.986
  150SAPE   H2Y16510   4.922   2.950   5.880
  150SAPE   C2316511   5.547   3.354   6.207
  150SAPE   H3R16512   5.523   3.289   6.120
  150SAPE   H3S16513   5.658   3.358   6.215
  150SAPE   C2416514   5.493   3.493   6.180
  150SAPE   H4R16515   5.552   3.539   6.097
  150SAPE   H4S16516   5.513   3.549   6.274
  150SAPE   C2516517   5.347   3.491   6.139
  150SAPE   H5R16518   5.271   3.491   6.220
  150SAPE   C2616519   5.293   3.528   6.026
  150SAPE   H6R16520   5.183   3.526   6.024
  150SAPE   C2716521   5.351   3.579   5.900
  150SAPE   H7R16522   5.367   3.495   5.828
  150SAPE   H7S16523   5.451   3.623   5.920
  150SAPE   C2816524   5.263   3.690   5.837
  150SAPE   H8R16525   5.205   3.746   5.911
  150SAPE   C2916526   5.246   3.706   5.702
  150SAPE   H9R16527   5.165   3.773   5.670
  150SAPE  C21016528   5.306   3.632   5.584
  150SAPE  H10R16529   5.316   3.523   5.602
  150SAPE  H10S16530   5.398   3.689   5.562
  150SAPE  C21116531   5.221   3.639   5.459
  150SAPE  H11R16532   5.131   3.703   5.464
  150SAPE  C21216533   5.252   3.573   5.343
  150SAPE  H12R16534   5.187   3.596   5.257
  150SAPE  C21316535   5.362   3.474   5.314
  150SAPE  H13R16536   5.326   3.369   5.313
  150SAPE  H13S16537   5.417   3.467   5.410
  150SAPE  C21416538   5.458   3.507   5.200
  150SAPE  H14R16539   5.564   3.514   5.229
  150SAPE  C21516540   5.435   3.517   5.065
  150SAPE  H15R16541   5.517   3.549   4.998
  150SAPE  C21616542   5.312   3.491   4.992
  150SAPE  H16R16543   5.305   3.557   4.903
  150SAPE  H16S16544   5.231   3.509   5.066
  150SAPE  C21716545   5.309   3.349   4.934
  150SAPE  H17R16546   5.217   3.327   4.875
  150SAPE  H17S16547   5.312   3.281   5.021
  150SAPE  C21816548   5.421   3.320   4.836
  150SAPE  H18R16549   5.431   3.211   4.821
  150SAPE  H18S16550   5.515   3.343   4.892
  150SAPE  C21916551   5.416   3.390   4.704
  150SAPE  H19R16552   5.430   3.499   4.720
  150SAPE  H19S16553   5.312   3.370   4.672
  150SAPE  C22016554   5.527   3.332   4.611
  150SAPE  H20R16555   5.524   3.221   4.607
  150SAPE  H20S16556   5.624   3.373   4.644
  150SAPE  H20T16557   5.518   3.390   4.516
  150SAPE   C3316558   4.796   3.086   5.770
  150SAPE   H3X16559   4.848   3.145   5.692
  150SAPE   H3Y16560   4.719   3.156   5.808
  150SAPE   C3416561   4.723   2.963   5.729
  150SAPE   H4X16562   4.670   2.925   5.818
  150SAPE   H4Y16563   4.797   2.882   5.713
  150SAPE   C3516564   4.644   2.962   5.594
  150SAPE   H5X16565   4.571   3.046   5.591
  150SAPE   H5Y16566   4.591   2.864   5.601
  150SAPE   C3616567   4.729   2.983   5.465
  150SAPE   H6X16568   4.809   2.907   5.476
  150SAPE   H6Y16569   4.758   3.090   5.466
  150SAPE   C3716570   4.652   2.963   5.335
  150SAPE   H7X16571   4.601   3.061   5.326
  150SAPE   H7Y16572   4.589   2.874   5.353
  150SAPE   C3816573   4.740   2.923   5.214
  150SAPE   H8X16574   4.838   2.974   5.220
  150SAPE   H8Y16575   4.694   2.970   5.124
  150SAPE   C3916576   4.761   2.773   5.200
  150SAPE   H9X16577   4.668   2.722   5.233
  150SAPE   H9Y16578   4.855   2.744   5.252
  150SAPE  C31016579   4.781   2.746   5.055
  150SAPE  H10X16580   4.872   2.800   5.022
  150SAPE  H10Y16581   4.698   2.775   4.988
  150SAPE  C31116582   4.814   2.597   5.031
  150SAPE  H11X16583   4.737   2.517   5.039
  150SAPE  H11Y16584   4.887   2.566   5.109
  150SAPE  C31216585   4.894   2.582   4.896
  150SAPE  H12X16586   4.994   2.628   4.912
  150SAPE  H12Y16587   4.840   2.638   4.817
  150SAPE  C31316588   4.930   2.443   4.851
  150SAPE  H13X16589   4.838   2.383   4.860
  150SAPE  H13Y16590   5.010   2.402   4.917
  150SAPE  C31416591   4.967   2.431   4.701
  150SAPE  H14X16592   4.886   2.480   4.644
  150SAPE  H14Y16593   4.984   2.328   4.663
  150SAPE  C31516594   5.102   2.504   4.671
  150SAPE  H15X16595   5.181   2.460   4.735
  150SAPE  H15Y16596   5.093   2.610   4.703
  150SAPE  C31616597   5.138   2.494   4.527
  150SAPE  H16X16598   5.057   2.528   4.459
  150SAPE  H16Y16599   5.157   2.387   4.508
  150SAPE  C31716600   5.259   2.577   4.487
  150SAPE  H17X16601   5.350   2.536   4.534
  150SAPE  H17Y16602   5.251   2.680   4.530
  150SAPE  C31816603   5.287   2.583   4.336
  150SAPE  H18X16604   5.392   2.618   4.336
  150SAPE  H18Y16605   5.217   2.648   4.280
  150SAPE  H18Z16606   5.282   2.476   4.306
  151SAPE     N16607   4.349   1.059   6.645
  151SAPE   HN116608   4.269   1.072   6.579
  151SAPE   HN216609   4.422   1.034   6.576
  151SAPE   HN316610   4.339   0.977   6.708
  151SAPE   C1216611   4.396   1.186   6.703
  151SAPE  H12A16612   4.477   1.167   6.776
  151SAPE  H12B16613   4.315   1.224   6.768
  151SAPE   C1116614   4.449   1.277   6.589
  151SAPE  H11A16615   4.476   1.370   6.644
  151SAPE  H11B16616   4.369   1.305   6.517
  151SAPE     P16617   4.631   1.306   6.412
  151SAPE   O1316618   4.657   1.439   6.459
  151SAPE   O1416619   4.736   1.221   6.360
  151SAPE   O1216620   4.559   1.222   6.526
  151SAPE   O1116621   4.529   1.331   6.299
  151SAPE    C116622   4.470   1.228   6.216
  151SAPE    HA16623   4.475   1.129   6.266
  151SAPE    HB16624   4.369   1.269   6.194
  151SAPE    C216625   4.539   1.225   6.079
  151SAPE    HS16626   4.644   1.239   6.109
  151SAPE   O2116627   4.483   1.334   6.010
  151SAPE   C2116628   4.548   1.408   5.926
  151SAPE   O2216629   4.664   1.386   5.892
  151SAPE   C2216630   4.456   1.523   5.881
  151SAPE   H2R16631   4.387   1.472   5.810
  151SAPE   H2S16632   4.395   1.560   5.965
  151SAPE    C316633   4.513   1.092   6.000
  151SAPE    HX16634   4.404   1.088   5.983
  151SAPE    HY16635   4.541   1.007   6.065
  151SAPE   O3116636   4.585   1.085   5.875
  151SAPE   C3116637   4.713   1.060   5.884
  151SAPE   O3216638   4.782   1.059   5.984
  151SAPE   C3216639   4.778   1.028   5.742
  151SAPE   H2X16640   4.794   1.126   5.692
  151SAPE   H2Y16641   4.702   0.969   5.687
  151SAPE   C2316642   4.531   1.631   5.801
  151SAPE   H3R16643   4.621   1.596   5.747
  151SAPE   H3S16644   4.558   1.718   5.864
  151SAPE   C2416645   4.454   1.697   5.684
  151SAPE   H4R16646   4.373   1.762   5.724
  151SAPE   H4S16647   4.412   1.616   5.620
  151SAPE   C2516648   4.541   1.788   5.601
  151SAPE   H5R16649   4.613   1.838   5.668
  151SAPE   C2616650   4.545   1.810   5.473
  151SAPE   H6R16651   4.616   1.884   5.434
  151SAPE   C2716652   4.461   1.738   5.367
  151SAPE   H7R16653   4.384   1.668   5.408
  151SAPE   H7S16654   4.519   1.673   5.299
  151SAPE   C2816655   4.402   1.843   5.281
  151SAPE   H8R16656   4.363   1.937   5.323
  151SAPE   C2916657   4.392   1.833   5.145
  151SAPE   H9R16658   4.353   1.917   5.086
  151SAPE  C21016659   4.423   1.722   5.046
  151SAPE  H10R16660   4.335   1.715   4.980
  151SAPE  H10S16661   4.429   1.623   5.096
  151SAPE  C21116662   4.553   1.731   4.969
  151SAPE  H11R16663   4.629   1.807   4.991
  151SAPE  C21216664   4.577   1.644   4.866
  151SAPE  H12R16665   4.677   1.633   4.821
  151SAPE  C21316666   4.482   1.534   4.814
  151SAPE  H13R16667   4.376   1.564   4.827
  151SAPE  H13S16668   4.495   1.437   4.865
  151SAPE  C21416669   4.521   1.495   4.677
  151SAPE  H14R16670   4.629   1.510   4.668
  151SAPE  C21516671   4.431   1.491   4.572
  151SAPE  H15R16672   4.473   1.467   4.473
  151SAPE  C21616673   4.289   1.532   4.570
  151SAPE  H16R16674   4.246   1.566   4.666
  151SAPE  H16S16675   4.229   1.444   4.541
  151SAPE  C21716676   4.251   1.640   4.460
  151SAPE  H17R16677   4.145   1.665   4.481
  151SAPE  H17S16678   4.249   1.589   4.361
  151SAPE  C21816679   4.338   1.764   4.446
  151SAPE  H18R16680   4.439   1.725   4.421
  151SAPE  H18S16681   4.345   1.814   4.545
  151SAPE  C21916682   4.313   1.866   4.336
  151SAPE  H19R16683   4.403   1.932   4.341
  151SAPE  H19S16684   4.221   1.925   4.351
  151SAPE  C22016685   4.315   1.813   4.189
  151SAPE  H20R16686   4.277   1.709   4.180
  151SAPE  H20S16687   4.421   1.806   4.157
  151SAPE  H20T16688   4.269   1.882   4.116
  151SAPE   C3316689   4.923   0.970   5.740
  151SAPE   H3X16690   4.924   0.867   5.782
  151SAPE   H3Y16691   4.978   1.034   5.812
  151SAPE   C3416692   4.991   0.970   5.608
  151SAPE   H4X16693   5.100   0.971   5.633
  151SAPE   H4Y16694   4.965   1.058   5.546
  151SAPE   C3516695   4.966   0.843   5.529
  151SAPE   H5X16696   4.863   0.853   5.490
  151SAPE   H5Y16697   4.967   0.758   5.600
  151SAPE   C3616698   5.058   0.843   5.413
  151SAPE   H6X16699   5.144   0.778   5.441
  151SAPE   H6Y16700   5.116   0.932   5.379
  151SAPE   C3716701   5.005   0.752   5.292
  151SAPE   H7X16702   4.898   0.779   5.280
  151SAPE   H7Y16703   5.030   0.646   5.310
  151SAPE   C3816704   5.055   0.790   5.161
  151SAPE   H8X16705   5.161   0.756   5.167
  151SAPE   H8Y16706   5.068   0.900   5.157
  151SAPE   C3916707   4.972   0.727   5.054
  151SAPE   H9X16708   4.872   0.775   5.054
  151SAPE   H9Y16709   4.965   0.617   5.072
  151SAPE  C31016710   5.039   0.734   4.922
  151SAPE  H10X16711   5.145   0.702   4.925
  151SAPE  H10Y16712   5.037   0.836   4.878
  151SAPE  C31116713   4.968   0.635   4.832
  151SAPE  H11X16714   4.862   0.668   4.830
  151SAPE  H11Y16715   4.983   0.533   4.873
  151SAPE  C31216716   5.019   0.646   4.691
  151SAPE  H12X16717   5.128   0.623   4.689
  151SAPE  H12Y16718   4.999   0.752   4.663
  151SAPE  C31316719   4.950   0.547   4.595
  151SAPE  H13X16720   4.840   0.543   4.616
  151SAPE  H13Y16721   5.001   0.449   4.611
  151SAPE  C31416722   4.971   0.580   4.445
  151SAPE  H14X16723   5.081   0.571   4.429
  151SAPE  H14Y16724   4.934   0.683   4.427
  151SAPE  C31516725   4.906   0.490   4.342
  151SAPE  H15X16726   4.928   0.517   4.237
  151SAPE  H15Y16727   4.796   0.497   4.356
  151SAPE  C31616728   4.948   0.343   4.368
  151SAPE  H16X16729   4.909   0.311   4.467
  151SAPE  H16Y16730   5.058   0.344   4.383
  151SAPE  C31716731   4.915   0.244   4.258
  151SAPE  H17X16732   4.808   0.217   4.248
  151SAPE  H17Y16733   4.973   0.152   4.281
  151SAPE  C31816734   4.969   0.291   4.122
  151SAPE  H18X16735   5.062   0.350   4.136
  151SAPE  H18Y16736   4.891   0.351   4.071
  151SAPE  H18Z16737   4.998   0.200   4.066
  152SAPE     N16738   0.145   3.861   6.514
  152SAPE   HN116739   0.164   3.929   6.590
  152SAPE   HN216740   0.152   3.771   6.566
  152SAPE   HN316741   0.213   3.882   6.439
  152SAPE   C1216742   0.001   3.863   6.465
  152SAPE  H12A16743  -0.031   3.956   6.412
  152SAPE  H12B16744  -0.069   3.852   6.550
  152SAPE   C1116745  -0.023   3.750   6.363
  152SAPE  H11A16746   0.038   3.770   6.273
  152SAPE  H11B16747  -0.128   3.765   6.327
  152SAPE     P16748  -0.107   3.531   6.474
  152SAPE   O1316749  -0.035   3.454   6.577
  152SAPE   O1416750  -0.226   3.603   6.522
  152SAPE   O1216751   0.005   3.620   6.414
  152SAPE   O1116752  -0.127   3.446   6.340
  152SAPE    C116753  -0.218   3.483   6.244
  152SAPE    HA16754  -0.295   3.555   6.281
  152SAPE    HB16755  -0.168   3.536   6.160
  152SAPE    C216756  -0.284   3.355   6.180
  152SAPE    HS16757  -0.294   3.286   6.266
  152SAPE   O2116758  -0.208   3.291   6.078
  152SAPE   C2116759  -0.195   3.158   6.086
  152SAPE   O2216760  -0.234   3.091   6.181
  152SAPE   C2216761  -0.106   3.099   5.976
  152SAPE   H2R16762  -0.154   3.102   5.876
  152SAPE   H2S16763  -0.008   3.150   5.971
  152SAPE    C316764  -0.431   3.375   6.133
  152SAPE    HX16765  -0.472   3.408   6.231
  152SAPE    HY16766  -0.482   3.281   6.102
  152SAPE   O3116767  -0.439   3.489   6.038
  152SAPE   C3116768  -0.458   3.463   5.909
  152SAPE   O3216769  -0.449   3.352   5.859
  152SAPE   C3216770  -0.495   3.598   5.848
  152SAPE   H2X16771  -0.401   3.653   5.824
  152SAPE   H2Y16772  -0.536   3.666   5.926
  152SAPE   C2316773  -0.070   2.949   6.001
  152SAPE   H3R16774  -0.155   2.877   6.009
  152SAPE   H3S16775  -0.024   2.949   6.102
  152SAPE   C2416776   0.027   2.884   5.905
  152SAPE   H4R16777   0.102   2.962   5.879
  152SAPE   H4S16778  -0.022   2.841   5.815
  152SAPE   C2516779   0.105   2.769   5.962
  152SAPE   H5R16780   0.077   2.739   6.064
  152SAPE   C2616781   0.200   2.703   5.896
  152SAPE   H6R16782   0.261   2.626   5.945
  152SAPE   C2716783   0.232   2.728   5.743
  152SAPE   H7R16784   0.301   2.815   5.742
  152SAPE   H7S16785   0.148   2.770   5.685
  152SAPE   C2816786   0.304   2.614   5.679
  152SAPE   H8R16787   0.246   2.521   5.682
  152SAPE   C2916788   0.416   2.615   5.611
  152SAPE   H9R16789   0.450   2.518   5.572
  152SAPE  C21016790   0.499   2.736   5.574
  152SAPE  H10R16791   0.600   2.737   5.621
  152SAPE  H10S16792   0.454   2.834   5.602
  152SAPE  C21116793   0.500   2.752   5.422
  152SAPE  H11R16794   0.435   2.835   5.392
  152SAPE  C21216795   0.551   2.671   5.330
  152SAPE  H12R16796   0.542   2.711   5.228
  152SAPE  C21316797   0.626   2.543   5.350
  152SAPE  H13R16798   0.574   2.478   5.423
  152SAPE  H13S16799   0.711   2.563   5.419
  152SAPE  C21416800   0.680   2.466   5.227
  152SAPE  H14R16801   0.789   2.454   5.218
  152SAPE  C21516802   0.605   2.395   5.141
  152SAPE  H15R16803   0.651   2.322   5.074
  152SAPE  C21616804   0.451   2.377   5.149
  152SAPE  H16R16805   0.400   2.442   5.222
  152SAPE  H16S16806   0.435   2.272   5.182
  152SAPE  C21716807   0.374   2.386   5.012
  152SAPE  H17R16808   0.399   2.480   4.959
  152SAPE  H17S16809   0.266   2.404   5.029
  152SAPE  C21816810   0.402   2.270   4.912
  152SAPE  H18R16811   0.411   2.179   4.976
  152SAPE  H18S16812   0.503   2.284   4.867
  152SAPE  C21916813   0.294   2.260   4.804
  152SAPE  H19R16814   0.284   2.361   4.758
  152SAPE  H19S16815   0.203   2.220   4.854
  152SAPE  C22016816   0.328   2.164   4.690
  152SAPE  H20R16817   0.425   2.175   4.637
  152SAPE  H20S16818   0.248   2.164   4.613
  152SAPE  H20T16819   0.332   2.062   4.733
  152SAPE   C3316820  -0.585   3.591   5.720
  152SAPE   H3X16821  -0.633   3.691   5.705
  152SAPE   H3Y16822  -0.665   3.517   5.743
  152SAPE   C3416823  -0.517   3.548   5.593
  152SAPE   H4X16824  -0.491   3.440   5.595
  152SAPE   H4Y16825  -0.422   3.603   5.576
  152SAPE   C3516826  -0.585   3.572   5.461
  152SAPE   H5X16827  -0.626   3.674   5.448
  152SAPE   H5Y16828  -0.654   3.488   5.436
  152SAPE   C3616829  -0.488   3.559   5.348
  152SAPE   H6X16830  -0.442   3.458   5.355
  152SAPE   H6Y16831  -0.418   3.643   5.363
  152SAPE   C3716832  -0.551   3.572   5.204
  152SAPE   H7X16833  -0.572   3.680   5.191
  152SAPE   H7Y16834  -0.653   3.528   5.206
  152SAPE   C3816835  -0.459   3.509   5.099
  152SAPE   H8X16836  -0.443   3.399   5.103
  152SAPE   H8Y16837  -0.366   3.567   5.119
  152SAPE   C3916838  -0.520   3.544   4.958
  152SAPE   H9X16839  -0.554   3.650   4.958
  152SAPE   H9Y16840  -0.606   3.475   4.946
  152SAPE  C31016841  -0.423   3.526   4.843
  152SAPE  H10X16842  -0.382   3.423   4.841
  152SAPE  H10Y16843  -0.345   3.605   4.850
  152SAPE  C31116844  -0.484   3.557   4.706
  152SAPE  H11X16845  -0.523   3.662   4.706
  152SAPE  H11Y16846  -0.572   3.490   4.699
  152SAPE  C31216847  -0.387   3.518   4.599
  152SAPE  H12X16848  -0.349   3.417   4.626
  152SAPE  H12Y16849  -0.294   3.576   4.617
  152SAPE  C31316850  -0.445   3.536   4.458
  152SAPE  H13X16851  -0.497   3.634   4.463
  152SAPE  H13Y16852  -0.513   3.455   4.425
  152SAPE  C31416853  -0.336   3.546   4.352
  152SAPE  H14X16854  -0.250   3.603   4.393
  152SAPE  H14Y16855  -0.378   3.611   4.272
  152SAPE  C31516856  -0.294   3.420   4.294
  152SAPE  H15X16857  -0.384   3.363   4.264
  152SAPE  H15Y16858  -0.242   3.366   4.376
  152SAPE  C31616859  -0.190   3.435   4.181
  152SAPE  H16X16860  -0.171   3.335   4.136
  152SAPE  H16Y16861  -0.091   3.461   4.223
  152SAPE  C31716862  -0.227   3.527   4.063
  152SAPE  H17X16863  -0.148   3.516   3.986
  152SAPE  H17Y16864  -0.227   3.634   4.095
  152SAPE  C31816865  -0.368   3.509   4.000
  152SAPE  H18X16866  -0.401   3.403   4.004
  152SAPE  H18Y16867  -0.371   3.560   3.902
  152SAPE  H18Z16868  -0.445   3.559   4.062
  153SAPE     N16869   6.414   1.919   6.507
  153SAPE   HN116870   6.442   1.822   6.533
  153SAPE   HN216871   6.502   1.962   6.473
  153SAPE   HN316872   6.367   1.964   6.588
  153SAPE   C1216873   6.312   1.907   6.396
  153SAPE  H12A16874   6.212   1.895   6.444
  153SAPE  H12B16875   6.346   1.828   6.326
  153SAPE   C1116876   6.306   2.047   6.321
  153SAPE  H11A16877   6.232   2.040   6.238
  153SAPE  H11B16878   6.409   2.066   6.284
  153SAPE     P16879   6.131   2.226   6.400
  153SAPE   O1316880   6.021   2.141   6.450
  153SAPE   O1416881   6.131   2.366   6.446
  153SAPE   O1216882   6.273   2.152   6.404
  153SAPE   O1116883   6.103   2.229   6.240
  153SAPE    C116884   6.170   2.331   6.161
  153SAPE    HA16885   6.248   2.388   6.216
  153SAPE    HB16886   6.205   2.281   6.069
  153SAPE    C216887   6.072   2.433   6.089
  153SAPE    HS16888   6.017   2.474   6.177
  153SAPE   O2116889   5.977   2.364   6.002
  153SAPE   C2116890   5.876   2.444   5.957
  153SAPE   O2216891   5.854   2.548   6.010
  153SAPE   C2216892   5.786   2.376   5.861
  153SAPE   H2R16893   5.720   2.315   5.926
  153SAPE   H2S16894   5.724   2.450   5.807
  153SAPE    C316895   6.160   2.542   6.017
  153SAPE    HX16896   6.205   2.609   6.093
  153SAPE    HY16897   6.100   2.612   5.955
  153SAPE   O3116898   6.272   2.484   5.939
  153SAPE   C3116899   6.380   2.563   5.923
  153SAPE   O3216900   6.391   2.674   5.976
  153SAPE   C3216901   6.480   2.485   5.851
  153SAPE   H2X16902   6.423   2.440   5.768
  153SAPE   H2Y16903   6.514   2.400   5.915
  153SAPE   C2316904   5.846   2.279   5.760
  153SAPE   H3R16905   5.762   2.211   5.734
  153SAPE   H3S16906   5.933   2.218   5.795
  153SAPE   C2416907   5.890   2.365   5.633
  153SAPE   H4R16908   5.797   2.421   5.609
  153SAPE   H4S16909   5.914   2.290   5.554
  153SAPE   C2516910   6.016   2.446   5.657
  153SAPE   H5R16911   6.061   2.443   5.758
  153SAPE   C2616912   6.094   2.489   5.561
  153SAPE   H6R16913   6.181   2.547   5.596
  153SAPE   C2716914   6.074   2.489   5.412
  153SAPE   H7R16915   6.139   2.573   5.378
  153SAPE   H7S16916   5.971   2.509   5.376
  153SAPE   C2816917   6.112   2.365   5.346
  153SAPE   H8R16918   6.032   2.292   5.362
  153SAPE   C2916919   6.215   2.337   5.276
  153SAPE   H9R16920   6.216   2.231   5.248
  153SAPE  C21016921   6.335   2.423   5.259
  153SAPE  H10R16922   6.429   2.370   5.285
  153SAPE  H10S16923   6.331   2.513   5.323
  153SAPE  C21116924   6.340   2.480   5.117
  153SAPE  H11R16925   6.281   2.573   5.112
  153SAPE  C21216926   6.404   2.424   5.014
  153SAPE  H12R16927   6.384   2.464   4.913
  153SAPE  C21316928   6.497   2.303   5.018
  153SAPE  H13R16929   6.511   2.254   5.117
  153SAPE  H13S16930   6.596   2.351   5.000
  153SAPE  C21416931   6.471   2.188   4.925
  153SAPE  H14R16932   6.402   2.115   4.970
  153SAPE  C21516933   6.527   2.160   4.810
  153SAPE  H15R16934   6.483   2.082   4.746
  153SAPE  C21616935   6.610   2.252   4.730
  153SAPE  H16R16936   6.707   2.276   4.779
  153SAPE  H16S16937   6.560   2.348   4.706
  153SAPE  C21716938   6.660   2.187   4.594
  153SAPE  H17R16939   6.702   2.085   4.606
  153SAPE  H17S16940   6.738   2.262   4.566
  153SAPE  C21816941   6.553   2.175   4.484
  153SAPE  H18R16942   6.499   2.272   4.472
  153SAPE  H18S16943   6.475   2.107   4.524
  153SAPE  C21916944   6.612   2.120   4.353
  153SAPE  H19R16945   6.532   2.105   4.277
  153SAPE  H19S16946   6.649   2.018   4.378
  153SAPE  C22016947   6.729   2.193   4.299
  153SAPE  H20R16948   6.813   2.155   4.360
  153SAPE  H20S16949   6.716   2.302   4.313
  153SAPE  H20T16950   6.744   2.179   4.190
  153SAPE   C3316951   6.590   2.570   5.794
  153SAPE   H3X16952   6.679   2.513   5.759
  153SAPE   H3Y16953   6.631   2.646   5.863
  153SAPE   C3416954   6.524   2.631   5.662
  153SAPE   H4X16955   6.517   2.741   5.678
  153SAPE   H4Y16956   6.418   2.599   5.650
  153SAPE   C3516957   6.602   2.600   5.536
  153SAPE   H5X16958   6.529   2.618   5.454
  153SAPE   H5Y16959   6.619   2.490   5.537
  153SAPE   C3616960   6.724   2.685   5.511
  153SAPE   H6X16961   6.803   2.635   5.571
  153SAPE   H6Y16962   6.693   2.777   5.566
  153SAPE   C3716963   6.768   2.713   5.363
  153SAPE   H7X16964   6.853   2.786   5.360
  153SAPE   H7Y16965   6.679   2.763   5.319
  153SAPE   C3816966   6.801   2.587   5.292
  153SAPE   H8X16967   6.732   2.501   5.305
  153SAPE   H8Y16968   6.900   2.551   5.327
  153SAPE   C3916969   6.813   2.591   5.140
  153SAPE   H9X16970   6.830   2.485   5.110
  153SAPE   H9Y16971   6.908   2.645   5.122
  153SAPE  C31016972   6.700   2.665   5.075
  153SAPE  H10X16973   6.739   2.769   5.084
  153SAPE  H10Y16974   6.607   2.640   5.131
  153SAPE  C31116975   6.684   2.646   4.925
  153SAPE  H11X16976   6.604   2.716   4.894
  153SAPE  H11Y16977   6.651   2.543   4.900
  153SAPE  C31216978   6.818   2.678   4.856
  153SAPE  H12X16979   6.903   2.608   4.869
  153SAPE  H12Y16980   6.843   2.782   4.885
  153SAPE  C31316981   6.796   2.674   4.703
  153SAPE  H13X16982   6.695   2.716   4.683
  153SAPE  H13Y16983   6.791   2.566   4.678
  153SAPE  C31416984   6.911   2.750   4.624
  153SAPE  H14X16985   7.010   2.699   4.632
  153SAPE  H14Y16986   6.933   2.841   4.684
  153SAPE  C31516987   6.868   2.764   4.482
  153SAPE  H15X16988   6.938   2.826   4.422
  153SAPE  H15Y16989   6.779   2.829   4.469
  153SAPE  C31616990   6.854   2.634   4.398
  153SAPE  H16X16991   6.831   2.665   4.294
  153SAPE  H16Y16992   6.764   2.581   4.436
  153SAPE  C31716993   6.987   2.552   4.401
  153SAPE  H17X16994   6.978   2.473   4.324
  153SAPE  H17Y16995   6.997   2.500   4.499
  153SAPE  C31816996   7.115   2.636   4.374
  153SAPE  H18X16997   7.104   2.688   4.277
  153SAPE  H18Y16998   7.203   2.567   4.374
  153SAPE  H18Z16999   7.139   2.701   4.461
  154SAPE     N17000   4.851   1.009   6.239
  154SAPE   HN117001   4.954   1.023   6.249
  154SAPE   HN217002   4.817   1.017   6.141
  154SAPE   HN317003   4.808   1.089   6.289
  154SAPE   C1217004   4.819   0.865   6.285
  154SAPE  H12A17005   4.810   0.866   6.396
  154SAPE  H12B17006   4.906   0.805   6.254
  154SAPE   C1117007   4.695   0.804   6.227
  154SAPE  H11A17008   4.690   0.703   6.272
  154SAPE  H11B17009   4.697   0.798   6.116
  154SAPE     P17010   4.499   0.847   6.388
  154SAPE   O1317011   4.484   0.704   6.401
  154SAPE   O1417012   4.557   0.919   6.503
  154SAPE   O1217013   4.573   0.881   6.262
  154SAPE   O1117014   4.355   0.916   6.372
  154SAPE    C117015   4.277   0.867   6.265
  154SAPE    HA17016   4.334   0.873   6.170
  154SAPE    HB17017   4.249   0.760   6.276
  154SAPE    C217018   4.140   0.945   6.241
  154SAPE    HS17019   4.175   1.050   6.228
  154SAPE   O2117020   4.042   0.913   6.335
  154SAPE   C2117021   4.062   0.975   6.454
  154SAPE   O2217022   4.137   1.070   6.476
  154SAPE   C2217023   3.961   0.916   6.558
  154SAPE   H2R17024   3.931   1.000   6.624
  154SAPE   H2S17025   3.878   0.881   6.494
  154SAPE    C317026   4.076   0.914   6.107
  154SAPE    HX17027   3.971   0.948   6.118
  154SAPE    HY17028   4.068   0.805   6.093
  154SAPE   O3117029   4.152   0.973   5.999
  154SAPE   C3117030   4.092   1.084   5.944
  154SAPE   O3217031   3.997   1.145   5.988
  154SAPE   C3217032   4.140   1.110   5.799
  154SAPE   H2X17033   4.049   1.080   5.744
  154SAPE   H2Y17034   4.218   1.032   5.785
  154SAPE   C2317035   4.022   0.807   6.645
  154SAPE   H3R17036   3.977   0.793   6.746
  154SAPE   H3S17037   4.131   0.821   6.660
  154SAPE   C2417038   4.004   0.671   6.573
  154SAPE   H4R17039   4.083   0.613   6.625
  154SAPE   H4S17040   4.037   0.687   6.469
  154SAPE   C2517041   3.866   0.607   6.585
  154SAPE   H5R17042   3.838   0.587   6.689
  154SAPE   C2617043   3.778   0.570   6.490
  154SAPE   H6R17044   3.681   0.526   6.517
  154SAPE   C2717045   3.806   0.604   6.343
  154SAPE   H7R17046   3.794   0.511   6.282
  154SAPE   H7S17047   3.910   0.641   6.330
  154SAPE   C2817048   3.700   0.712   6.297
  154SAPE   H8R17049   3.653   0.771   6.376
  154SAPE   C2917050   3.664   0.737   6.172
  154SAPE   H9R17051   3.591   0.819   6.158
  154SAPE  C21017052   3.707   0.646   6.060
  154SAPE  H10R17053   3.707   0.538   6.085
  154SAPE  H10S17054   3.815   0.660   6.037
  154SAPE  C21117055   3.648   0.676   5.923
  154SAPE  H11R17056   3.546   0.645   5.897
  154SAPE  C21217057   3.712   0.736   5.824
  154SAPE  H12R17058   3.673   0.722   5.722
  154SAPE  C21317059   3.854   0.794   5.809
  154SAPE  H13R17060   3.887   0.833   5.908
  154SAPE  H13S17061   3.865   0.882   5.742
  154SAPE  C21417062   3.962   0.691   5.778
  154SAPE  H14R17063   3.989   0.623   5.860
  154SAPE  C21517064   4.051   0.697   5.680
  154SAPE  H15R17065   4.126   0.616   5.680
  154SAPE  C21617066   4.064   0.799   5.569
  154SAPE  H16R17067   4.151   0.866   5.584
  154SAPE  H16S17068   3.971   0.859   5.559
  154SAPE  C21717069   4.081   0.732   5.435
  154SAPE  H17R17070   4.014   0.646   5.413
  154SAPE  H17S17071   4.178   0.677   5.426
  154SAPE  C21817072   4.098   0.839   5.319
  154SAPE  H18R17073   4.183   0.910   5.330
  154SAPE  H18S17074   4.013   0.910   5.328
  154SAPE  C21917075   4.117   0.773   5.183
  154SAPE  H19R17076   4.027   0.711   5.169
  154SAPE  H19S17077   4.207   0.707   5.188
  154SAPE  C22017078   4.137   0.868   5.068
  154SAPE  H20R17079   4.064   0.952   5.067
  154SAPE  H20S17080   4.135   0.810   4.973
  154SAPE  H20T17081   4.234   0.921   5.074
  154SAPE   C3317082   4.198   1.245   5.770
  154SAPE   H3X17083   4.254   1.277   5.860
  154SAPE   H3Y17084   4.114   1.317   5.762
  154SAPE   C3417085   4.252   1.261   5.628
  154SAPE   H4X17086   4.253   1.368   5.598
  154SAPE   H4Y17087   4.196   1.207   5.549
  154SAPE   C3517088   4.395   1.212   5.614
  154SAPE   H5X17089   4.395   1.101   5.617
  154SAPE   H5Y17090   4.450   1.239   5.707
  154SAPE   C3617091   4.469   1.284   5.499
  154SAPE   H6X17092   4.441   1.391   5.511
  154SAPE   H6Y17093   4.426   1.250   5.402
  154SAPE   C3717094   4.624   1.273   5.504
  154SAPE   H7X17095   4.648   1.165   5.512
  154SAPE   H7Y17096   4.667   1.328   5.591
  154SAPE   C3817097   4.688   1.329   5.380
  154SAPE   H8X17098   4.797   1.349   5.389
  154SAPE   H8Y17099   4.642   1.427   5.356
  154SAPE   C3917100   4.686   1.249   5.244
  154SAPE   H9X17101   4.578   1.221   5.238
  154SAPE   H9Y17102   4.737   1.151   5.259
  154SAPE  C31017103   4.722   1.338   5.120
  154SAPE  H10X17104   4.813   1.401   5.130
  154SAPE  H10Y17105   4.629   1.398   5.126
  154SAPE  C31117106   4.728   1.273   4.983
  154SAPE  H11X17107   4.691   1.345   4.906
  154SAPE  H11Y17108   4.646   1.199   4.984
  154SAPE  C31217109   4.867   1.227   4.942
  154SAPE  H12X17110   4.871   1.130   4.996
  154SAPE  H12Y17111   4.939   1.299   4.986
  154SAPE  C31317112   4.887   1.207   4.799
  154SAPE  H13X17113   4.853   1.300   4.748
  154SAPE  H13Y17114   4.815   1.138   4.750
  154SAPE  C31417115   5.031   1.159   4.757
  154SAPE  H14X17116   5.042   1.067   4.818
  154SAPE  H14Y17117   5.109   1.234   4.781
  154SAPE  C31517118   5.047   1.137   4.609
  154SAPE  H15X17119   5.046   1.231   4.551
  154SAPE  H15Y17120   4.956   1.080   4.584
  154SAPE  C31617121   5.174   1.058   4.572
  154SAPE  H16X17122   5.165   0.965   4.633
  154SAPE  H16Y17123   5.247   1.124   4.623
  154SAPE  C31717124   5.191   1.051   4.417
  154SAPE  H17X17125   5.296   1.025   4.393
  154SAPE  H17Y17126   5.175   1.151   4.373
  154SAPE  C31817127   5.093   0.955   4.354
  154SAPE  H18X17128   5.112   0.939   4.246
  154SAPE  H18Y17129   4.988   0.990   4.367
  154SAPE  H18Z17130   5.099   0.861   4.412
  155SAPE     N17131   5.216   1.969   6.971
  155SAPE   HN117132   5.243   2.049   6.910
  155SAPE   HN217133   5.113   1.969   6.954
  155SAPE   HN317134   5.230   1.994   7.071
  155SAPE   C1217135   5.271   1.830   6.942
  155SAPE  H12A17136   5.239   1.756   7.019
  155SAPE  H12B17137   5.381   1.850   6.943
  155SAPE   C1117138   5.227   1.782   6.800
  155SAPE  H11A17139   5.117   1.778   6.810
  155SAPE  H11B17140   5.268   1.681   6.776
  155SAPE     P17141   5.384   1.913   6.622
  155SAPE   O1317142   5.369   2.045   6.563
  155SAPE   O1417143   5.499   1.894   6.716
  155SAPE   O1217144   5.252   1.878   6.699
  155SAPE   O1117145   5.405   1.802   6.509
  155SAPE    C117146   5.295   1.750   6.432
  155SAPE    HA17147   5.246   1.660   6.474
  155SAPE    HB17148   5.219   1.828   6.409
  155SAPE    C217149   5.352   1.691   6.294
  155SAPE    HS17150   5.416   1.605   6.323
  155SAPE   O2117151   5.425   1.798   6.231
  155SAPE   C2117152   5.538   1.773   6.163
  155SAPE   O2217153   5.597   1.666   6.162
  155SAPE   C2217154   5.579   1.905   6.091
  155SAPE   H2R17155   5.553   1.995   6.151
  155SAPE   H2S17156   5.690   1.904   6.085
  155SAPE    C317157   5.235   1.649   6.183
  155SAPE    HX17158   5.185   1.745   6.161
  155SAPE    HY17159   5.151   1.591   6.227
  155SAPE   O3117160   5.282   1.595   6.063
  155SAPE   C3117161   5.285   1.462   6.075
  155SAPE   O3217162   5.244   1.397   6.172
  155SAPE   C3217163   5.349   1.400   5.952
  155SAPE   H2X17164   5.458   1.405   5.970
  155SAPE   H2Y17165   5.327   1.472   5.870
  155SAPE   C2317166   5.501   1.913   5.958
  155SAPE   H3R17167   5.478   2.016   5.925
  155SAPE   H3S17168   5.398   1.876   5.972
  155SAPE   C2417169   5.584   1.852   5.844
  155SAPE   H4R17170   5.594   1.743   5.862
  155SAPE   H4S17171   5.686   1.895   5.856
  155SAPE   C2517172   5.530   1.891   5.708
  155SAPE   H5R17173   5.522   2.000   5.702
  155SAPE   C2617174   5.493   1.810   5.603
  155SAPE   H6R17175   5.466   1.853   5.506
  155SAPE   C2717176   5.496   1.656   5.604
  155SAPE   H7R17177   5.472   1.598   5.696
  155SAPE   H7S17178   5.593   1.614   5.570
  155SAPE   C2817179   5.388   1.613   5.507
  155SAPE   H8R17180   5.295   1.578   5.554
  155SAPE   C2917181   5.390   1.615   5.376
  155SAPE   H9R17182   5.291   1.605   5.328
  155SAPE  C21017183   5.510   1.666   5.290
  155SAPE  H10R17184   5.604   1.617   5.326
  155SAPE  H10S17185   5.510   1.774   5.313
  155SAPE  C21117186   5.486   1.648   5.142
  155SAPE  H11R17187   5.379   1.659   5.117
  155SAPE  C21217188   5.580   1.634   5.047
  155SAPE  H12R17189   5.542   1.631   4.944
  155SAPE  C21317190   5.724   1.633   5.054
  155SAPE  H13R17191   5.755   1.527   5.052
  155SAPE  H13S17192   5.752   1.674   5.154
  155SAPE  C21417193   5.812   1.725   4.964
  155SAPE  H14R17194   5.806   1.830   4.998
  155SAPE  C21517195   5.870   1.692   4.847
  155SAPE  H15R17196   5.939   1.765   4.801
  155SAPE  C21617197   5.865   1.555   4.779
  155SAPE  H16R17198   5.847   1.561   4.670
  155SAPE  H16S17199   5.784   1.492   4.822
  155SAPE  C21717200   5.999   1.474   4.775
  155SAPE  H17R17201   5.968   1.369   4.755
  155SAPE  H17S17202   6.058   1.479   4.869
  155SAPE  C21817203   6.096   1.510   4.659
  155SAPE  H18R17204   6.137   1.612   4.676
  155SAPE  H18S17205   6.042   1.517   4.562
  155SAPE  C21917206   6.205   1.397   4.638
  155SAPE  H19R17207   6.240   1.420   4.535
  155SAPE  H19S17208   6.156   1.297   4.631
  155SAPE  C22017209   6.322   1.392   4.741
  155SAPE  H20R17210   6.385   1.482   4.733
  155SAPE  H20S17211   6.400   1.319   4.712
  155SAPE  H20T17212   6.290   1.367   4.844
  155SAPE   C3317213   5.313   1.258   5.913
  155SAPE   H3X17214   5.205   1.245   5.935
  155SAPE   H3Y17215   5.362   1.192   5.987
  155SAPE   C3417216   5.348   1.221   5.772
  155SAPE   H4X17217   5.367   1.114   5.751
  155SAPE   H4Y17218   5.444   1.272   5.747
  155SAPE   C3517219   5.238   1.265   5.675
  155SAPE   H5X17220   5.200   1.369   5.683
  155SAPE   H5Y17221   5.148   1.202   5.693
  155SAPE   C3617222   5.267   1.244   5.526
  155SAPE   H6X17223   5.294   1.139   5.505
  155SAPE   H6Y17224   5.353   1.309   5.500
  155SAPE   C3717225   5.147   1.286   5.431
  155SAPE   H7X17226   5.137   1.396   5.422
  155SAPE   H7Y17227   5.055   1.252   5.482
  155SAPE   C3817228   5.165   1.229   5.288
  155SAPE   H8X17229   5.080   1.263   5.224
  155SAPE   H8Y17230   5.155   1.118   5.293
  155SAPE   C3917231   5.287   1.275   5.217
  155SAPE   H9X17232   5.375   1.229   5.267
  155SAPE   H9Y17233   5.294   1.384   5.200
  155SAPE  C31017234   5.280   1.209   5.075
  155SAPE  H10X17235   5.184   1.224   5.021
  155SAPE  H10Y17236   5.282   1.098   5.081
  155SAPE  C31117237   5.389   1.276   4.998
  155SAPE  H11X17238   5.480   1.298   5.058
  155SAPE  H11Y17239   5.355   1.366   4.943
  155SAPE  C31217240   5.433   1.193   4.878
  155SAPE  H12X17241   5.354   1.146   4.816
  155SAPE  H12Y17242   5.503   1.114   4.914
  155SAPE  C31317243   5.488   1.288   4.767
  155SAPE  H13X17244   5.562   1.356   4.814
  155SAPE  H13Y17245   5.408   1.352   4.722
  155SAPE  C31417246   5.563   1.219   4.653
  155SAPE  H14X17247   5.479   1.162   4.607
  155SAPE  H14Y17248   5.645   1.161   4.699
  155SAPE  C31517249   5.629   1.316   4.564
  155SAPE  H15X17250   5.735   1.328   4.597
  155SAPE  H15Y17251   5.576   1.413   4.561
  155SAPE  C31617252   5.639   1.275   4.418
  155SAPE  H16X17253   5.670   1.359   4.352
  155SAPE  H16Y17254   5.537   1.237   4.393
  155SAPE  C31717255   5.732   1.152   4.401
  155SAPE  H17X17256   5.713   1.064   4.466
  155SAPE  H17Y17257   5.839   1.178   4.415
  155SAPE  C31817258   5.718   1.095   4.261
  155SAPE  H18X17259   5.768   0.995   4.263
  155SAPE  H18Y17260   5.754   1.172   4.189
  155SAPE  H18Z17261   5.609   1.073   4.254
  156SAPE     N17262   0.356   1.981   6.448
  156SAPE   HN117263   0.381   1.891   6.494
  156SAPE   HN217264   0.355   2.059   6.517
  156SAPE   HN317265   0.260   1.965   6.412
  156SAPE   C1217266   0.438   2.016   6.332
  156SAPE  H12A17267   0.425   1.940   6.251
  156SAPE  H12B17268   0.541   1.997   6.369
  156SAPE   C1117269   0.422   2.161   6.285
  156SAPE  H11A17270   0.330   2.162   6.223
  156SAPE  H11B17271   0.508   2.192   6.222
  156SAPE     P17272   0.476   2.390   6.423
  156SAPE   O1317273   0.365   2.471   6.480
  156SAPE   O1417274   0.593   2.372   6.518
  156SAPE   O1217275   0.411   2.253   6.395
  156SAPE   O1117276   0.515   2.448   6.287
  156SAPE    C117277   0.426   2.508   6.192
  156SAPE    HA17278   0.317   2.491   6.209
  156SAPE    HB17279   0.427   2.619   6.200
  156SAPE    C217280   0.477   2.477   6.047
  156SAPE    HS17281   0.448   2.553   5.971
  156SAPE   O2117282   0.441   2.342   6.018
  156SAPE   C2117283   0.316   2.323   5.984
  156SAPE   O2217284   0.230   2.407   5.990
  156SAPE   C2217285   0.290   2.181   5.925
  156SAPE   H2R17286   0.369   2.168   5.848
  156SAPE   H2S17287   0.300   2.101   6.001
  156SAPE    C317288   0.636   2.470   6.042
  156SAPE    HX17289   0.667   2.387   6.109
  156SAPE    HY17290   0.675   2.568   6.077
  156SAPE   O3117291   0.684   2.444   5.912
  156SAPE   C3117292   0.813   2.407   5.920
  156SAPE   O3217293   0.890   2.423   6.010
  156SAPE   C3217294   0.859   2.345   5.784
  156SAPE   H2X17295   0.903   2.430   5.729
  156SAPE   H2Y17296   0.766   2.317   5.730
  156SAPE   C2317297   0.140   2.161   5.880
  156SAPE   H3R17298   0.068   2.201   5.955
  156SAPE   H3S17299   0.136   2.052   5.860
  156SAPE   C2417300   0.123   2.244   5.749
  156SAPE   H4R17301   0.195   2.194   5.681
  156SAPE   H4S17302   0.145   2.353   5.761
  156SAPE   C2517303  -0.018   2.226   5.701
  156SAPE   H5R17304  -0.087   2.273   5.773
  156SAPE   C2617305  -0.055   2.186   5.579
  156SAPE   H6R17306  -0.160   2.173   5.551
  156SAPE   C2717307   0.040   2.131   5.483
  156SAPE   H7R17308   0.006   2.027   5.463
  156SAPE   H7S17309   0.141   2.108   5.522
  156SAPE   C2817310   0.042   2.215   5.359
  156SAPE   H8R17311   0.067   2.320   5.380
  156SAPE   C2917312   0.017   2.187   5.227
  156SAPE   H9R17313   0.018   2.274   5.159
  156SAPE  C21017314  -0.002   2.047   5.170
  156SAPE  H10R17315  -0.085   2.059   5.097
  156SAPE  H10S17316  -0.046   1.978   5.245
  156SAPE  C21117317   0.117   1.984   5.111
  156SAPE  H11R17318   0.196   1.974   5.186
  156SAPE  C21217319   0.126   1.941   4.983
  156SAPE  H12R17320   0.210   1.877   4.950
  156SAPE  C21317321   0.022   1.949   4.873
  156SAPE  H13R17322  -0.006   2.054   4.847
  156SAPE  H13S17323  -0.069   1.905   4.918
  156SAPE  C21417324   0.056   1.888   4.742
  156SAPE  H14R17325   0.095   1.954   4.663
  156SAPE  C21517326   0.005   1.773   4.681
  156SAPE  H15R17327   0.040   1.743   4.582
  156SAPE  C21617328  -0.092   1.681   4.750
  156SAPE  H16R17329  -0.163   1.639   4.675
  156SAPE  H16S17330  -0.152   1.726   4.832
  156SAPE  C21717331  -0.021   1.561   4.820
  156SAPE  H17R17332   0.032   1.589   4.914
  156SAPE  H17S17333   0.052   1.518   4.748
  156SAPE  C21817334  -0.116   1.453   4.881
  156SAPE  H18R17335  -0.165   1.402   4.795
  156SAPE  H18S17336  -0.193   1.511   4.937
  156SAPE  C21917337  -0.065   1.356   4.981
  156SAPE  H19R17338  -0.044   1.408   5.077
  156SAPE  H19S17339   0.028   1.319   4.933
  156SAPE  C22017340  -0.160   1.237   5.001
  156SAPE  H20R17341  -0.130   1.156   5.072
  156SAPE  H20S17342  -0.158   1.191   4.900
  156SAPE  H20T17343  -0.260   1.267   5.038
  156SAPE   C3317344   0.954   2.231   5.803
  156SAPE   H3X17345   0.935   2.157   5.884
  156SAPE   H3Y17346   1.037   2.280   5.859
  156SAPE   C3417347   1.001   2.171   5.667
  156SAPE   H4X17348   1.080   2.093   5.674
  156SAPE   H4Y17349   1.040   2.260   5.614
  156SAPE   C3517350   0.885   2.110   5.582
  156SAPE   H5X17351   0.798   2.178   5.567
  156SAPE   H5Y17352   0.845   2.028   5.645
  156SAPE   C3617353   0.931   2.060   5.445
  156SAPE   H6X17354   0.852   2.002   5.393
  156SAPE   H6Y17355   1.020   1.995   5.458
  156SAPE   C3717356   0.968   2.174   5.342
  156SAPE   H7X17357   1.048   2.238   5.385
  156SAPE   H7Y17358   0.879   2.240   5.338
  156SAPE   C3817359   1.002   2.128   5.200
  156SAPE   H8X17360   1.037   2.023   5.208
  156SAPE   H8Y17361   1.087   2.183   5.155
  156SAPE   C3917362   0.891   2.141   5.104
  156SAPE   H9X17363   0.882   2.251   5.085
  156SAPE   H9Y17364   0.793   2.115   5.149
  156SAPE  C31017365   0.931   2.063   4.975
  156SAPE  H10X17366   0.950   1.955   4.992
  156SAPE  H10Y17367   1.031   2.106   4.954
  156SAPE  C31117368   0.837   2.072   4.851
  156SAPE  H11X17369   0.733   2.040   4.874
  156SAPE  H11Y17370   0.885   1.998   4.785
  156SAPE  C31217371   0.822   2.212   4.804
  156SAPE  H12X17372   0.921   2.259   4.789
  156SAPE  H12Y17373   0.781   2.279   4.882
  156SAPE  C31317374   0.729   2.236   4.680
  156SAPE  H13X17375   0.735   2.342   4.650
  156SAPE  H13Y17376   0.627   2.202   4.710
  156SAPE  C31417377   0.773   2.148   4.566
  156SAPE  H14X17378   0.731   2.048   4.590
  156SAPE  H14Y17379   0.884   2.148   4.567
  156SAPE  C31517380   0.719   2.200   4.430
  156SAPE  H15X17381   0.624   2.252   4.458
  156SAPE  H15Y17382   0.693   2.114   4.365
  156SAPE  C31617383   0.811   2.303   4.366
  156SAPE  H16X17384   0.914   2.261   4.368
  156SAPE  H16Y17385   0.798   2.394   4.427
  156SAPE  C31717386   0.765   2.340   4.224
  156SAPE  H17X17387   0.824   2.429   4.193
  156SAPE  H17Y17388   0.656   2.363   4.224
  156SAPE  C31817389   0.784   2.233   4.112
  156SAPE  H18X17390   0.754   2.133   4.151
  156SAPE  H18Y17391   0.888   2.227   4.071
  156SAPE  H18Z17392   0.714   2.265   4.032
  157SAPE     N17393   5.613   0.103   6.547
  157SAPE   HN117394   5.538   0.173   6.530
  157SAPE   HN217395   5.565   0.010   6.543
  157SAPE   HN317396   5.669   0.114   6.633
  157SAPE   C1217397   5.699   0.111   6.422
  157SAPE  H12A17398   5.640   0.158   6.341
  157SAPE  H12B17399   5.730   0.012   6.384
  157SAPE   C1117400   5.826   0.190   6.446
  157SAPE  H11A17401   5.813   0.298   6.425
  157SAPE  H11B17402   5.897   0.147   6.372
  157SAPE     P17403   5.960   0.063   6.636
  157SAPE   O1317404   6.079   0.122   6.701
  157SAPE   O1417405   5.866  -0.019   6.717
  157SAPE   O1217406   5.884   0.186   6.576
  157SAPE   O1117407   5.996  -0.032   6.508
  157SAPE    C117408   6.128  -0.048   6.459
  157SAPE    HA17409   6.197  -0.005   6.534
  157SAPE    HB17410   6.141  -0.158   6.447
  157SAPE    C217411   6.165   0.015   6.319
  157SAPE    HS17412   6.273  -0.008   6.309
  157SAPE   O2117413   6.123   0.156   6.306
  157SAPE   C2117414   6.214   0.253   6.313
  157SAPE   O2217415   6.334   0.237   6.329
  157SAPE   C2217416   6.143   0.389   6.308
  157SAPE   H2R17417   6.061   0.390   6.382
  157SAPE   H2S17418   6.215   0.461   6.352
  157SAPE    C317419   6.101  -0.066   6.201
  157SAPE    HX17420   5.996  -0.030   6.203
  157SAPE    HY17421   6.107  -0.177   6.203
  157SAPE   O3117422   6.178  -0.042   6.081
  157SAPE   C3117423   6.128   0.050   5.996
  157SAPE   O3217424   6.021   0.101   6.007
  157SAPE   C3217425   6.230   0.084   5.877
  157SAPE   H2X17426   6.330   0.059   5.919
  157SAPE   H2Y17427   6.210   0.193   5.867
  157SAPE   C2317428   6.098   0.411   6.158
  157SAPE   H3R17429   6.041   0.507   6.160
  157SAPE   H3S17430   6.027   0.331   6.129
  157SAPE   C2417431   6.213   0.430   6.055
  157SAPE   H4R17432   6.178   0.456   5.952
  157SAPE   H4S17433   6.279   0.340   6.058
  157SAPE   C2517434   6.304   0.541   6.095
  157SAPE   H5R17435   6.260   0.599   6.178
  157SAPE   C2617436   6.417   0.588   6.031
  157SAPE   H6R17437   6.461   0.682   6.068
  157SAPE   C2717438   6.477   0.527   5.903
  157SAPE   H7R17439   6.419   0.555   5.813
  157SAPE   H7S17440   6.465   0.416   5.906
  157SAPE   C2817441   6.623   0.569   5.874
  157SAPE   H8R17442   6.687   0.524   5.951
  157SAPE   C2917443   6.671   0.634   5.760
  157SAPE   H9R17444   6.779   0.647   5.744
  157SAPE  C21017445   6.582   0.680   5.650
  157SAPE  H10R17446   6.635   0.760   5.595
  157SAPE  H10S17447   6.496   0.739   5.688
  157SAPE  C21117448   6.528   0.597   5.539
  157SAPE  H11R17449   6.425   0.565   5.561
  157SAPE  C21217450   6.593   0.536   5.438
  157SAPE  H12R17451   6.534   0.482   5.362
  157SAPE  C21317452   6.734   0.562   5.408
  157SAPE  H13R17453   6.763   0.659   5.453
  157SAPE  H13S17454   6.740   0.572   5.298
  157SAPE  C21417455   6.839   0.457   5.429
  157SAPE  H14R17456   6.807   0.374   5.493
  157SAPE  C21517457   6.961   0.442   5.379
  157SAPE  H15R17458   7.004   0.341   5.379
  157SAPE  C21617459   7.018   0.533   5.276
  157SAPE  H16R17460   7.102   0.584   5.327
  157SAPE  H16S17461   6.946   0.614   5.251
  157SAPE  C21717462   7.067   0.466   5.149
  157SAPE  H17R17463   7.117   0.371   5.178
  157SAPE  H17S17464   7.147   0.525   5.100
  157SAPE  C21817465   6.964   0.417   5.047
  157SAPE  H18R17466   6.895   0.501   5.023
  157SAPE  H18S17467   6.899   0.345   5.101
  157SAPE  C21917468   7.015   0.358   4.910
  157SAPE  H19R17469   7.077   0.271   4.939
  157SAPE  H19S17470   7.076   0.430   4.852
  157SAPE  C22017471   6.910   0.310   4.817
  157SAPE  H20R17472   6.829   0.265   4.879
  157SAPE  H20S17473   6.953   0.234   4.748
  157SAPE  H20T17474   6.874   0.387   4.745
  157SAPE   C3317475   6.206   0.024   5.741
  157SAPE   H3X17476   6.246   0.097   5.667
  157SAPE   H3Y17477   6.100   0.006   5.715
  157SAPE   C3417478   6.286  -0.105   5.703
  157SAPE   H4X17479   6.272  -0.174   5.789
  157SAPE   H4Y17480   6.393  -0.080   5.690
  157SAPE   C3517481   6.222  -0.172   5.574
  157SAPE   H5X17482   6.124  -0.211   5.608
  157SAPE   H5Y17483   6.281  -0.265   5.558
  157SAPE   C3617484   6.221  -0.079   5.456
  157SAPE   H6X17485   6.324  -0.039   5.452
  157SAPE   H6Y17486   6.153   0.007   5.474
  157SAPE   C3717487   6.176  -0.148   5.329
  157SAPE   H7X17488   6.068  -0.172   5.344
  157SAPE   H7Y17489   6.233  -0.242   5.341
  157SAPE   C3817490   6.207  -0.076   5.204
  157SAPE   H8X17491   6.315  -0.050   5.199
  157SAPE   H8Y17492   6.160   0.023   5.221
  157SAPE   C3917493   6.150  -0.142   5.079
  157SAPE   H9X17494   6.039  -0.147   5.080
  157SAPE   H9Y17495   6.173  -0.251   5.082
  157SAPE  C31017496   6.192  -0.068   4.960
  157SAPE  H10X17497   6.302  -0.081   4.952
  157SAPE  H10Y17498   6.181   0.042   4.965
  157SAPE  C31117499   6.136  -0.131   4.828
  157SAPE  H11X17500   6.026  -0.119   4.824
  157SAPE  H11Y17501   6.167  -0.238   4.834
  157SAPE  C31217502   6.197  -0.062   4.705
  157SAPE  H12X17503   6.181  -0.113   4.608
  157SAPE  H12Y17504   6.307  -0.063   4.721
  157SAPE  C31317505   6.154   0.085   4.696
  157SAPE  H13X17506   6.200   0.128   4.787
  157SAPE  H13Y17507   6.044   0.088   4.708
  157SAPE  C31417508   6.198   0.162   4.568
  157SAPE  H14X17509   6.180   0.270   4.583
  157SAPE  H14Y17510   6.141   0.134   4.477
  157SAPE  C31517511   6.345   0.139   4.537
  157SAPE  H15X17512   6.365   0.032   4.514
  157SAPE  H15Y17513   6.400   0.161   4.631
  157SAPE  C31617514   6.405   0.237   4.428
  157SAPE  H16X17515   6.400   0.334   4.482
  157SAPE  H16Y17516   6.333   0.241   4.345
  157SAPE  C31717517   6.550   0.210   4.380
  157SAPE  H17X17518   6.541   0.116   4.322
  157SAPE  H17Y17519   6.615   0.199   4.470
  157SAPE  C31817520   6.603   0.321   4.279
  157SAPE  H18X17521   6.523   0.335   4.203
  157SAPE  H18Y17522   6.702   0.294   4.236
  157SAPE  H18Z17523   6.610   0.410   4.345
  158SAPE     N17524   3.152   5.848   6.942
  158SAPE   HN117525   3.177   5.776   7.012
  158SAPE   HN217526   3.229   5.869   6.874
  158SAPE   HN317527   3.132   5.933   6.998
  158SAPE   C1217528   3.021   5.838   6.871
  158SAPE  H12A17529   3.016   5.914   6.790
  158SAPE  H12B17530   2.940   5.863   6.943
  158SAPE   C1117531   2.995   5.704   6.801
  158SAPE  H11A17532   2.991   5.630   6.884
  158SAPE  H11B17533   3.086   5.685   6.741
  158SAPE     P17534   2.736   5.693   6.816
  158SAPE   O1317535   2.734   5.564   6.885
  158SAPE   O1417536   2.706   5.809   6.898
  158SAPE   O1217537   2.873   5.703   6.733
  158SAPE   O1117538   2.622   5.694   6.703
  158SAPE    C117539   2.659   5.623   6.579
  158SAPE    HA17540   2.747   5.671   6.531
  158SAPE    HB17541   2.680   5.516   6.602
  158SAPE    C217542   2.538   5.614   6.485
  158SAPE    HS17543   2.563   5.546   6.401
  158SAPE   O2117544   2.486   5.745   6.435
  158SAPE   C2117545   2.510   5.767   6.309
  158SAPE   O2217546   2.582   5.700   6.235
  158SAPE   C2217547   2.411   5.874   6.267
  158SAPE   H2R17548   2.314   5.849   6.315
  158SAPE   H2S17549   2.462   5.966   6.300
  158SAPE    C317550   2.414   5.553   6.555
  158SAPE    HX17551   2.389   5.619   6.641
  158SAPE    HY17552   2.439   5.457   6.603
  158SAPE   O3117553   2.301   5.551   6.469
  158SAPE   C3117554   2.274   5.429   6.414
  158SAPE   O3217555   2.345   5.330   6.427
  158SAPE   C3217556   2.141   5.431   6.343
  158SAPE   H2X17557   2.092   5.531   6.340
  158SAPE   H2Y17558   2.065   5.379   6.406
  158SAPE   C2317559   2.389   5.891   6.111
  158SAPE   H3R17560   2.368   5.791   6.067
  158SAPE   H3S17561   2.472   5.927   6.047
  158SAPE   C2417562   2.274   5.988   6.067
  158SAPE   H4R17563   2.294   5.976   5.959
  158SAPE   H4S17564   2.286   6.096   6.087
  158SAPE   C2517565   2.130   5.940   6.098
  158SAPE   H5R17566   2.078   5.968   6.191
  158SAPE   C2617567   2.062   5.855   6.019
  158SAPE   H6R17568   1.969   5.822   6.068
  158SAPE   C2717569   2.105   5.786   5.897
  158SAPE   H7R17570   2.096   5.675   5.907
  158SAPE   H7S17571   2.213   5.793   5.874
  158SAPE   C2817572   2.026   5.827   5.777
  158SAPE   H8R17573   1.918   5.838   5.795
  158SAPE   C2917574   2.079   5.851   5.655
  158SAPE   H9R17575   2.015   5.883   5.572
  158SAPE  C21017576   2.226   5.840   5.609
  158SAPE  H10R17577   2.222   5.791   5.509
  158SAPE  H10S17578   2.279   5.764   5.670
  158SAPE  C21117579   2.313   5.959   5.620
  158SAPE  H11R17580   2.347   5.989   5.720
  158SAPE  C21217581   2.348   6.029   5.513
  158SAPE  H12R17582   2.412   6.116   5.533
  158SAPE  C21317583   2.311   5.990   5.368
  158SAPE  H13R17584   2.200   5.979   5.368
  158SAPE  H13S17585   2.342   5.888   5.339
  158SAPE  C21417586   2.364   6.096   5.268
  158SAPE  H14R17587   2.426   6.178   5.308
  158SAPE  C21517588   2.339   6.091   5.135
  158SAPE  H15R17589   2.390   6.169   5.077
  158SAPE  C21617590   2.265   5.984   5.058
  158SAPE  H16R17591   2.251   5.896   5.124
  158SAPE  H16S17592   2.317   5.953   4.965
  158SAPE  C21717593   2.131   6.042   5.032
  158SAPE  H17R17594   2.080   6.082   5.123
  158SAPE  H17S17595   2.074   5.957   4.988
  158SAPE  C21817596   2.120   6.150   4.926
  158SAPE  H18R17597   2.182   6.123   4.838
  158SAPE  H18S17598   2.170   6.240   4.968
  158SAPE  C21917599   1.978   6.171   4.879
  158SAPE  H19R17600   1.917   6.171   4.972
  158SAPE  H19S17601   1.956   6.095   4.801
  158SAPE  C22017602   1.955   6.310   4.819
  158SAPE  H20R17603   1.984   6.391   4.889
  158SAPE  H20S17604   1.846   6.321   4.800
  158SAPE  H20T17605   2.007   6.324   4.722
  158SAPE   C3317606   2.158   5.366   6.206
  158SAPE   H3X17607   2.057   5.374   6.161
  158SAPE   H3Y17608   2.192   5.261   6.200
  158SAPE   C3417609   2.257   5.447   6.110
  158SAPE   H4X17610   2.361   5.433   6.146
  158SAPE   H4Y17611   2.236   5.555   6.118
  158SAPE   C3517612   2.237   5.394   5.969
  158SAPE   H5X17613   2.133   5.416   5.939
  158SAPE   H5Y17614   2.237   5.282   5.966
  158SAPE   C3617615   2.340   5.448   5.871
  158SAPE   H6X17616   2.443   5.416   5.898
  158SAPE   H6Y17617   2.334   5.559   5.860
  158SAPE   C3717618   2.308   5.387   5.728
  158SAPE   H7X17619   2.199   5.404   5.713
  158SAPE   H7Y17620   2.321   5.277   5.721
  158SAPE   C3817621   2.383   5.455   5.613
  158SAPE   H8X17622   2.479   5.400   5.620
  158SAPE   H8Y17623   2.394   5.565   5.628
  158SAPE   C3917624   2.308   5.425   5.478
  158SAPE   H9X17625   2.208   5.472   5.484
  158SAPE   H9Y17626   2.291   5.317   5.459
  158SAPE  C31017627   2.380   5.484   5.359
  158SAPE  H10X17628   2.484   5.450   5.346
  158SAPE  H10Y17629   2.397   5.594   5.367
  158SAPE  C31117630   2.301   5.476   5.230
  158SAPE  H11X17631   2.195   5.494   5.256
  158SAPE  H11Y17632   2.319   5.367   5.220
  158SAPE  C31217633   2.355   5.564   5.116
  158SAPE  H12X17634   2.466   5.551   5.113
  158SAPE  H12Y17635   2.345   5.670   5.147
  158SAPE  C31317636   2.297   5.552   4.977
  158SAPE  H13X17637   2.188   5.568   4.994
  158SAPE  H13Y17638   2.307   5.451   4.931
  158SAPE  C31417639   2.366   5.655   4.879
  158SAPE  H14X17640   2.473   5.624   4.870
  158SAPE  H14Y17641   2.361   5.758   4.920
  158SAPE  C31517642   2.298   5.669   4.741
  158SAPE  H15X17643   2.190   5.646   4.757
  158SAPE  H15Y17644   2.330   5.584   4.676
  158SAPE  C31617645   2.314   5.813   4.685
  158SAPE  H16X17646   2.421   5.843   4.681
  158SAPE  H16Y17647   2.265   5.880   4.759
  158SAPE  C31717648   2.238   5.828   4.555
  158SAPE  H17X17649   2.217   5.935   4.533
  158SAPE  H17Y17650   2.139   5.777   4.556
  158SAPE  C31817651   2.315   5.772   4.431
  158SAPE  H18X17652   2.409   5.827   4.412
  158SAPE  H18Y17653   2.249   5.758   4.343
  158SAPE  H18Z17654   2.340   5.667   4.455
  159SAPE     N17655   5.492   3.856   2.057
  159SAPE   HN117656   5.499   3.919   2.140
  159SAPE   HN217657   5.524   3.763   2.090
  159SAPE   HN317658   5.561   3.897   1.991
  159SAPE   C1217659   5.352   3.846   2.001
  159SAPE  H12A17660   5.366   3.786   1.909
  159SAPE  H12B17661   5.311   3.947   1.979
  159SAPE   C1117662   5.253   3.783   2.100
  159SAPE  H11A17663   5.152   3.792   2.056
  159SAPE  H11B17664   5.242   3.852   2.186
  159SAPE     P17665   5.233   3.515   2.089
  159SAPE   O1317666   5.119   3.551   1.997
  159SAPE   O1417667   5.338   3.440   2.012
  159SAPE   O1217668   5.292   3.650   2.154
  159SAPE   O1117669   5.176   3.430   2.210
  159SAPE    C117670   5.254   3.384   2.324
  159SAPE    HA17671   5.261   3.273   2.320
  159SAPE    HB17672   5.360   3.416   2.328
  159SAPE    C217673   5.183   3.414   2.462
  159SAPE    HS17674   5.092   3.350   2.467
  159SAPE   O2117675   5.151   3.551   2.463
  159SAPE   C2117676   5.027   3.583   2.434
  159SAPE   O2217677   4.947   3.504   2.389
  159SAPE   C2217678   5.000   3.733   2.442
  159SAPE   H2R17679   5.091   3.784   2.478
  159SAPE   H2S17680   4.981   3.776   2.341
  159SAPE    C317681   5.286   3.399   2.573
  159SAPE    HX17682   5.366   3.476   2.562
  159SAPE    HY17683   5.342   3.307   2.541
  159SAPE   O3117684   5.242   3.402   2.707
  159SAPE   C3117685   5.146   3.332   2.747
  159SAPE   O3217686   5.074   3.254   2.691
  159SAPE   C3217687   5.121   3.372   2.894
  159SAPE   H2X17688   5.037   3.444   2.892
  159SAPE   H2Y17689   5.212   3.412   2.944
  159SAPE   C2317690   4.880   3.752   2.537
  159SAPE   H3R17691   4.916   3.714   2.635
  159SAPE   H3S17692   4.789   3.698   2.502
  159SAPE   C2417693   4.849   3.904   2.559
  159SAPE   H4R17694   4.843   3.957   2.461
  159SAPE   H4S17695   4.935   3.948   2.613
  159SAPE   C2517696   4.730   3.924   2.649
  159SAPE   H5R17697   4.634   3.889   2.608
  159SAPE   C2617698   4.717   3.956   2.781
  159SAPE   H6R17699   4.611   3.961   2.808
  159SAPE   C2717700   4.825   3.996   2.877
  159SAPE   H7R17701   4.797   4.088   2.932
  159SAPE   H7S17702   4.914   4.036   2.824
  159SAPE   C2817703   4.874   3.904   2.985
  159SAPE   H8R17704   4.962   3.848   2.950
  159SAPE   C2917705   4.817   3.867   3.106
  159SAPE   H9R17706   4.866   3.790   3.167
  159SAPE  C21017707   4.689   3.917   3.165
  159SAPE  H10R17708   4.651   3.839   3.235
  159SAPE  H10S17709   4.614   3.919   3.084
  159SAPE  C21117710   4.708   4.054   3.231
  159SAPE  H11R17711   4.655   4.131   3.173
  159SAPE  C21217712   4.752   4.068   3.352
  159SAPE  H12R17713   4.757   4.165   3.405
  159SAPE  C21317714   4.818   3.967   3.444
  159SAPE  H13R17715   4.854   3.882   3.383
  159SAPE  H13S17716   4.734   3.916   3.497
  159SAPE  C21417717   4.940   4.007   3.530
  159SAPE  H14R17718   5.031   3.947   3.517
  159SAPE  C21517719   4.942   4.076   3.643
  159SAPE  H15R17720   5.037   4.081   3.698
  159SAPE  C21617721   4.823   4.141   3.716
  159SAPE  H16R17722   4.730   4.124   3.659
  159SAPE  H16S17723   4.859   4.245   3.735
  159SAPE  C21717724   4.807   4.095   3.865
  159SAPE  H17R17725   4.776   3.989   3.856
  159SAPE  H17S17726   4.729   4.164   3.905
  159SAPE  C21817727   4.933   4.100   3.956
  159SAPE  H18R17728   4.976   4.199   3.929
  159SAPE  H18S17729   5.006   4.019   3.936
  159SAPE  C21917730   4.893   4.105   4.100
  159SAPE  H19R17731   4.851   4.005   4.125
  159SAPE  H19S17732   4.816   4.184   4.109
  159SAPE  C22017733   5.016   4.126   4.200
  159SAPE  H20R17734   4.978   4.193   4.280
  159SAPE  H20S17735   5.094   4.179   4.142
  159SAPE  H20T17736   5.064   4.037   4.247
  159SAPE   C3317737   5.063   3.260   2.980
  159SAPE   H3X17738   5.134   3.174   2.977
  159SAPE   H3Y17739   4.968   3.227   2.934
  159SAPE   C3417740   5.051   3.309   3.117
  159SAPE   H4X17741   4.990   3.402   3.124
  159SAPE   H4Y17742   5.155   3.344   3.133
  159SAPE   C3517743   5.008   3.205   3.219
  159SAPE   H5X17744   5.065   3.110   3.213
  159SAPE   H5Y17745   4.904   3.168   3.204
  159SAPE   C3617746   5.035   3.245   3.366
  159SAPE   H6X17747   5.146   3.253   3.379
  159SAPE   H6Y17748   5.002   3.167   3.437
  159SAPE   C3717749   4.954   3.375   3.412
  159SAPE   H7X17750   4.845   3.358   3.395
  159SAPE   H7Y17751   4.996   3.454   3.346
  159SAPE   C3817752   4.983   3.401   3.559
  159SAPE   H8X17753   5.075   3.463   3.568
  159SAPE   H8Y17754   5.000   3.306   3.614
  159SAPE   C3917755   4.873   3.482   3.637
  159SAPE   H9X17756   4.785   3.414   3.644
  159SAPE   H9Y17757   4.861   3.571   3.572
  159SAPE  C31017758   4.923   3.509   3.777
  159SAPE  H10X17759   5.028   3.542   3.760
  159SAPE  H10Y17760   4.925   3.417   3.838
  159SAPE  C31117761   4.854   3.627   3.851
  159SAPE  H11X17762   4.760   3.593   3.899
  159SAPE  H11Y17763   4.825   3.697   3.770
  159SAPE  C31217764   4.951   3.702   3.951
  159SAPE  H12X17765   4.897   3.784   4.003
  159SAPE  H12Y17766   5.036   3.751   3.901
  159SAPE  C31317767   5.024   3.604   4.043
  159SAPE  H13X17768   5.083   3.662   4.118
  159SAPE  H13Y17769   5.085   3.532   3.984
  159SAPE  C31417770   4.939   3.527   4.143
  159SAPE  H14X17771   4.860   3.467   4.092
  159SAPE  H14Y17772   4.876   3.594   4.205
  159SAPE  C31517773   5.028   3.432   4.228
  159SAPE  H15X17774   4.960   3.380   4.299
  159SAPE  H15Y17775   5.096   3.500   4.284
  159SAPE  C31617776   5.108   3.333   4.141
  159SAPE  H16X17777   5.214   3.365   4.132
  159SAPE  H16Y17778   5.059   3.330   4.042
  159SAPE  C31717779   5.102   3.200   4.209
  159SAPE  H17X17780   4.998   3.163   4.208
  159SAPE  H17Y17781   5.140   3.207   4.313
  159SAPE  C31817782   5.189   3.104   4.136
  159SAPE  H18X17783   5.180   3.008   4.190
  159SAPE  H18Y17784   5.299   3.121   4.139
  159SAPE  H18Z17785   5.153   3.087   4.032
  160SAPE     N17786   4.898   1.917   2.232
  160SAPE   HN117787   4.853   2.010   2.247
  160SAPE   HN217788   4.961   1.911   2.315
  160SAPE   HN317789   4.953   1.937   2.146
  160SAPE   C1217790   4.803   1.793   2.223
  160SAPE  H12A17791   4.855   1.700   2.254
  160SAPE  H12B17792   4.775   1.776   2.116
  160SAPE   C1117793   4.674   1.812   2.305
  160SAPE  H11A17794   4.700   1.809   2.413
  160SAPE  H11B17795   4.600   1.734   2.276
  160SAPE     P17796   4.465   1.957   2.242
  160SAPE   O1317797   4.428   2.092   2.192
  160SAPE   O1417798   4.428   1.841   2.156
  160SAPE   O1217799   4.620   1.943   2.269
  160SAPE   O1117800   4.401   1.935   2.381
  160SAPE    C117801   4.375   2.043   2.466
  160SAPE    HA17802   4.328   2.129   2.414
  160SAPE    HB17803   4.296   2.008   2.536
  160SAPE    C217804   4.495   2.091   2.544
  160SAPE    HS17805   4.571   2.134   2.475
  160SAPE   O2117806   4.550   1.989   2.624
  160SAPE   C2117807   4.675   2.022   2.666
  160SAPE   O2217808   4.731   2.127   2.643
  160SAPE   C2217809   4.730   1.901   2.747
  160SAPE   H2R17810   4.673   1.895   2.842
  160SAPE   H2S17811   4.721   1.816   2.675
  160SAPE    C317812   4.449   2.214   2.632
  160SAPE    HX17813   4.410   2.290   2.561
  160SAPE    HY17814   4.529   2.257   2.695
  160SAPE   O3117815   4.326   2.183   2.711
  160SAPE   C3117816   4.345   2.156   2.839
  160SAPE   O3217817   4.449   2.165   2.900
  160SAPE   C3217818   4.212   2.129   2.902
  160SAPE   H2X17819   4.175   2.044   2.842
  160SAPE   H2Y17820   4.150   2.215   2.870
  160SAPE   C2317821   4.886   1.917   2.783
  160SAPE   H3R17822   4.911   2.004   2.846
  160SAPE   H3S17823   4.939   1.921   2.686
  160SAPE   C2417824   4.956   1.802   2.853
  160SAPE   H4R17825   5.053   1.851   2.876
  160SAPE   H4S17826   4.969   1.726   2.773
  160SAPE   C2517827   4.899   1.739   2.975
  160SAPE   H5R17828   4.812   1.673   2.960
  160SAPE   C2617829   4.936   1.760   3.103
  160SAPE   H6R17830   4.884   1.703   3.182
  160SAPE   C2717831   5.032   1.857   3.155
  160SAPE   H7R17832   4.971   1.934   3.207
  160SAPE   H7S17833   5.090   1.906   3.074
  160SAPE   C2817834   5.123   1.790   3.249
  160SAPE   H8R17835   5.173   1.699   3.213
  160SAPE   C2917836   5.154   1.829   3.380
  160SAPE   H9R17837   5.226   1.774   3.441
  160SAPE  C21017838   5.095   1.942   3.457
  160SAPE  H10R17839   5.013   1.995   3.404
  160SAPE  H10S17840   5.172   2.021   3.469
  160SAPE  C21117841   5.026   1.890   3.581
  160SAPE  H11R17842   5.005   1.783   3.591
  160SAPE  C21217843   5.006   1.967   3.692
  160SAPE  H12R17844   4.955   1.921   3.778
  160SAPE  C21317845   5.032   2.118   3.701
  160SAPE  H13R17846   5.086   2.156   3.611
  160SAPE  H13S17847   5.097   2.152   3.785
  160SAPE  C21417848   4.902   2.191   3.716
  160SAPE  H14R17849   4.809   2.137   3.696
  160SAPE  C21517850   4.891   2.313   3.771
  160SAPE  H15R17851   4.794   2.364   3.763
  160SAPE  C21617852   4.986   2.414   3.827
  160SAPE  H16R17853   4.983   2.513   3.776
  160SAPE  H16S17854   5.091   2.381   3.811
  160SAPE  C21717855   4.973   2.424   3.975
  160SAPE  H17R17856   5.065   2.478   4.006
  160SAPE  H17S17857   4.978   2.326   4.026
  160SAPE  C21817858   4.842   2.498   4.035
  160SAPE  H18R17859   4.756   2.430   4.021
  160SAPE  H18S17860   4.814   2.595   3.990
  160SAPE  C21917861   4.849   2.509   4.188
  160SAPE  H19R17862   4.749   2.541   4.223
  160SAPE  H19S17863   4.910   2.598   4.216
  160SAPE  C22017864   4.884   2.386   4.266
  160SAPE  H20R17865   4.805   2.310   4.247
  160SAPE  H20S17866   4.895   2.427   4.369
  160SAPE  H20T17867   4.979   2.347   4.223
  160SAPE   C3317868   4.207   2.091   3.055
  160SAPE   H3X17869   4.247   2.177   3.113
  160SAPE   H3Y17870   4.262   1.996   3.069
  160SAPE   C3417871   4.064   2.074   3.113
  160SAPE   H4X17872   4.021   1.981   3.068
  160SAPE   H4Y17873   4.001   2.162   3.087
  160SAPE   C3517874   4.074   2.059   3.269
  160SAPE   H5X17875   4.135   2.144   3.304
  160SAPE   H5Y17876   4.136   1.973   3.304
  160SAPE   C3617877   3.940   2.065   3.345
  160SAPE   H6X17878   3.886   1.977   3.304
  160SAPE   H6Y17879   3.893   2.160   3.312
  160SAPE   C3717880   3.955   2.066   3.497
  160SAPE   H7X17881   3.851   2.075   3.535
  160SAPE   H7Y17882   4.019   2.155   3.514
  160SAPE   C3817883   4.029   1.952   3.563
  160SAPE   H8X17884   4.121   1.920   3.510
  160SAPE   H8Y17885   3.955   1.869   3.560
  160SAPE   C3917886   4.079   1.982   3.706
  160SAPE   H9X17887   4.183   2.021   3.711
  160SAPE   H9Y17888   4.090   1.881   3.748
  160SAPE  C31017889   3.984   2.050   3.797
  160SAPE  H10X17890   3.895   1.984   3.802
  160SAPE  H10Y17891   3.951   2.148   3.757
  160SAPE  C31117892   4.022   2.050   3.951
  160SAPE  H11X17893   4.111   2.117   3.956
  160SAPE  H11Y17894   4.067   1.953   3.981
  160SAPE  C31217895   3.909   2.100   4.046
  160SAPE  H12X17896   3.814   2.049   4.020
  160SAPE  H12Y17897   3.892   2.208   4.028
  160SAPE  C31317898   3.947   2.090   4.194
  160SAPE  H13X17899   3.873   2.160   4.236
  160SAPE  H13Y17900   4.052   2.123   4.206
  160SAPE  C31417901   3.938   1.937   4.232
  160SAPE  H14X17902   4.038   1.893   4.210
  160SAPE  H14Y17903   3.869   1.889   4.159
  160SAPE  C31517904   3.902   1.910   4.381
  160SAPE  H15X17905   3.980   1.952   4.447
  160SAPE  H15Y17906   3.899   1.802   4.406
  160SAPE  C31617907   3.761   1.961   4.418
  160SAPE  H16X17908   3.681   1.957   4.341
  160SAPE  H16Y17909   3.782   2.070   4.424
  160SAPE  C31717910   3.720   1.917   4.560
  160SAPE  H17X17911   3.811   1.917   4.623
  160SAPE  H17Y17912   3.690   1.812   4.535
  160SAPE  C31817913   3.623   2.005   4.632
  160SAPE  H18X17914   3.651   2.113   4.636
  160SAPE  H18Y17915   3.610   1.975   4.739
  160SAPE  H18Z17916   3.521   1.999   4.589
  161SAPE     N17917   4.034   5.380   1.961
  161SAPE   HN117918   3.989   5.392   1.868
  161SAPE   HN217919   4.058   5.475   1.995
  161SAPE   HN317920   4.127   5.334   1.948
  161SAPE   C1217921   3.936   5.323   2.066
  161SAPE  H12A17922   3.989   5.304   2.162
  161SAPE  H12B17923   3.905   5.222   2.033
  161SAPE   C1117924   3.809   5.412   2.096
  161SAPE  H11A17925   3.770   5.377   2.194
  161SAPE  H11B17926   3.739   5.393   2.012
  161SAPE     P17927   3.742   5.655   2.169
  161SAPE   O1317928   3.828   5.777   2.184
  161SAPE   O1417929   3.620   5.667   2.094
  161SAPE   O1217930   3.827   5.547   2.091
  161SAPE   O1117931   3.727   5.595   2.311
  161SAPE    C117932   3.615   5.521   2.357
  161SAPE    HA17933   3.568   5.441   2.297
  161SAPE    HB17934   3.641   5.463   2.448
  161SAPE    C217935   3.502   5.615   2.410
  161SAPE    HS17936   3.498   5.678   2.319
  161SAPE   O2117937   3.551   5.699   2.516
  161SAPE   C2117938   3.493   5.820   2.529
  161SAPE   O2217939   3.412   5.865   2.461
  161SAPE   C2217940   3.551   5.898   2.644
  161SAPE   H2R17941   3.626   5.843   2.704
  161SAPE   H2S17942   3.608   5.982   2.599
  161SAPE    C317943   3.364   5.547   2.441
  161SAPE    HX17944   3.354   5.468   2.363
  161SAPE    HY17945   3.279   5.616   2.419
  161SAPE   O3117946   3.349   5.500   2.576
  161SAPE   C3117947   3.361   5.376   2.597
  161SAPE   O3217948   3.394   5.287   2.522
  161SAPE   C3217949   3.311   5.349   2.744
  161SAPE   H2X17950   3.202   5.365   2.737
  161SAPE   H2Y17951   3.353   5.433   2.803
  161SAPE   C2317952   3.452   5.962   2.745
  161SAPE   H3R17953   3.381   6.026   2.687
  161SAPE   H3S17954   3.514   6.026   2.811
  161SAPE   C2417955   3.368   5.861   2.823
  161SAPE   H4R17956   3.438   5.782   2.857
  161SAPE   H4S17957   3.299   5.807   2.756
  161SAPE   C2517958   3.281   5.930   2.932
  161SAPE   H5R17959   3.182   5.967   2.903
  161SAPE   C2617960   3.322   5.943   3.059
  161SAPE   H6R17961   3.249   5.981   3.132
  161SAPE   C2717962   3.453   5.904   3.124
  161SAPE   H7R17963   3.484   5.997   3.175
  161SAPE   H7S17964   3.533   5.890   3.049
  161SAPE   C2817965   3.448   5.791   3.225
  161SAPE   H8R17966   3.473   5.690   3.188
  161SAPE   C2917967   3.422   5.798   3.357
  161SAPE   H9R17968   3.418   5.708   3.420
  161SAPE  C21017969   3.398   5.917   3.447
  161SAPE  H10R17970   3.296   5.916   3.490
  161SAPE  H10S17971   3.407   6.018   3.401
  161SAPE  C21117972   3.491   5.910   3.563
  161SAPE  H11R17973   3.596   5.943   3.555
  161SAPE  C21217974   3.459   5.869   3.687
  161SAPE  H12R17975   3.528   5.882   3.771
  161SAPE  C21317976   3.327   5.821   3.740
  161SAPE  H13R17977   3.255   5.804   3.656
  161SAPE  H13S17978   3.277   5.895   3.807
  161SAPE  C21417979   3.344   5.689   3.806
  161SAPE  H14R17980   3.319   5.608   3.736
  161SAPE  C21517981   3.349   5.668   3.934
  161SAPE  H15R17982   3.339   5.565   3.969
  161SAPE  C21617983   3.355   5.772   4.049
  161SAPE  H16R17984   3.411   5.718   4.128
  161SAPE  H16S17985   3.259   5.796   4.098
  161SAPE  C21717986   3.433   5.905   4.035
  161SAPE  H17R17987   3.362   5.976   3.988
  161SAPE  H17S17988   3.516   5.901   3.960
  161SAPE  C21817989   3.485   5.965   4.169
  161SAPE  H18R17990   3.563   5.899   4.215
  161SAPE  H18S17991   3.404   5.965   4.246
  161SAPE  C21917992   3.549   6.098   4.130
  161SAPE  H19R17993   3.492   6.154   4.053
  161SAPE  H19S17994   3.649   6.081   4.085
  161SAPE  C22017995   3.558   6.186   4.249
  161SAPE  H20R17996   3.626   6.270   4.221
  161SAPE  H20S17997   3.608   6.134   4.333
  161SAPE  H20T17998   3.456   6.227   4.265
  161SAPE   C3317999   3.372   5.210   2.794
  161SAPE   H3X18000   3.482   5.221   2.783
  161SAPE   H3Y18001   3.338   5.137   2.717
  161SAPE   C3418002   3.321   5.145   2.918
  161SAPE   H4X18003   3.344   5.037   2.935
  161SAPE   H4Y18004   3.211   5.149   2.912
  161SAPE   C3518005   3.352   5.220   3.051
  161SAPE   H5X18006   3.312   5.324   3.051
  161SAPE   H5Y18007   3.456   5.211   3.089
  161SAPE   C3618008   3.265   5.147   3.148
  161SAPE   H6X18009   3.268   5.040   3.119
  161SAPE   H6Y18010   3.163   5.188   3.132
  161SAPE   C3718011   3.311   5.150   3.290
  161SAPE   H7X18012   3.421   5.148   3.296
  161SAPE   H7Y18013   3.264   5.072   3.354
  161SAPE   C3818014   3.267   5.276   3.369
  161SAPE   H8X18015   3.158   5.275   3.392
  161SAPE   H8Y18016   3.286   5.361   3.300
  161SAPE   C3918017   3.347   5.305   3.498
  161SAPE   H9X18018   3.342   5.415   3.513
  161SAPE   H9Y18019   3.454   5.279   3.491
  161SAPE  C31018020   3.288   5.230   3.621
  161SAPE  H10X18021   3.293   5.122   3.597
  161SAPE  H10Y18022   3.180   5.255   3.632
  161SAPE  C31118023   3.355   5.265   3.752
  161SAPE  H11X18024   3.341   5.374   3.766
  161SAPE  H11Y18025   3.465   5.248   3.743
  161SAPE  C31218026   3.306   5.167   3.861
  161SAPE  H12X18027   3.345   5.068   3.828
  161SAPE  H12Y18028   3.198   5.142   3.855
  161SAPE  C31318029   3.352   5.209   4.004
  161SAPE  H13X18030   3.284   5.293   4.028
  161SAPE  H13Y18031   3.458   5.241   4.009
  161SAPE  C31418032   3.340   5.113   4.118
  161SAPE  H14X18033   3.399   5.022   4.094
  161SAPE  H14Y18034   3.233   5.087   4.134
  161SAPE  C31518035   3.391   5.151   4.260
  161SAPE  H15X18036   3.334   5.238   4.300
  161SAPE  H15Y18037   3.495   5.188   4.250
  161SAPE  C31618038   3.379   5.030   4.347
  161SAPE  H16X18039   3.449   4.956   4.304
  161SAPE  H16Y18040   3.273   4.999   4.351
  161SAPE  C31718041   3.438   5.052   4.491
  161SAPE  H17X18042   3.374   5.132   4.535
  161SAPE  H17Y18043   3.541   5.094   4.493
  161SAPE  C31818044   3.421   4.930   4.573
  161SAPE  H18X18045   3.461   4.850   4.507
  161SAPE  H18Y18046   3.315   4.903   4.594
  161SAPE  H18Z18047   3.470   4.941   4.672
  162SAPE     N18048   2.424   1.168   1.990
  162SAPE   HN118049   2.404   1.267   1.965
  162SAPE   HN218050   2.376   1.105   1.924
  162SAPE   HN318051   2.381   1.167   2.085
  162SAPE   C1218052   2.577   1.124   1.985
  162SAPE  H12A18053   2.635   1.203   2.038
  162SAPE  H12B18054   2.608   1.119   1.879
  162SAPE   C1118055   2.608   0.989   2.050
  162SAPE  H11A18056   2.618   1.013   2.158
  162SAPE  H11B18057   2.710   0.954   2.026
  162SAPE     P18058   2.529   0.778   1.928
  162SAPE   O1318059   2.401   0.745   1.869
  162SAPE   O1418060   2.638   0.821   1.831
  162SAPE   O1218061   2.506   0.893   2.032
  162SAPE   O1118062   2.588   0.667   2.017
  162SAPE    C118063   2.501   0.588   2.100
  162SAPE    HA18064   2.409   0.566   2.041
  162SAPE    HB18065   2.550   0.488   2.109
  162SAPE    C218066   2.468   0.657   2.236
  162SAPE    HS18067   2.417   0.749   2.202
  162SAPE   O2118068   2.587   0.686   2.308
  162SAPE   C2118069   2.575   0.790   2.381
  162SAPE   O2218070   2.495   0.878   2.369
  162SAPE   C2218071   2.684   0.778   2.492
  162SAPE   H2R18072   2.675   0.681   2.545
  162SAPE   H2S18073   2.784   0.783   2.442
  162SAPE    C318074   2.375   0.564   2.327
  162SAPE    HX18075   2.423   0.468   2.355
  162SAPE    HY18076   2.281   0.546   2.271
  162SAPE   O3118077   2.338   0.620   2.458
  162SAPE   C3118078   2.214   0.649   2.477
  162SAPE   O3218079   2.122   0.615   2.405
  162SAPE   C3218080   2.213   0.735   2.605
  162SAPE   H2X18081   2.226   0.835   2.559
  162SAPE   H2Y18082   2.290   0.700   2.676
  162SAPE   C2318083   2.671   0.878   2.609
  162SAPE   H3R18084   2.725   0.970   2.578
  162SAPE   H3S18085   2.718   0.830   2.698
  162SAPE   C2418086   2.530   0.904   2.673
  162SAPE   H4R18087   2.491   0.800   2.684
  162SAPE   H4S18088   2.461   0.949   2.598
  162SAPE   C2518089   2.523   0.974   2.807
  162SAPE   H5R18090   2.535   1.083   2.799
  162SAPE   C2618091   2.510   0.922   2.927
  162SAPE   H6R18092   2.515   0.989   3.014
  162SAPE   C2718093   2.483   0.775   2.962
  162SAPE   H7R18094   2.583   0.728   2.968
  162SAPE   H7S18095   2.424   0.718   2.886
  162SAPE   C2818096   2.409   0.776   3.096
  162SAPE   H8R18097   2.303   0.804   3.089
  162SAPE   C2918098   2.458   0.749   3.219
  162SAPE   H9R18099   2.386   0.761   3.301
  162SAPE  C21018100   2.599   0.709   3.247
  162SAPE  H10R18101   2.642   0.653   3.162
  162SAPE  H10S18102   2.605   0.639   3.333
  162SAPE  C21118103   2.695   0.810   3.291
  162SAPE  H11R18104   2.753   0.851   3.207
  162SAPE  C21218105   2.719   0.839   3.419
  162SAPE  H12R18106   2.801   0.911   3.432
  162SAPE  C21318107   2.654   0.788   3.546
  162SAPE  H13R18108   2.720   0.819   3.630
  162SAPE  H13S18109   2.649   0.678   3.558
  162SAPE  C21418110   2.513   0.850   3.566
  162SAPE  H14R18111   2.485   0.930   3.495
  162SAPE  C21518112   2.423   0.822   3.671
  162SAPE  H15R18113   2.315   0.837   3.661
  162SAPE  C21618114   2.476   0.716   3.763
  162SAPE  H16R18115   2.580   0.742   3.792
  162SAPE  H16S18116   2.481   0.631   3.692
  162SAPE  C21718117   2.397   0.693   3.886
  162SAPE  H17R18118   2.393   0.783   3.951
  162SAPE  H17S18119   2.446   0.604   3.933
  162SAPE  C21818120   2.256   0.636   3.844
  162SAPE  H18R18121   2.268   0.537   3.795
  162SAPE  H18S18122   2.211   0.702   3.767
  162SAPE  C21918123   2.161   0.621   3.962
  162SAPE  H19R18124   2.143   0.717   4.016
  162SAPE  H19S18125   2.197   0.549   4.038
  162SAPE  C22018126   2.034   0.568   3.912
  162SAPE  H20R18127   2.060   0.473   3.861
  162SAPE  H20S18128   2.003   0.624   3.822
  162SAPE  H20T18129   1.944   0.559   3.977
  162SAPE   C3318130   2.072   0.731   2.676
  162SAPE   H3X18131   2.056   0.644   2.743
  162SAPE   H3Y18132   1.988   0.721   2.604
  162SAPE   C3418133   2.035   0.861   2.744
  162SAPE   H4X18134   1.943   0.842   2.804
  162SAPE   H4Y18135   2.000   0.926   2.661
  162SAPE   C3518136   2.155   0.925   2.829
  162SAPE   H5X18137   2.233   0.950   2.755
  162SAPE   H5Y18138   2.182   0.853   2.909
  162SAPE   C3618139   2.118   1.059   2.881
  162SAPE   H6X18140   2.095   1.123   2.793
  162SAPE   H6Y18141   2.203   1.105   2.935
  162SAPE   C3718142   1.998   1.049   2.976
  162SAPE   H7X18143   1.914   1.005   2.918
  162SAPE   H7Y18144   1.963   1.149   3.011
  162SAPE   C3818145   2.027   0.973   3.109
  162SAPE   H8X18146   2.117   1.003   3.165
  162SAPE   H8Y18147   2.040   0.866   3.081
  162SAPE   C3918148   1.907   0.974   3.208
  162SAPE   H9X18149   1.816   0.944   3.151
  162SAPE   H9Y18150   1.889   1.076   3.247
  162SAPE  C31018151   1.932   0.882   3.330
  162SAPE  H10X18152   2.022   0.917   3.384
  162SAPE  H10Y18153   1.964   0.782   3.293
  162SAPE  C31118154   1.818   0.856   3.426
  162SAPE  H11X18155   1.720   0.828   3.382
  162SAPE  H11Y18156   1.798   0.941   3.494
  162SAPE  C31218157   1.842   0.737   3.533
  162SAPE  H12X18158   1.933   0.752   3.595
  162SAPE  H12Y18159   1.869   0.652   3.467
  162SAPE  C31318160   1.719   0.711   3.621
  162SAPE  H13X18161   1.743   0.627   3.690
  162SAPE  H13Y18162   1.621   0.693   3.571
  162SAPE  C31418163   1.694   0.823   3.724
  162SAPE  H14X18164   1.594   0.812   3.773
  162SAPE  H14Y18165   1.692   0.916   3.665
  162SAPE  C31518166   1.808   0.838   3.831
  162SAPE  H15X18167   1.910   0.830   3.789
  162SAPE  H15Y18168   1.802   0.770   3.919
  162SAPE  C31618169   1.810   0.988   3.884
  162SAPE  H16X18170   1.827   0.983   3.993
  162SAPE  H16Y18171   1.711   1.028   3.854
  162SAPE  C31718172   1.920   1.073   3.834
  162SAPE  H17X18173   2.014   1.040   3.884
  162SAPE  H17Y18174   1.908   1.183   3.845
  162SAPE  C31818175   1.937   1.060   3.680
  162SAPE  H18X18176   1.837   1.072   3.633
  162SAPE  H18Y18177   1.990   0.969   3.647
  162SAPE  H18Z18178   1.999   1.144   3.640
  163SAPE     N18179   2.806   5.900   1.723
  163SAPE   HN118180   2.718   5.921   1.775
  163SAPE   HN218181   2.792   5.917   1.621
  163SAPE   HN318182   2.824   5.798   1.729
  163SAPE   C1218183   2.908   5.980   1.801
  163SAPE  H12A18184   3.008   5.964   1.754
  163SAPE  H12B18185   2.921   5.936   1.902
  163SAPE   C1118186   2.871   6.130   1.798
  163SAPE  H11A18187   2.844   6.150   1.692
  163SAPE  H11B18188   2.966   6.178   1.830
  163SAPE     P18189   2.623   6.191   1.859
  163SAPE   O1318190   2.608   6.300   1.761
  163SAPE   O1418191   2.569   6.058   1.828
  163SAPE   O1218192   2.772   6.172   1.891
  163SAPE   O1118193   2.567   6.238   1.998
  163SAPE    C118194   2.630   6.199   2.121
  163SAPE    HA18195   2.676   6.099   2.107
  163SAPE    HB18196   2.708   6.270   2.156
  163SAPE    C218197   2.522   6.198   2.233
  163SAPE    HS18198   2.441   6.128   2.205
  163SAPE   O2118199   2.472   6.335   2.252
  163SAPE   C2118200   2.367   6.351   2.336
  163SAPE   O2218201   2.309   6.264   2.389
  163SAPE   C2218202   2.338   6.503   2.353
  163SAPE   H2R18203   2.417   6.556   2.295
  163SAPE   H2S18204   2.235   6.522   2.317
  163SAPE    C318205   2.589   6.144   2.363
  163SAPE    HX18206   2.623   6.044   2.328
  163SAPE    HY18207   2.523   6.137   2.452
  163SAPE   O3118208   2.701   6.225   2.405
  163SAPE   C3118209   2.823   6.198   2.383
  163SAPE   O3218210   2.865   6.094   2.338
  163SAPE   C3218211   2.903   6.313   2.418
  163SAPE   H2X18212   2.839   6.398   2.450
  163SAPE   H2Y18213   2.950   6.356   2.327
  163SAPE   C2318214   2.327   6.545   2.503
  163SAPE   H3R18215   2.274   6.471   2.567
  163SAPE   H3S18216   2.260   6.633   2.501
  163SAPE   C2418217   2.461   6.567   2.577
  163SAPE   H4R18218   2.439   6.609   2.678
  163SAPE   H4S18219   2.503   6.650   2.516
  163SAPE   C2518220   2.539   6.440   2.577
  163SAPE   H5R18221   2.593   6.417   2.484
  163SAPE   C2618222   2.539   6.352   2.680
  163SAPE   H6R18223   2.628   6.286   2.679
  163SAPE   C2718224   2.480   6.365   2.818
  163SAPE   H7R18225   2.460   6.473   2.836
  163SAPE   H7S18226   2.553   6.340   2.897
  163SAPE   C2818227   2.363   6.274   2.850
  163SAPE   H8R18228   2.298   6.267   2.761
  163SAPE   C2918229   2.320   6.223   2.969
  163SAPE   H9R18230   2.225   6.167   2.978
  163SAPE  C21018231   2.384   6.218   3.107
  163SAPE  H10R18232   2.484   6.265   3.116
  163SAPE  H10S18233   2.407   6.111   3.127
  163SAPE  C21118234   2.292   6.281   3.212
  163SAPE  H11R18235   2.240   6.370   3.174
  163SAPE  C21218236   2.289   6.256   3.344
  163SAPE  H12R18237   2.209   6.307   3.399
  163SAPE  C21318238   2.376   6.160   3.421
  163SAPE  H13R18239   2.445   6.107   3.352
  163SAPE  H13S18240   2.320   6.073   3.463
  163SAPE  C21418241   2.474   6.240   3.502
  163SAPE  H14R18242   2.538   6.304   3.439
  163SAPE  C21518243   2.500   6.240   3.631
  163SAPE  H15R18244   2.568   6.320   3.665
  163SAPE  C21618245   2.423   6.158   3.733
  163SAPE  H16R18246   2.493   6.093   3.791
  163SAPE  H16S18247   2.362   6.081   3.681
  163SAPE  C21718248   2.339   6.246   3.829
  163SAPE  H17R18249   2.294   6.177   3.904
  163SAPE  H17S18250   2.262   6.302   3.772
  163SAPE  C21818251   2.411   6.359   3.901
  163SAPE  H18R18252   2.434   6.443   3.831
  163SAPE  H18S18253   2.513   6.323   3.928
  163SAPE  C21918254   2.325   6.414   4.017
  163SAPE  H19R18255   2.279   6.325   4.066
  163SAPE  H19S18256   2.243   6.474   3.972
  163SAPE  C22018257   2.398   6.506   4.115
  163SAPE  H20R18258   2.435   6.591   4.054
  163SAPE  H20S18259   2.480   6.451   4.167
  163SAPE  H20T18260   2.328   6.549   4.190
  163SAPE   C3318261   3.004   6.286   2.531
  163SAPE   H3X18262   3.069   6.374   2.552
  163SAPE   H3Y18263   3.060   6.194   2.505
  163SAPE   C3418264   2.949   6.241   2.671
  163SAPE   H4X18265   2.880   6.155   2.660
  163SAPE   H4Y18266   2.883   6.320   2.712
  163SAPE   C3518267   3.045   6.225   2.787
  163SAPE   H5X18268   3.122   6.305   2.784
  163SAPE   H5Y18269   3.102   6.130   2.777
  163SAPE   C3618270   2.978   6.236   2.928
  163SAPE   H6X18271   2.880   6.186   2.917
  163SAPE   H6Y18272   2.963   6.344   2.947
  163SAPE   C3718273   3.054   6.174   3.050
  163SAPE   H7X18274   3.150   6.223   3.078
  163SAPE   H7Y18275   3.077   6.067   3.029
  163SAPE   C3818276   2.970   6.156   3.177
  163SAPE   H8X18277   2.878   6.098   3.155
  163SAPE   H8Y18278   2.924   6.251   3.209
  163SAPE   C3918279   3.044   6.099   3.302
  163SAPE   H9X18280   3.138   6.152   3.328
  163SAPE   H9Y18281   3.071   5.996   3.271
  163SAPE  C31018282   2.959   6.098   3.427
  163SAPE  H10X18283   2.881   6.018   3.425
  163SAPE  H10Y18284   2.914   6.198   3.444
  163SAPE  C31118285   3.041   6.063   3.557
  163SAPE  H11X18286   3.107   6.146   3.590
  163SAPE  H11Y18287   3.096   5.968   3.553
  163SAPE  C31218288   2.948   6.037   3.676
  163SAPE  H12X18289   2.880   5.954   3.648
  163SAPE  H12Y18290   2.887   6.129   3.691
  163SAPE  C31318291   3.014   5.987   3.802
  163SAPE  H13X18292   3.083   6.069   3.829
  163SAPE  H13Y18293   3.063   5.889   3.782
  163SAPE  C31418294   2.918   5.954   3.919
  163SAPE  H14X18295   2.993   5.914   3.991
  163SAPE  H14Y18296   2.851   5.868   3.896
  163SAPE  C31518297   2.839   6.074   3.971
  163SAPE  H15X18298   2.772   6.107   3.889
  163SAPE  H15Y18299   2.904   6.163   3.982
  163SAPE  C31618300   2.750   6.034   4.095
  163SAPE  H16X18301   2.821   6.034   4.180
  163SAPE  H16Y18302   2.699   5.936   4.081
  163SAPE  C31718303   2.644   6.142   4.124
  163SAPE  H17X18304   2.598   6.163   4.025
  163SAPE  H17Y18305   2.689   6.235   4.165
  163SAPE  C31818306   2.528   6.101   4.217
  163SAPE  H18X18307   2.460   6.187   4.199
  163SAPE  H18Y18308   2.558   6.105   4.324
  163SAPE  H18Z18309   2.488   6.006   4.177
  164SAPE     N18310   6.500   4.821   2.204
  164SAPE   HN118311   6.501   4.820   2.308
  164SAPE   HN218312   6.463   4.729   2.171
  164SAPE   HN318313   6.598   4.843   2.175
  164SAPE   C1218314   6.408   4.922   2.147
  164SAPE  H12A18315   6.303   4.903   2.179
  164SAPE  H12B18316   6.405   4.909   2.036
  164SAPE   C1118317   6.457   5.066   2.168
  164SAPE  H11A18318   6.397   5.142   2.114
  164SAPE  H11B18319   6.560   5.067   2.128
  164SAPE     P18320   6.336   5.143   2.387
  164SAPE   O1318321   6.375   5.162   2.529
  164SAPE   O1418322   6.269   5.255   2.315
  164SAPE   O1218323   6.466   5.104   2.308
  164SAPE   O1118324   6.245   5.013   2.373
  164SAPE    C118325   6.259   4.897   2.461
  164SAPE    HA18326   6.262   4.805   2.399
  164SAPE    HB18327   6.353   4.900   2.519
  164SAPE    C218328   6.152   4.891   2.569
  164SAPE    HS18329   6.062   4.868   2.508
  164SAPE   O2118330   6.136   5.011   2.651
  164SAPE   C2118331   6.014   5.029   2.700
  164SAPE   O2218332   5.914   4.970   2.664
  164SAPE   C2218333   6.024   5.142   2.808
  164SAPE   H2R18334   6.119   5.133   2.866
  164SAPE   H2S18335   6.018   5.234   2.746
  164SAPE    C318336   6.178   4.775   2.671
  164SAPE    HX18337   6.258   4.798   2.744
  164SAPE    HY18338   6.219   4.682   2.624
  164SAPE   O3118339   6.068   4.752   2.767
  164SAPE   C3118340   5.954   4.682   2.726
  164SAPE   O3218341   5.940   4.622   2.622
  164SAPE   C3218342   5.843   4.694   2.831
  164SAPE   H2X18343   5.774   4.610   2.806
  164SAPE   H2Y18344   5.811   4.800   2.822
  164SAPE   C2318345   5.892   5.145   2.895
  164SAPE   H3R18346   5.801   5.126   2.833
  164SAPE   H3S18347   5.889   5.251   2.928
  164SAPE   C2418348   5.898   5.061   3.028
  164SAPE   H4R18349   5.880   4.953   3.006
  164SAPE   H4S18350   5.800   5.084   3.074
  164SAPE   C2518351   6.012   5.082   3.129
  164SAPE   H5R18352   6.111   5.058   3.087
  164SAPE   C2618353   6.010   5.140   3.251
  164SAPE   H6R18354   6.100   5.158   3.311
  164SAPE   C2718355   5.893   5.194   3.325
  164SAPE   H7R18356   5.818   5.235   3.254
  164SAPE   H7S18357   5.926   5.278   3.389
  164SAPE   C2818358   5.837   5.092   3.424
  164SAPE   H8R18359   5.871   4.990   3.400
  164SAPE   C2918360   5.762   5.104   3.533
  164SAPE   H9R18361   5.754   5.017   3.600
  164SAPE  C21018362   5.717   5.223   3.606
  164SAPE  H10R18363   5.607   5.234   3.598
  164SAPE  H10S18364   5.762   5.314   3.561
  164SAPE  C21118365   5.749   5.227   3.751
  164SAPE  H11R18366   5.831   5.294   3.778
  164SAPE  C21218367   5.666   5.201   3.849
  164SAPE  H12R18368   5.697   5.210   3.954
  164SAPE  C21318369   5.534   5.130   3.841
  164SAPE  H13R18370   5.529   5.033   3.895
  164SAPE  H13S18371   5.493   5.101   3.741
  164SAPE  C21418372   5.432   5.224   3.905
  164SAPE  H14R18373   5.429   5.313   3.841
  164SAPE  C21518374   5.369   5.214   4.018
  164SAPE  H15R18375   5.299   5.295   4.044
  164SAPE  C21618376   5.382   5.107   4.118
  164SAPE  H16R18377   5.367   5.161   4.215
  164SAPE  H16S18378   5.481   5.059   4.132
  164SAPE  C21718379   5.277   4.994   4.119
  164SAPE  H17R18380   5.313   4.926   4.039
  164SAPE  H17S18381   5.176   5.027   4.086
  164SAPE  C21818382   5.268   4.917   4.246
  164SAPE  H18R18383   5.246   4.991   4.325
  164SAPE  H18S18384   5.369   4.877   4.268
  164SAPE  C21918385   5.155   4.806   4.242
  164SAPE  H19R18386   5.159   4.760   4.141
  164SAPE  H19S18387   5.061   4.864   4.252
  164SAPE  C22018388   5.176   4.704   4.356
  164SAPE  H20R18389   5.279   4.663   4.353
  164SAPE  H20S18390   5.101   4.622   4.357
  164SAPE  H20T18391   5.182   4.761   4.451
  164SAPE   C3318392   5.887   4.672   2.976
  164SAPE   H3X18393   5.959   4.748   3.013
  164SAPE   H3Y18394   5.926   4.569   2.988
  164SAPE   C3418395   5.763   4.684   3.068
  164SAPE   H4X18396   5.687   4.609   3.040
  164SAPE   H4Y18397   5.717   4.784   3.050
  164SAPE   C3518398   5.792   4.663   3.219
  164SAPE   H5X18399   5.854   4.746   3.258
  164SAPE   H5Y18400   5.850   4.570   3.238
  164SAPE   C3618401   5.665   4.630   3.305
  164SAPE   H6X18402   5.713   4.601   3.401
  164SAPE   H6Y18403   5.603   4.548   3.262
  164SAPE   C3718404   5.576   4.756   3.314
  164SAPE   H7X18405   5.509   4.765   3.226
  164SAPE   H7Y18406   5.644   4.844   3.313
  164SAPE   C3818407   5.477   4.764   3.429
  164SAPE   H8X18408   5.408   4.677   3.426
  164SAPE   H8Y18409   5.426   4.862   3.418
  164SAPE   C3918410   5.548   4.765   3.563
  164SAPE   H9X18411   5.611   4.854   3.543
  164SAPE   H9Y18412   5.597   4.667   3.580
  164SAPE  C31018413   5.444   4.772   3.673
  164SAPE  H10X18414   5.380   4.683   3.662
  164SAPE  H10Y18415   5.398   4.873   3.664
  164SAPE  C31118416   5.518   4.753   3.803
  164SAPE  H11X18417   5.454   4.791   3.886
  164SAPE  H11Y18418   5.603   4.823   3.791
  164SAPE  C31218419   5.563   4.613   3.838
  164SAPE  H12X18420   5.640   4.587   3.763
  164SAPE  H12Y18421   5.478   4.542   3.842
  164SAPE  C31318422   5.639   4.605   3.977
  164SAPE  H13X18423   5.734   4.663   3.977
  164SAPE  H13Y18424   5.675   4.500   3.983
  164SAPE  C31418425   5.548   4.640   4.093
  164SAPE  H14X18426   5.447   4.594   4.087
  164SAPE  H14Y18427   5.537   4.751   4.095
  164SAPE  C31518428   5.579   4.588   4.229
  164SAPE  H15X18429   5.593   4.477   4.227
  164SAPE  H15Y18430   5.496   4.610   4.300
  164SAPE  C31618431   5.710   4.649   4.283
  164SAPE  H16X18432   5.694   4.753   4.319
  164SAPE  H16Y18433   5.781   4.665   4.198
  164SAPE  C31718434   5.785   4.563   4.388
  164SAPE  H17X18435   5.793   4.454   4.365
  164SAPE  H17Y18436   5.722   4.557   4.479
  164SAPE  C31818437   5.921   4.614   4.427
  164SAPE  H18X18438   5.947   4.547   4.511
  164SAPE  H18Y18439   5.919   4.723   4.451
  164SAPE  H18Z18440   5.983   4.604   4.335
  165SAPE     N18441   4.243   6.526   2.028
  165SAPE   HN118442   4.143   6.516   2.054
  165SAPE   HN218443   4.272   6.588   2.106
  165SAPE   HN318444   4.243   6.581   1.940
  165SAPE   C1218445   4.337   6.405   2.024
  165SAPE  H12A18446   4.303   6.325   1.955
  165SAPE  H12B18447   4.351   6.363   2.126
  165SAPE   C1118448   4.484   6.451   1.977
  165SAPE  H11A18449   4.464   6.476   1.871
  165SAPE  H11B18450   4.546   6.359   1.986
  165SAPE     P18451   4.686   6.586   2.044
  165SAPE   O1318452   4.733   6.575   1.902
  165SAPE   O1418453   4.716   6.710   2.119
  165SAPE   O1218454   4.531   6.565   2.049
  165SAPE   O1118455   4.736   6.463   2.122
  165SAPE    C118456   4.684   6.403   2.243
  165SAPE    HA18457   4.624   6.472   2.307
  165SAPE    HB18458   4.621   6.317   2.213
  165SAPE    C218459   4.802   6.359   2.340
  165SAPE    HS18460   4.765   6.341   2.443
  165SAPE   O2118461   4.914   6.457   2.349
  165SAPE   C2118462   4.886   6.578   2.388
  165SAPE   O2218463   4.796   6.615   2.458
  165SAPE   C2218464   4.987   6.666   2.337
  165SAPE   H2R18465   4.994   6.644   2.228
  165SAPE   H2S18466   4.956   6.771   2.353
  165SAPE    C318467   4.864   6.226   2.294
  165SAPE    HX18468   4.899   6.257   2.193
  165SAPE    HY18469   4.781   6.154   2.275
  165SAPE   O3118470   4.960   6.176   2.392
  165SAPE   C3118471   5.082   6.208   2.356
  165SAPE   O3218472   5.118   6.251   2.248
  165SAPE   C3218473   5.182   6.178   2.469
  165SAPE   H2X18474   5.270   6.246   2.459
  165SAPE   H2Y18475   5.223   6.077   2.449
  165SAPE   C2318476   5.119   6.646   2.414
  165SAPE   H3R18477   5.190   6.699   2.347
  165SAPE   H3S18478   5.164   6.544   2.414
  165SAPE   C2418479   5.122   6.717   2.552
  165SAPE   H4R18480   5.054   6.662   2.621
  165SAPE   H4S18481   5.075   6.817   2.540
  165SAPE   C2518482   5.258   6.741   2.612
  165SAPE   H5R18483   5.339   6.690   2.557
  165SAPE   C2618484   5.277   6.794   2.735
  165SAPE   H6R18485   5.379   6.792   2.776
  165SAPE   C2718486   5.172   6.863   2.812
  165SAPE   H7R18487   5.116   6.779   2.857
  165SAPE   H7S18488   5.105   6.927   2.751
  165SAPE   C2818489   5.243   6.946   2.913
  165SAPE   H8R18490   5.314   6.889   2.976
  165SAPE   C2918491   5.221   7.074   2.946
  165SAPE   H9R18492   5.266   7.120   3.035
  165SAPE  C21018493   5.106   7.162   2.892
  165SAPE  H10R18494   5.106   7.156   2.781
  165SAPE  H10S18495   5.133   7.268   2.911
  165SAPE  C21118496   4.975   7.119   2.950
  165SAPE  H11R18497   4.921   7.057   2.878
  165SAPE  C21218498   4.926   7.144   3.071
  165SAPE  H12R18499   4.822   7.111   3.087
  165SAPE  C21318500   4.989   7.221   3.185
  165SAPE  H13R18501   5.099   7.229   3.171
  165SAPE  H13S18502   4.987   7.148   3.269
  165SAPE  C21418503   4.927   7.353   3.214
  165SAPE  H14R18504   4.895   7.403   3.121
  165SAPE  C21518505   4.905   7.410   3.336
  165SAPE  H15R18506   4.868   7.513   3.346
  165SAPE  C21618507   4.932   7.342   3.470
  165SAPE  H16R18508   5.033   7.377   3.501
  165SAPE  H16S18509   4.943   7.232   3.457
  165SAPE  C21718510   4.829   7.374   3.578
  165SAPE  H17R18511   4.864   7.321   3.669
  165SAPE  H17S18512   4.734   7.326   3.548
  165SAPE  C21818513   4.801   7.525   3.606
  165SAPE  H18R18514   4.752   7.569   3.516
  165SAPE  H18S18515   4.899   7.578   3.602
  165SAPE  C21918516   4.725   7.552   3.735
  165SAPE  H19R18517   4.625   7.504   3.731
  165SAPE  H19S18518   4.713   7.662   3.744
  165SAPE  C22018519   4.801   7.520   3.859
  165SAPE  H20R18520   4.826   7.412   3.867
  165SAPE  H20S18521   4.743   7.569   3.941
  165SAPE  H20T18522   4.894   7.577   3.876
  165SAPE   C3318523   5.128   6.189   2.615
  165SAPE   H3X18524   5.208   6.158   2.685
  165SAPE   H3Y18525   5.041   6.120   2.625
  165SAPE   C3418526   5.080   6.340   2.638
  165SAPE   H4X18527   4.998   6.369   2.568
  165SAPE   H4Y18528   5.163   6.410   2.616
  165SAPE   C3518529   5.033   6.354   2.793
  165SAPE   H5X18530   5.122   6.328   2.854
  165SAPE   H5Y18531   4.947   6.284   2.800
  165SAPE   C3618532   4.991   6.495   2.834
  165SAPE   H6X18533   4.899   6.521   2.779
  165SAPE   H6Y18534   5.066   6.570   2.799
  165SAPE   C3718535   4.952   6.505   2.979
  165SAPE   H7X18536   5.032   6.463   3.043
  165SAPE   H7Y18537   4.858   6.448   2.993
  165SAPE   C3818538   4.912   6.641   3.029
  165SAPE   H8X18539   4.842   6.695   2.962
  165SAPE   H8Y18540   5.009   6.695   3.020
  165SAPE   C3918541   4.857   6.644   3.170
  165SAPE   H9X18542   4.925   6.582   3.231
  165SAPE   H9Y18543   4.758   6.593   3.171
  165SAPE  C31018544   4.847   6.784   3.228
  165SAPE  H10X18545   4.756   6.829   3.184
  165SAPE  H10Y18546   4.946   6.833   3.214
  165SAPE  C31118547   4.830   6.781   3.381
  165SAPE  H11X18548   4.917   6.737   3.435
  165SAPE  H11Y18549   4.745   6.712   3.400
  165SAPE  C31218550   4.809   6.919   3.437
  165SAPE  H12X18551   4.748   6.983   3.370
  165SAPE  H12Y18552   4.905   6.972   3.453
  165SAPE  C31318553   4.746   6.921   3.578
  165SAPE  H13X18554   4.791   6.838   3.636
  165SAPE  H13Y18555   4.635   6.912   3.576
  165SAPE  C31418556   4.778   7.051   3.666
  165SAPE  H14X18557   4.797   7.135   3.596
  165SAPE  H14Y18558   4.871   7.035   3.724
  165SAPE  C31518559   4.663   7.084   3.762
  165SAPE  H15X18560   4.583   7.132   3.701
  165SAPE  H15Y18561   4.698   7.158   3.837
  165SAPE  C31618562   4.600   6.964   3.848
  165SAPE  H16X18563   4.578   6.877   3.782
  165SAPE  H16Y18564   4.508   7.002   3.896
  165SAPE  C31718565   4.679   6.928   3.974
  165SAPE  H17X18566   4.704   7.022   4.028
  165SAPE  H17Y18567   4.777   6.893   3.935
  165SAPE  C31818568   4.615   6.820   4.053
  165SAPE  H18X18569   4.660   6.811   4.154
  165SAPE  H18Y18570   4.622   6.725   3.995
  165SAPE  H18Z18571   4.507   6.841   4.071
  166SAPE     N18572   6.256   5.527   2.265
  166SAPE   HN118573   6.240   5.514   2.163
  166SAPE   HN218574   6.349   5.574   2.264
  166SAPE   HN318575   6.258   5.429   2.302
  166SAPE   C1218576   6.148   5.605   2.338
  166SAPE  H12A18577   6.203   5.671   2.409
  166SAPE  H12B18578   6.084   5.524   2.380
  166SAPE   C1118579   6.069   5.707   2.247
  166SAPE  H11A18580   5.981   5.748   2.300
  166SAPE  H11B18581   6.027   5.647   2.164
  166SAPE     P18582   6.218   5.928   2.244
  166SAPE   O1318583   6.326   5.875   2.330
  166SAPE   O1418584   6.251   6.018   2.133
  166SAPE   O1218585   6.155   5.802   2.177
  166SAPE   O1118586   6.094   5.988   2.329
  166SAPE    C118587   5.988   6.068   2.269
  166SAPE    HA18588   5.958   6.031   2.168
  166SAPE    HB18589   5.892   6.057   2.325
  166SAPE    C218590   6.006   6.222   2.249
  166SAPE    HS18591   6.111   6.245   2.224
  166SAPE   O2118592   5.978   6.289   2.372
  166SAPE   C2118593   6.074   6.285   2.466
  166SAPE   O2218594   6.191   6.253   2.451
  166SAPE   C2218595   6.017   6.336   2.597
  166SAPE   H2R18596   6.078   6.423   2.629
  166SAPE   H2S18597   5.913   6.375   2.590
  166SAPE    C318598   5.907   6.269   2.143
  166SAPE    HX18599   5.931   6.214   2.050
  166SAPE    HY18600   5.941   6.374   2.126
  166SAPE   O3118601   5.766   6.264   2.172
  166SAPE   C3118602   5.710   6.367   2.221
  166SAPE   O3218603   5.768   6.475   2.247
  166SAPE   C3218604   5.564   6.338   2.267
  166SAPE   H2X18605   5.548   6.228   2.263
  166SAPE   H2Y18606   5.496   6.401   2.204
  166SAPE   C2318607   6.017   6.227   2.707
  166SAPE   H3R18608   6.107   6.239   2.771
  166SAPE   H3S18609   6.014   6.127   2.658
  166SAPE   C2418610   5.896   6.243   2.800
  166SAPE   H4R18611   5.904   6.153   2.865
  166SAPE   H4S18612   5.806   6.230   2.736
  166SAPE   C2518613   5.897   6.376   2.867
  166SAPE   H5R18614   5.819   6.451   2.850
  166SAPE   C2618615   5.967   6.400   2.979
  166SAPE   H6R18616   5.958   6.499   3.026
  166SAPE   C2718617   6.059   6.307   3.055
  166SAPE   H7R18618   6.145   6.366   3.095
  166SAPE   H7S18619   6.107   6.229   2.993
  166SAPE   C2818620   5.981   6.238   3.164
  166SAPE   H8R18621   5.900   6.172   3.130
  166SAPE   C2918622   6.003   6.236   3.296
  166SAPE   H9R18623   5.927   6.180   3.353
  166SAPE  C21018624   6.099   6.326   3.379
  166SAPE  H10R18625   6.173   6.381   3.316
  166SAPE  H10S18626   6.171   6.266   3.438
  166SAPE  C21118627   6.037   6.436   3.458
  166SAPE  H11R18628   5.996   6.519   3.399
  166SAPE  C21218629   6.030   6.457   3.593
  166SAPE  H12R18630   5.977   6.545   3.631
  166SAPE  C21318631   6.095   6.356   3.691
  166SAPE  H13R18632   6.200   6.338   3.662
  166SAPE  H13S18633   6.045   6.257   3.683
  166SAPE  C21418634   6.086   6.395   3.838
  166SAPE  H14R18635   6.176   6.443   3.880
  166SAPE  C21518636   5.969   6.389   3.914
  166SAPE  H15R18637   5.980   6.414   4.020
  166SAPE  C21618638   5.838   6.327   3.868
  166SAPE  H16R18639   5.843   6.314   3.757
  166SAPE  H16S18640   5.748   6.388   3.889
  166SAPE  C21718641   5.835   6.188   3.938
  166SAPE  H17R18642   5.927   6.134   3.908
  166SAPE  H17S18643   5.750   6.131   3.896
  166SAPE  C21818644   5.815   6.198   4.091
  166SAPE  H18R18645   5.715   6.241   4.113
  166SAPE  H18S18646   5.886   6.268   4.139
  166SAPE  C21918647   5.824   6.066   4.166
  166SAPE  H19R18648   5.913   6.010   4.129
  166SAPE  H19S18649   5.739   6.004   4.129
  166SAPE  C22018650   5.841   6.073   4.318
  166SAPE  H20R18651   5.747   6.094   4.373
  166SAPE  H20S18652   5.916   6.147   4.352
  166SAPE  H20T18653   5.882   5.978   4.357
  166SAPE   C3318654   5.540   6.384   2.416
  166SAPE   H3X18655   5.435   6.413   2.434
  166SAPE   H3Y18656   5.598   6.477   2.432
  166SAPE   C3418657   5.586   6.283   2.516
  166SAPE   H4X18658   5.697   6.292   2.521
  166SAPE   H4Y18659   5.569   6.176   2.493
  166SAPE   C3518660   5.518   6.288   2.649
  166SAPE   H5X18661   5.588   6.239   2.720
  166SAPE   H5Y18662   5.420   6.236   2.652
  166SAPE   C3618663   5.508   6.434   2.708
  166SAPE   H6X18664   5.436   6.502   2.657
  166SAPE   H6Y18665   5.598   6.498   2.697
  166SAPE   C3718666   5.471   6.406   2.857
  166SAPE   H7X18667   5.564   6.380   2.912
  166SAPE   H7Y18668   5.395   6.325   2.846
  166SAPE   C3818669   5.399   6.512   2.930
  166SAPE   H8X18670   5.301   6.526   2.880
  166SAPE   H8Y18671   5.444   6.611   2.909
  166SAPE   C3918672   5.367   6.506   3.081
  166SAPE   H9X18673   5.443   6.437   3.123
  166SAPE   H9Y18674   5.281   6.436   3.088
  166SAPE  C31018675   5.367   6.646   3.140
  166SAPE  H10X18676   5.321   6.713   3.063
  166SAPE  H10Y18677   5.470   6.685   3.150
  166SAPE  C31118678   5.288   6.652   3.270
  166SAPE  H11X18679   5.348   6.611   3.355
  166SAPE  H11Y18680   5.205   6.580   3.254
  166SAPE  C31218681   5.237   6.795   3.297
  166SAPE  H12X18682   5.136   6.788   3.343
  166SAPE  H12Y18683   5.218   6.839   3.197
  166SAPE  C31318684   5.322   6.880   3.382
  166SAPE  H13X18685   5.431   6.875   3.359
  166SAPE  H13Y18686   5.314   6.842   3.486
  166SAPE  C31418687   5.273   7.030   3.370
  166SAPE  H14X18688   5.176   7.042   3.422
  166SAPE  H14Y18689   5.268   7.046   3.260
  166SAPE  C31518690   5.370   7.130   3.435
  166SAPE  H15X18691   5.327   7.232   3.438
  166SAPE  H15Y18692   5.469   7.139   3.386
  166SAPE  C31618693   5.410   7.097   3.582
  166SAPE  H16X18694   5.401   6.986   3.589
  166SAPE  H16Y18695   5.350   7.145   3.662
  166SAPE  C31718696   5.557   7.131   3.613
  166SAPE  H17X18697   5.597   7.228   3.577
  166SAPE  H17Y18698   5.622   7.065   3.552
  166SAPE  C31818699   5.576   7.094   3.761
  166SAPE  H18X18700   5.558   6.990   3.795
  166SAPE  H18Y18701   5.514   7.156   3.829
  166SAPE  H18Z18702   5.678   7.108   3.803
  167SAPE     N18703   6.569   4.232   1.766
  167SAPE   HN118704   6.647   4.245   1.699
  167SAPE   HN218705   6.584   4.130   1.782
  167SAPE   HN318706   6.482   4.258   1.716
  167SAPE   C1218707   6.578   4.304   1.898
  167SAPE  H12A18708   6.592   4.413   1.880
  167SAPE  H12B18709   6.670   4.282   1.957
  167SAPE   C1118710   6.463   4.294   2.001
  167SAPE  H11A18711   6.445   4.185   2.017
  167SAPE  H11B18712   6.363   4.334   1.973
  167SAPE     P18713   6.433   4.473   2.189
  167SAPE   O1318714   6.520   4.530   2.293
  167SAPE   O1418715   6.393   4.562   2.081
  167SAPE   O1218716   6.511   4.350   2.123
  167SAPE   O1118717   6.299   4.412   2.251
  167SAPE    C118718   6.287   4.276   2.308
  167SAPE    HA18719   6.236   4.216   2.230
  167SAPE    HB18720   6.384   4.222   2.315
  167SAPE    C218721   6.206   4.276   2.443
  167SAPE    HS18722   6.232   4.184   2.500
  167SAPE   O2118723   6.061   4.297   2.420
  167SAPE   C2118724   5.988   4.185   2.411
  167SAPE   O2218725   6.036   4.071   2.414
  167SAPE   C2218726   5.841   4.216   2.408
  167SAPE   H2R18727   5.814   4.241   2.303
  167SAPE   H2S18728   5.783   4.127   2.441
  167SAPE    C318729   6.274   4.377   2.541
  167SAPE    HX18730   6.237   4.479   2.519
  167SAPE    HY18731   6.384   4.359   2.540
  167SAPE   O3118732   6.221   4.349   2.674
  167SAPE   C3118733   6.287   4.415   2.770
  167SAPE   O3218734   6.382   4.488   2.751
  167SAPE   C3218735   6.232   4.377   2.909
  167SAPE   H2X18736   6.315   4.314   2.949
  167SAPE   H2Y18737   6.137   4.321   2.899
  167SAPE   C2318738   5.796   4.325   2.510
  167SAPE   H3R18739   5.686   4.318   2.525
  167SAPE   H3S18740   5.824   4.426   2.472
  167SAPE   C2418741   5.849   4.305   2.654
  167SAPE   H4R18742   5.822   4.393   2.716
  167SAPE   H4S18743   5.960   4.309   2.657
  167SAPE   C2518744   5.806   4.177   2.720
  167SAPE   H5R18745   5.874   4.091   2.712
  167SAPE   C2618746   5.689   4.172   2.784
  167SAPE   H6R18747   5.642   4.084   2.832
  167SAPE   C2718748   5.597   4.289   2.807
  167SAPE   H7R18749   5.590   4.345   2.711
  167SAPE   H7S18750   5.637   4.364   2.879
  167SAPE   C2818751   5.457   4.259   2.834
  167SAPE   H8R18752   5.411   4.195   2.757
  167SAPE   C2918753   5.378   4.322   2.924
  167SAPE   H9R18754   5.270   4.298   2.929
  167SAPE  C21018755   5.419   4.418   3.030
  167SAPE  H10R18756   5.350   4.505   3.034
  167SAPE  H10S18757   5.519   4.461   3.005
  167SAPE  C21118758   5.424   4.365   3.172
  167SAPE  H11R18759   5.324   4.361   3.219
  167SAPE  C21218760   5.518   4.298   3.241
  167SAPE  H12R18761   5.496   4.271   3.345
  167SAPE  C21318762   5.653   4.273   3.179
  167SAPE  H13R18763   5.712   4.367   3.173
  167SAPE  H13S18764   5.636   4.241   3.074
  167SAPE  C21418765   5.737   4.166   3.236
  167SAPE  H14R18766   5.733   4.073   3.178
  167SAPE  C21518767   5.818   4.179   3.345
  167SAPE  H15R18768   5.878   4.095   3.384
  167SAPE  C21618769   5.832   4.299   3.438
  167SAPE  H16R18770   5.732   4.346   3.446
  167SAPE  H16S18771   5.899   4.367   3.381
  167SAPE  C21718772   5.898   4.284   3.576
  167SAPE  H17R18773   5.910   4.379   3.632
  167SAPE  H17S18774   6.001   4.250   3.552
  167SAPE  C21818775   5.833   4.178   3.663
  167SAPE  H18R18776   5.874   4.080   3.630
  167SAPE  H18S18777   5.724   4.186   3.641
  167SAPE  C21918778   5.840   4.204   3.816
  167SAPE  H19R18779   5.807   4.308   3.836
  167SAPE  H19S18780   5.949   4.210   3.839
  167SAPE  C22018781   5.762   4.104   3.900
  167SAPE  H20R18782   5.828   4.017   3.924
  167SAPE  H20S18783   5.660   4.069   3.871
  167SAPE  H20T18784   5.756   4.142   4.004
  167SAPE   C3318785   6.223   4.513   2.992
  167SAPE   H3X18786   6.150   4.585   2.949
  167SAPE   H3Y18787   6.320   4.568   2.993
  167SAPE   C3418788   6.176   4.491   3.140
  167SAPE   H4X18789   6.240   4.414   3.188
  167SAPE   H4Y18790   6.075   4.446   3.142
  167SAPE   C3518791   6.185   4.617   3.224
  167SAPE   H5X18792   6.126   4.690   3.164
  167SAPE   H5Y18793   6.291   4.650   3.227
  167SAPE   C3618794   6.117   4.599   3.366
  167SAPE   H6X18795   6.183   4.529   3.422
  167SAPE   H6Y18796   6.022   4.541   3.363
  167SAPE   C3718797   6.108   4.724   3.449
  167SAPE   H7X18798   6.038   4.792   3.395
  167SAPE   H7Y18799   6.210   4.766   3.455
  167SAPE   C3818800   6.051   4.702   3.591
  167SAPE   H8X18801   6.094   4.623   3.656
  167SAPE   H8Y18802   5.942   4.681   3.584
  167SAPE   C3918803   6.066   4.826   3.681
  167SAPE   H9X18804   6.041   4.920   3.628
  167SAPE   H9Y18805   6.176   4.835   3.690
  167SAPE  C31018806   6.005   4.805   3.817
  167SAPE  H10X18807   6.058   4.721   3.867
  167SAPE  H10Y18808   5.906   4.764   3.790
  167SAPE  C31118809   5.989   4.926   3.910
  167SAPE  H11X18810   5.906   4.993   3.878
  167SAPE  H11Y18811   6.081   4.989   3.915
  167SAPE  C31218812   5.959   4.881   4.054
  167SAPE  H12X18813   6.047   4.827   4.096
  167SAPE  H12Y18814   5.870   4.816   4.039
  167SAPE  C31318815   5.920   4.992   4.154
  167SAPE  H13X18816   5.882   4.941   4.245
  167SAPE  H13Y18817   5.848   5.062   4.107
  167SAPE  C31418818   6.046   5.070   4.195
  167SAPE  H14X18819   6.083   5.127   4.107
  167SAPE  H14Y18820   6.130   5.008   4.233
  167SAPE  C31518821   6.013   5.160   4.318
  167SAPE  H15X18822   6.008   5.089   4.404
  167SAPE  H15Y18823   5.923   5.225   4.319
  167SAPE  C31618824   6.126   5.263   4.364
  167SAPE  H16X18825   6.130   5.344   4.288
  167SAPE  H16Y18826   6.227   5.218   4.355
  167SAPE  C31718827   6.094   5.320   4.507
  167SAPE  H17X18828   6.093   5.238   4.582
  167SAPE  H17Y18829   5.993   5.364   4.499
  167SAPE  C31818830   6.199   5.429   4.548
  167SAPE  H18X18831   6.307   5.406   4.537
  167SAPE  H18Y18832   6.175   5.468   4.649
  167SAPE  H18Z18833   6.183   5.523   4.491
  168SAPE     N18834   3.107   0.140   1.896
  168SAPE   HN118835   3.204   0.163   1.924
  168SAPE   HN218836   3.098   0.099   1.800
  168SAPE   HN318837   3.056   0.230   1.895
  168SAPE   C1218838   3.051   0.038   1.986
  168SAPE  H12A18839   3.025   0.090   2.081
  168SAPE  H12B18840   3.129  -0.036   2.013
  168SAPE   C1118841   2.928  -0.028   1.917
  168SAPE  H11A18842   2.900  -0.122   1.968
  168SAPE  H11B18843   2.966  -0.058   1.817
  168SAPE     P18844   2.701   0.065   2.000
  168SAPE   O1318845   2.602   0.168   1.955
  168SAPE   O1418846   2.653  -0.074   2.024
  168SAPE   O1218847   2.819   0.064   1.891
  168SAPE   O1118848   2.785   0.105   2.133
  168SAPE    C118849   2.782   0.242   2.183
  168SAPE    HA18850   2.890   0.263   2.196
  168SAPE    HB18851   2.735   0.310   2.109
  168SAPE    C218852   2.723   0.247   2.330
  168SAPE    HS18853   2.784   0.183   2.396
  168SAPE   O2118854   2.587   0.208   2.320
  168SAPE   C2118855   2.531   0.142   2.419
  168SAPE   O2218856   2.590   0.098   2.519
  168SAPE   C2218857   2.380   0.153   2.387
  168SAPE   H2R18858   2.370   0.203   2.289
  168SAPE   H2S18859   2.345   0.050   2.366
  168SAPE    C318860   2.740   0.395   2.388
  168SAPE    HX18861   2.696   0.463   2.311
  168SAPE    HY18862   2.849   0.419   2.387
  168SAPE   O3118863   2.681   0.420   2.520
  168SAPE   C3118864   2.746   0.373   2.620
  168SAPE   O3218865   2.857   0.325   2.610
  168SAPE   C3218866   2.668   0.387   2.747
  168SAPE   H2X18867   2.559   0.375   2.729
  168SAPE   H2Y18868   2.682   0.494   2.776
  168SAPE   C2318869   2.286   0.216   2.492
  168SAPE   H3R18870   2.197   0.246   2.432
  168SAPE   H3S18871   2.332   0.310   2.532
  168SAPE   C2418872   2.227   0.119   2.599
  168SAPE   H4R18873   2.175   0.038   2.542
  168SAPE   H4S18874   2.146   0.182   2.642
  168SAPE   C2518875   2.310   0.065   2.717
  168SAPE   H5R18876   2.378  -0.009   2.675
  168SAPE   C2618877   2.324   0.104   2.843
  168SAPE   H6R18878   2.403   0.054   2.900
  168SAPE   C2718879   2.267   0.231   2.904
  168SAPE   H7R18880   2.215   0.291   2.826
  168SAPE   H7S18881   2.356   0.286   2.941
  168SAPE   C2818882   2.180   0.200   3.015
  168SAPE   H8R18883   2.093   0.138   2.988
  168SAPE   C2918884   2.186   0.233   3.149
  168SAPE   H9R18885   2.090   0.215   3.199
  168SAPE  C21018886   2.295   0.309   3.230
  168SAPE  H10R18887   2.382   0.316   3.160
  168SAPE  H10S18888   2.339   0.245   3.309
  168SAPE  C21118889   2.267   0.449   3.274
  168SAPE  H11R18890   2.247   0.523   3.195
  168SAPE  C21218891   2.258   0.490   3.400
  168SAPE  H12R18892   2.220   0.589   3.427
  168SAPE  C21318893   2.278   0.397   3.526
  168SAPE  H13R18894   2.338   0.438   3.610
  168SAPE  H13S18895   2.339   0.306   3.502
  168SAPE  C21418896   2.145   0.344   3.576
  168SAPE  H14R18897   2.057   0.380   3.520
  168SAPE  C21518898   2.121   0.285   3.689
  168SAPE  H15R18899   2.018   0.249   3.706
  168SAPE  C21618900   2.232   0.240   3.782
  168SAPE  H16R18901   2.238   0.322   3.856
  168SAPE  H16S18902   2.325   0.252   3.722
  168SAPE  C21718903   2.214   0.100   3.847
  168SAPE  H17R18904   2.236   0.014   3.779
  168SAPE  H17S18905   2.109   0.081   3.877
  168SAPE  C21818906   2.297   0.086   3.973
  168SAPE  H18R18907   2.402   0.117   3.950
  168SAPE  H18S18908   2.299  -0.015   4.020
  168SAPE  C21918909   2.245   0.161   4.097
  168SAPE  H19R18910   2.135   0.144   4.104
  168SAPE  H19S18911   2.257   0.272   4.096
  168SAPE  C22018912   2.312   0.116   4.228
  168SAPE  H20R18913   2.273   0.017   4.258
  168SAPE  H20S18914   2.287   0.195   4.303
  168SAPE  H20T18915   2.422   0.114   4.214
  168SAPE   C3318916   2.710   0.282   2.852
  168SAPE   H3X18917   2.820   0.265   2.844
  168SAPE   H3Y18918   2.665   0.182   2.834
  168SAPE   C3418919   2.681   0.335   2.994
  168SAPE   H4X18920   2.573   0.358   3.005
  168SAPE   H4Y18921   2.739   0.428   3.011
  168SAPE   C3518922   2.714   0.226   3.097
  168SAPE   H5X18923   2.819   0.196   3.075
  168SAPE   H5Y18924   2.648   0.141   3.071
  168SAPE   C3618925   2.680   0.265   3.245
  168SAPE   H6X18926   2.571   0.257   3.269
  168SAPE   H6Y18927   2.715   0.370   3.255
  168SAPE   C3718928   2.764   0.189   3.346
  168SAPE   H7X18929   2.864   0.212   3.304
  168SAPE   H7Y18930   2.738   0.081   3.335
  168SAPE   C3818931   2.760   0.261   3.481
  168SAPE   H8X18932   2.764   0.371   3.463
  168SAPE   H8Y18933   2.847   0.225   3.540
  168SAPE   C3918934   2.631   0.233   3.558
  168SAPE   H9X18935   2.644   0.131   3.601
  168SAPE   H9Y18936   2.543   0.228   3.490
  168SAPE  C31018937   2.612   0.321   3.683
  168SAPE  H10X18938   2.527   0.287   3.746
  168SAPE  H10Y18939   2.590   0.425   3.653
  168SAPE  C31118940   2.736   0.343   3.780
  168SAPE  H11X18941   2.819   0.387   3.721
  168SAPE  H11Y18942   2.755   0.240   3.816
  168SAPE  C31218943   2.697   0.437   3.894
  168SAPE  H12X18944   2.597   0.410   3.935
  168SAPE  H12Y18945   2.674   0.539   3.856
  168SAPE  C31318946   2.787   0.431   4.023
  168SAPE  H13X18947   2.893   0.414   3.995
  168SAPE  H13Y18948   2.751   0.343   4.081
  168SAPE  C31418949   2.763   0.542   4.122
  168SAPE  H14X18950   2.656   0.551   4.150
  168SAPE  H14Y18951   2.804   0.637   4.082
  168SAPE  C31518952   2.826   0.501   4.256
  168SAPE  H15X18953   2.929   0.469   4.228
  168SAPE  H15Y18954   2.768   0.423   4.310
  168SAPE  C31618955   2.841   0.624   4.347
  168SAPE  H16X18956   2.749   0.670   4.388
  168SAPE  H16Y18957   2.880   0.694   4.270
  168SAPE  C31718958   2.940   0.597   4.465
  168SAPE  H17X18959   2.909   0.503   4.517
  168SAPE  H17Y18960   2.924   0.688   4.526
  168SAPE  C31818961   3.091   0.587   4.433
  168SAPE  H18X18962   3.115   0.674   4.369
  168SAPE  H18Y18963   3.104   0.493   4.376
  168SAPE  H18Z18964   3.167   0.573   4.513
  169SAPE     N18965   6.252   3.498   1.721
  169SAPE   HN118966   6.301   3.577   1.767
  169SAPE   HN218967   6.158   3.530   1.690
  169SAPE   HN318968   6.237   3.431   1.799
  169SAPE   C1218969   6.331   3.425   1.614
  169SAPE  H12A18970   6.342   3.500   1.532
  169SAPE  H12B18971   6.262   3.349   1.571
  169SAPE   C1118972   6.463   3.366   1.659
  169SAPE  H11A18973   6.493   3.298   1.577
  169SAPE  H11B18974   6.452   3.308   1.753
  169SAPE     P18975   6.695   3.466   1.758
  169SAPE   O1318976   6.794   3.374   1.697
  169SAPE   O1418977   6.744   3.605   1.775
  169SAPE   O1218978   6.553   3.473   1.682
  169SAPE   O1118979   6.647   3.402   1.891
  169SAPE    C118980   6.541   3.462   1.969
  169SAPE    HA18981   6.481   3.546   1.929
  169SAPE    HB18982   6.470   3.380   1.994
  169SAPE    C218983   6.606   3.498   2.110
  169SAPE    HS18984   6.671   3.414   2.143
  169SAPE   O2118985   6.509   3.495   2.214
  169SAPE   C2118986   6.415   3.591   2.218
  169SAPE   O2218987   6.382   3.661   2.129
  169SAPE   C2218988   6.341   3.580   2.347
  169SAPE   H2R18989   6.258   3.509   2.328
  169SAPE   H2S18990   6.400   3.520   2.420
  169SAPE    C318991   6.697   3.627   2.114
  169SAPE    HX18992   6.627   3.699   2.066
  169SAPE    HY18993   6.776   3.630   2.036
  169SAPE   O3118994   6.755   3.669   2.236
  169SAPE   C3118995   6.871   3.614   2.258
  169SAPE   O3218996   6.930   3.529   2.197
  169SAPE   C3218997   6.922   3.665   2.395
  169SAPE   H2X18998   6.835   3.688   2.461
  169SAPE   H2Y18999   6.975   3.762   2.385
  169SAPE   C2319000   6.277   3.711   2.399
  169SAPE   H3R19001   6.199   3.740   2.326
  169SAPE   H3S19002   6.354   3.792   2.402
  169SAPE   C2419003   6.190   3.705   2.524
  169SAPE   H4R19004   6.102   3.637   2.514
  169SAPE   H4S19005   6.129   3.797   2.527
  169SAPE   C2519006   6.259   3.659   2.649
  169SAPE   H5R19007   6.325   3.572   2.639
  169SAPE   C2619008   6.265   3.715   2.774
  169SAPE   H6R19009   6.299   3.652   2.857
  169SAPE   C2719010   6.192   3.844   2.808
  169SAPE   H7R19011   6.124   3.827   2.894
  169SAPE   H7S19012   6.140   3.885   2.719
  169SAPE   C2819013   6.288   3.949   2.868
  169SAPE   H8R19014   6.387   3.957   2.823
  169SAPE   C2919015   6.248   4.024   2.971
  169SAPE   H9R19016   6.332   4.073   3.022
  169SAPE  C21019017   6.121   4.010   3.046
  169SAPE  H10R19018   6.126   3.906   3.087
  169SAPE  H10S19019   6.048   4.011   2.962
  169SAPE  C21119020   6.084   4.111   3.159
  169SAPE  H11R19021   6.037   4.206   3.131
  169SAPE  C21219022   6.131   4.104   3.285
  169SAPE  H12R19023   6.124   4.192   3.351
  169SAPE  C21319024   6.216   3.993   3.341
  169SAPE  H13R19025   6.263   3.931   3.262
  169SAPE  H13S19026   6.162   3.920   3.406
  169SAPE  C21419027   6.325   4.053   3.425
  169SAPE  H14R19028   6.394   4.114   3.364
  169SAPE  C21519029   6.355   4.022   3.553
  169SAPE  H15R19030   6.445   4.070   3.595
  169SAPE  C21619031   6.288   3.937   3.657
  169SAPE  H16R19032   6.370   3.873   3.694
  169SAPE  H16S19033   6.217   3.863   3.615
  169SAPE  C21719034   6.212   4.002   3.767
  169SAPE  H17R19035   6.123   4.063   3.743
  169SAPE  H17S19036   6.287   4.069   3.816
  169SAPE  C21819037   6.162   3.915   3.884
  169SAPE  H18R19038   6.131   3.990   3.960
  169SAPE  H18S19039   6.241   3.850   3.929
  169SAPE  C21919040   6.044   3.821   3.858
  169SAPE  H19R19041   6.088   3.754   3.781
  169SAPE  H19S19042   5.969   3.896   3.823
  169SAPE  C22019043   6.007   3.735   3.978
  169SAPE  H20R19044   6.093   3.673   4.009
  169SAPE  H20S19045   5.931   3.656   3.959
  169SAPE  H20T19046   5.977   3.804   4.060
  169SAPE   C3319047   7.008   3.563   2.471
  169SAPE   H3X19048   7.110   3.561   2.428
  169SAPE   H3Y19049   6.964   3.461   2.458
  169SAPE   C3419050   7.013   3.602   2.617
  169SAPE   H4X19051   6.908   3.594   2.653
  169SAPE   H4Y19052   7.048   3.706   2.628
  169SAPE   C3519053   7.115   3.516   2.692
  169SAPE   H5X19054   7.216   3.534   2.648
  169SAPE   H5Y19055   7.103   3.407   2.679
  169SAPE   C3619056   7.113   3.536   2.842
  169SAPE   H6X19057   7.158   3.632   2.877
  169SAPE   H6Y19058   7.193   3.468   2.879
  169SAPE   C3719059   6.978   3.508   2.906
  169SAPE   H7X19060   6.944   3.402   2.898
  169SAPE   H7Y19061   6.905   3.579   2.863
  169SAPE   C3819062   6.971   3.543   3.061
  169SAPE   H8X19063   6.884   3.502   3.118
  169SAPE   H8Y19064   6.967   3.654   3.060
  169SAPE   C3919065   7.106   3.487   3.136
  169SAPE   H9X19066   7.195   3.543   3.102
  169SAPE   H9Y19067   7.113   3.377   3.121
  169SAPE  C31019068   7.099   3.513   3.284
  169SAPE  H10X19069   7.009   3.468   3.332
  169SAPE  H10Y19070   7.098   3.623   3.299
  169SAPE  C31119071   7.228   3.474   3.349
  169SAPE  H11X19072   7.313   3.480   3.277
  169SAPE  H11Y19073   7.219   3.366   3.374
  169SAPE  C31219074   7.259   3.548   3.479
  169SAPE  H12X19075   7.166   3.568   3.536
  169SAPE  H12Y19076   7.306   3.647   3.462
  169SAPE  C31319077   7.343   3.472   3.578
  169SAPE  H13X19078   7.377   3.546   3.653
  169SAPE  H13Y19079   7.436   3.446   3.522
  169SAPE  C31419080   7.266   3.360   3.645
  169SAPE  H14X19081   7.270   3.273   3.576
  169SAPE  H14Y19082   7.160   3.390   3.661
  169SAPE  C31519083   7.335   3.304   3.773
  169SAPE  H15X19084   7.306   3.354   3.868
  169SAPE  H15Y19085   7.443   3.325   3.760
  169SAPE  C31619086   7.292   3.159   3.790
  169SAPE  H16X19087   7.328   3.102   3.702
  169SAPE  H16Y19088   7.182   3.149   3.789
  169SAPE  C31719089   7.346   3.098   3.917
  169SAPE  H17X19090   7.281   3.130   4.001
  169SAPE  H17Y19091   7.448   3.139   3.936
  169SAPE  C31819092   7.360   2.946   3.914
  169SAPE  H18X19093   7.388   2.910   4.016
  169SAPE  H18Y19094   7.440   2.913   3.844
  169SAPE  H18Z19095   7.262   2.904   3.884
  170SAPE     N19096   6.504   6.109   2.119
  170SAPE   HN119097   6.540   6.206   2.105
  170SAPE   HN219098   6.403   6.106   2.142
  170SAPE   HN319099   6.548   6.064   2.202
  170SAPE   C1219100   6.544   6.013   2.011
  170SAPE  H12A19101   6.469   6.022   1.930
  170SAPE  H12B19102   6.544   5.911   2.055
  170SAPE   C1119103   6.693   6.036   1.966
  170SAPE  H11A19104   6.749   6.052   2.060
  170SAPE  H11B19105   6.695   6.131   1.907
  170SAPE     P19106   6.892   5.940   1.818
  170SAPE   O1319107   6.918   5.823   1.735
  170SAPE   O1419108   6.896   6.070   1.748
  170SAPE   O1219109   6.750   5.931   1.886
  170SAPE   O1119110   6.988   5.953   1.940
  170SAPE    C119111   7.011   5.836   2.017
  170SAPE    HA19112   6.928   5.765   1.999
  170SAPE    HB19113   7.103   5.783   1.983
  170SAPE    C219114   7.016   5.843   2.176
  170SAPE    HS19115   6.913   5.868   2.209
  170SAPE   O2119116   7.110   5.955   2.215
  170SAPE   C2119117   7.070   6.030   2.317
  170SAPE   O2219118   6.967   6.013   2.379
  170SAPE   C2219119   7.167   6.146   2.327
  170SAPE   H2R19120   7.254   6.132   2.259
  170SAPE   H2S19121   7.121   6.240   2.288
  170SAPE    C319122   7.068   5.714   2.245
  170SAPE    HX19123   7.175   5.715   2.214
  170SAPE    HY19124   7.022   5.620   2.209
  170SAPE   O3119125   7.067   5.728   2.384
  170SAPE   C3119126   6.941   5.696   2.436
  170SAPE   O3219127   6.845   5.664   2.370
  170SAPE   C3219128   6.932   5.714   2.588
  170SAPE   H2X19129   6.957   5.819   2.616
  170SAPE   H2Y19130   7.017   5.660   2.635
  170SAPE   C2319131   7.207   6.171   2.476
  170SAPE   H3R19132   7.121   6.156   2.546
  170SAPE   H3S19133   7.230   6.279   2.479
  170SAPE   C2419134   7.328   6.091   2.532
  170SAPE   H4R19135   7.344   6.132   2.635
  170SAPE   H4S19136   7.420   6.112   2.473
  170SAPE   C2519137   7.309   5.942   2.533
  170SAPE   H5R19138   7.330   5.885   2.442
  170SAPE   C2619139   7.245   5.871   2.624
  170SAPE   H6R19140   7.246   5.762   2.609
  170SAPE   C2719141   7.201   5.925   2.757
  170SAPE   H7R19142   7.099   5.884   2.775
  170SAPE   H7S19143   7.195   6.036   2.763
  170SAPE   C2819144   7.289   5.876   2.868
  170SAPE   H8R19145   7.368   5.805   2.837
  170SAPE   C2919146   7.264   5.885   3.001
  170SAPE   H9R19147   7.325   5.836   3.078
  170SAPE  C21019148   7.140   5.949   3.065
  170SAPE  H10R19149   7.085   5.861   3.105
  170SAPE  H10S19150   7.070   6.002   2.997
  170SAPE  C21119151   7.182   6.044   3.182
  170SAPE  H11R19152   7.265   6.112   3.154
  170SAPE  C21219153   7.105   6.067   3.296
  170SAPE  H12R19154   7.146   6.144   3.362
  170SAPE  C21319155   6.982   5.991   3.344
  170SAPE  H13R19156   7.003   5.897   3.399
  170SAPE  H13S19157   6.915   5.951   3.265
  170SAPE  C21419158   6.895   6.082   3.417
  170SAPE  H14R19159   6.844   6.154   3.351
  170SAPE  C21519160   6.864   6.084   3.551
  170SAPE  H15R19161   6.788   6.158   3.581
  170SAPE  C21619162   6.914   5.985   3.657
  170SAPE  H16R19163   7.024   5.997   3.671
  170SAPE  H16S19164   6.887   5.883   3.621
  170SAPE  C21719165   6.854   5.994   3.799
  170SAPE  H17R19166   6.890   5.907   3.858
  170SAPE  H17S19167   6.744   5.991   3.788
  170SAPE  C21819168   6.886   6.123   3.863
  170SAPE  H18R19169   6.842   6.202   3.798
  170SAPE  H18S19170   6.994   6.143   3.881
  170SAPE  C21919171   6.827   6.138   4.002
  170SAPE  H19R19172   6.821   6.038   4.050
  170SAPE  H19S19173   6.722   6.172   4.016
  170SAPE  C22019174   6.911   6.225   4.092
  170SAPE  H20R19175   6.903   6.333   4.068
  170SAPE  H20S19176   7.016   6.194   4.108
  170SAPE  H20T19177   6.861   6.224   4.191
  170SAPE   C3319178   6.792   5.693   2.655
  170SAPE   H3X19179   6.727   5.649   2.576
  170SAPE   H3Y19180   6.738   5.786   2.685
  170SAPE   C3419181   6.793   5.594   2.769
  170SAPE   H4X19182   6.846   5.499   2.746
  170SAPE   H4Y19183   6.689   5.563   2.794
  170SAPE   C3519184   6.861   5.651   2.892
  170SAPE   H5X19185   6.839   5.760   2.901
  170SAPE   H5Y19186   6.972   5.644   2.886
  170SAPE   C3619187   6.807   5.576   3.013
  170SAPE   H6X19188   6.812   5.467   2.995
  170SAPE   H6Y19189   6.699   5.602   3.016
  170SAPE   C3719190   6.864   5.626   3.149
  170SAPE   H7X19191   6.854   5.736   3.160
  170SAPE   H7Y19192   6.970   5.594   3.137
  170SAPE   C3819193   6.780   5.574   3.263
  170SAPE   H8X19194   6.790   5.464   3.270
  170SAPE   H8Y19195   6.672   5.598   3.251
  170SAPE   C3919196   6.828   5.624   3.399
  170SAPE   H9X19197   6.793   5.730   3.405
  170SAPE   H9Y19198   6.939   5.625   3.399
  170SAPE  C31019199   6.786   5.548   3.526
  170SAPE  H10X19200   6.827   5.445   3.523
  170SAPE  H10Y19201   6.675   5.553   3.522
  170SAPE  C31119202   6.830   5.604   3.661
  170SAPE  H11X19203   6.783   5.704   3.673
  170SAPE  H11Y19204   6.941   5.612   3.664
  170SAPE  C31219205   6.801   5.522   3.785
  170SAPE  H12X19206   6.694   5.492   3.780
  170SAPE  H12Y19207   6.805   5.580   3.880
  170SAPE  C31319208   6.894   5.395   3.797
  170SAPE  H13X19209   6.901   5.338   3.703
  170SAPE  H13Y19210   6.838   5.326   3.863
  170SAPE  C31419211   7.036   5.427   3.855
  170SAPE  H14X19212   7.021   5.477   3.953
  170SAPE  H14Y19213   7.089   5.490   3.781
  170SAPE  C31519214   7.117   5.303   3.900
  170SAPE  H15X19215   7.220   5.334   3.926
  170SAPE  H15Y19216   7.125   5.241   3.808
  170SAPE  C31619217   7.054   5.222   4.003
  170SAPE  H16X19218   6.959   5.184   3.959
  170SAPE  H16Y19219   7.030   5.280   4.094
  170SAPE  C31719220   7.140   5.101   4.038
  170SAPE  H17X19221   7.172   5.038   3.952
  170SAPE  H17Y19222   7.083   5.037   4.109
  170SAPE  C31819223   7.268   5.146   4.107
  170SAPE  H18X19224   7.316   5.060   4.158
  170SAPE  H18Y19225   7.245   5.224   4.183
  170SAPE  H18Z19226   7.340   5.176   4.028
  171SAPE     N19227   0.792   4.957   2.097
  171SAPE   HN119228   0.773   4.904   2.009
  171SAPE   HN219229   0.832   5.045   2.059
  171SAPE   HN319230   0.861   4.892   2.139
  171SAPE   C1219231   0.675   4.979   2.189
  171SAPE  H12A19232   0.661   4.882   2.240
  171SAPE  H12B19233   0.579   5.009   2.140
  171SAPE   C1119234   0.703   5.100   2.282
  171SAPE  H11A19235   0.797   5.081   2.338
  171SAPE  H11B19236   0.614   5.098   2.348
  171SAPE     P19237   0.608   5.331   2.182
  171SAPE   O1319238   0.654   5.465   2.233
  171SAPE   O1419239   0.558   5.331   2.044
  171SAPE   O1219240   0.716   5.220   2.206
  171SAPE   O1119241   0.487   5.285   2.279
  171SAPE    C119242   0.388   5.376   2.327
  171SAPE    HA19243   0.416   5.482   2.314
  171SAPE    HB19244   0.295   5.351   2.271
  171SAPE    C219245   0.353   5.353   2.477
  171SAPE    HS19246   0.305   5.446   2.516
  171SAPE   O2119247   0.469   5.308   2.554
  171SAPE   C2119248   0.549   5.405   2.581
  171SAPE   O2219249   0.525   5.524   2.553
  171SAPE   C2219250   0.675   5.352   2.647
  171SAPE   H2R19251   0.728   5.279   2.582
  171SAPE   H2S19252   0.745   5.438   2.654
  171SAPE    C319253   0.238   5.247   2.496
  171SAPE    HX19254   0.271   5.156   2.443
  171SAPE    HY19255   0.154   5.295   2.440
  171SAPE   O3119256   0.209   5.237   2.634
  171SAPE   C3119257   0.275   5.143   2.702
  171SAPE   O3219258   0.326   5.042   2.653
  171SAPE   C3219259   0.231   5.162   2.842
  171SAPE   H2X19260   0.120   5.169   2.841
  171SAPE   H2Y19261   0.258   5.261   2.884
  171SAPE   C2319262   0.649   5.274   2.782
  171SAPE   H3R19263   0.737   5.207   2.790
  171SAPE   H3S19264   0.556   5.213   2.781
  171SAPE   C2419265   0.659   5.385   2.898
  171SAPE   H4R19266   0.759   5.432   2.895
  171SAPE   H4S19267   0.669   5.333   2.996
  171SAPE   C2519268   0.539   5.485   2.907
  171SAPE   H5R19269   0.502   5.529   2.813
  171SAPE   C2619270   0.479   5.520   3.021
  171SAPE   H6R19271   0.399   5.595   3.021
  171SAPE   C2719272   0.501   5.462   3.159
  171SAPE   H7R19273   0.545   5.361   3.167
  171SAPE   H7S19274   0.405   5.440   3.211
  171SAPE   C2819275   0.584   5.559   3.247
  171SAPE   H8R19276   0.690   5.562   3.218
  171SAPE   C2919277   0.540   5.627   3.353
  171SAPE   H9R19278   0.620   5.685   3.402
  171SAPE  C21019279   0.409   5.606   3.414
  171SAPE  H10R19280   0.403   5.501   3.451
  171SAPE  H10S19281   0.336   5.627   3.334
  171SAPE  C21119282   0.394   5.700   3.535
  171SAPE  H11R19283   0.320   5.779   3.512
  171SAPE  C21219284   0.470   5.690   3.643
  171SAPE  H12R19285   0.448   5.769   3.716
  171SAPE  C21319286   0.561   5.583   3.682
  171SAPE  H13R19287   0.621   5.539   3.600
  171SAPE  H13S19288   0.500   5.498   3.718
  171SAPE  C21419289   0.663   5.618   3.780
  171SAPE  H14R19290   0.766   5.620   3.741
  171SAPE  C21519291   0.656   5.612   3.918
  171SAPE  H15R19292   0.750   5.628   3.973
  171SAPE  C21619293   0.544   5.593   4.011
  171SAPE  H16R19294   0.448   5.564   3.963
  171SAPE  H16S19295   0.527   5.689   4.064
  171SAPE  C21719296   0.576   5.502   4.125
  171SAPE  H17R19297   0.617   5.408   4.083
  171SAPE  H17S19298   0.480   5.468   4.170
  171SAPE  C21819299   0.670   5.568   4.235
  171SAPE  H18R19300   0.630   5.665   4.272
  171SAPE  H18S19301   0.763   5.598   4.182
  171SAPE  C21919302   0.698   5.481   4.358
  171SAPE  H19R19303   0.729   5.379   4.325
  171SAPE  H19S19304   0.606   5.463   4.418
  171SAPE  C22019305   0.822   5.524   4.446
  171SAPE  H20R19306   0.805   5.483   4.548
  171SAPE  H20S19307   0.825   5.635   4.443
  171SAPE  H20T19308   0.918   5.470   4.426
  171SAPE   C3319309   0.291   5.066   2.944
  171SAPE   H3X19310   0.401   5.058   2.933
  171SAPE   H3Y19311   0.246   4.968   2.918
  171SAPE   C3419312   0.256   5.102   3.093
  171SAPE   H4X19313   0.302   5.201   3.117
  171SAPE   H4Y19314   0.310   5.023   3.149
  171SAPE   C3519315   0.106   5.139   3.118
  171SAPE   H5X19316   0.035   5.057   3.091
  171SAPE   H5Y19317   0.090   5.224   3.048
  171SAPE   C3619318   0.081   5.178   3.260
  171SAPE   H6X19319  -0.012   5.239   3.256
  171SAPE   H6Y19320   0.167   5.230   3.308
  171SAPE   C3719321   0.030   5.056   3.342
  171SAPE   H7X19322   0.096   4.967   3.327
  171SAPE   H7Y19323  -0.071   5.017   3.317
  171SAPE   C3819324   0.019   5.097   3.489
  171SAPE   H8X19325  -0.038   5.192   3.478
  171SAPE   H8Y19326   0.108   5.137   3.542
  171SAPE   C3919327  -0.032   4.986   3.580
  171SAPE   H9X19328   0.045   4.908   3.562
  171SAPE   H9Y19329  -0.133   4.951   3.551
  171SAPE  C31019330  -0.034   5.027   3.729
  171SAPE  H10X19331  -0.089   5.123   3.741
  171SAPE  H10Y19332   0.069   5.040   3.768
  171SAPE  C31119333  -0.097   4.928   3.823
  171SAPE  H11X19334  -0.019   4.849   3.814
  171SAPE  H11Y19335  -0.188   4.884   3.779
  171SAPE  C31219336  -0.114   4.985   3.961
  171SAPE  H12X19337  -0.182   5.073   3.966
  171SAPE  H12Y19338  -0.011   5.018   3.988
  171SAPE  C31319339  -0.151   4.872   4.063
  171SAPE  H13X19340  -0.075   4.791   4.056
  171SAPE  H13Y19341  -0.245   4.834   4.019
  171SAPE  C31419342  -0.155   4.925   4.212
  171SAPE  H14X19343  -0.209   4.849   4.272
  171SAPE  H14Y19344  -0.210   5.021   4.220
  171SAPE  C31519345  -0.023   4.982   4.274
  171SAPE  H15X19346   0.016   5.080   4.238
  171SAPE  H15Y19347   0.064   4.921   4.239
  171SAPE  C31619348  -0.036   4.983   4.425
  171SAPE  H16X19349  -0.060   4.882   4.463
  171SAPE  H16Y19350  -0.122   5.050   4.447
  171SAPE  C31719351   0.080   5.052   4.497
  171SAPE  H17X19352   0.033   5.081   4.593
  171SAPE  H17Y19353   0.110   5.146   4.446
  171SAPE  C31819354   0.192   4.958   4.523
  171SAPE  H18X19355   0.267   5.008   4.587
  171SAPE  H18Y19356   0.246   4.936   4.428
  171SAPE  H18Z19357   0.155   4.860   4.562
  172SAPE     N19358   0.292   6.241   1.758
  172SAPE   HN119359   0.206   6.183   1.763
  172SAPE   HN219360   0.333   6.231   1.663
  172SAPE   HN319361   0.348   6.206   1.838
  172SAPE   C1219362   0.265   6.384   1.794
  172SAPE  H12A19363   0.200   6.434   1.719
  172SAPE  H12B19364   0.361   6.440   1.791
  172SAPE   C1119365   0.206   6.396   1.942
  172SAPE  H11A19366   0.191   6.505   1.954
  172SAPE  H11B19367   0.273   6.364   2.025
  172SAPE     P19368  -0.031   6.407   2.044
  172SAPE   O1319369  -0.080   6.516   1.955
  172SAPE   O1419370  -0.135   6.312   2.101
  172SAPE   O1219371   0.083   6.325   1.962
  172SAPE   O1119372   0.051   6.476   2.162
  172SAPE    C119373   0.067   6.404   2.287
  172SAPE    HA19374   0.070   6.294   2.271
  172SAPE    HB19375   0.153   6.438   2.348
  172SAPE    C219376  -0.064   6.427   2.371
  172SAPE    HS19377  -0.145   6.385   2.308
  172SAPE   O2119378  -0.085   6.569   2.395
  172SAPE   C2119379  -0.209   6.600   2.420
  172SAPE   O2219380  -0.309   6.532   2.401
  172SAPE   C2219381  -0.220   6.730   2.498
  172SAPE   H2R19382  -0.210   6.810   2.422
  172SAPE   H2S19383  -0.321   6.740   2.543
  172SAPE    C319384  -0.056   6.349   2.508
  172SAPE    HX19385   0.030   6.393   2.563
  172SAPE    HY19386  -0.040   6.242   2.483
  172SAPE   O3119387  -0.178   6.369   2.588
  172SAPE   C3119388  -0.286   6.290   2.564
  172SAPE   O3219389  -0.280   6.192   2.487
  172SAPE   C3219390  -0.399   6.339   2.654
  172SAPE   H2X19391  -0.461   6.252   2.687
  172SAPE   H2Y19392  -0.456   6.419   2.603
  172SAPE   C2319393  -0.101   6.767   2.597
  172SAPE   H3R19394  -0.099   6.878   2.597
  172SAPE   H3S19395  -0.007   6.730   2.550
  172SAPE   C2419396  -0.116   6.721   2.744
  172SAPE   H4R19397  -0.014   6.730   2.789
  172SAPE   H4S19398  -0.145   6.614   2.739
  172SAPE   C2519399  -0.221   6.805   2.813
  172SAPE   H5R19400  -0.324   6.774   2.792
  172SAPE   C2619401  -0.195   6.881   2.923
  172SAPE   H6R19402  -0.280   6.923   2.979
  172SAPE   C2719403  -0.063   6.911   2.992
  172SAPE   H7R19404  -0.052   7.020   3.010
  172SAPE   H7S19405   0.027   6.892   2.930
  172SAPE   C2819406  -0.062   6.826   3.125
  172SAPE   H8R19407  -0.112   6.731   3.101
  172SAPE   C2919408  -0.009   6.858   3.245
  172SAPE   H9R19409  -0.036   6.801   3.335
  172SAPE  C21019410   0.074   6.984   3.265
  172SAPE  H10R19411   0.015   7.076   3.248
  172SAPE  H10S19412   0.163   6.984   3.198
  172SAPE  C21119413   0.118   6.994   3.407
  172SAPE  H11R19414   0.090   6.910   3.473
  172SAPE  C21219415   0.181   7.103   3.452
  172SAPE  H12R19416   0.205   7.102   3.560
  172SAPE  C21319417   0.203   7.226   3.364
  172SAPE  H13R19418   0.112   7.289   3.353
  172SAPE  H13S19419   0.236   7.191   3.264
  172SAPE  C21419420   0.300   7.330   3.423
  172SAPE  H14R19421   0.395   7.329   3.368
  172SAPE  C21519422   0.303   7.403   3.539
  172SAPE  H15R19423   0.384   7.471   3.568
  172SAPE  C21619424   0.190   7.400   3.639
  172SAPE  H16R19425   0.120   7.316   3.616
  172SAPE  H16S19426   0.129   7.491   3.623
  172SAPE  C21719427   0.244   7.387   3.784
  172SAPE  H17R19428   0.334   7.322   3.789
  172SAPE  H17S19429   0.167   7.349   3.853
  172SAPE  C21819430   0.291   7.527   3.842
  172SAPE  H18R19431   0.203   7.583   3.879
  172SAPE  H18S19432   0.341   7.589   3.764
  172SAPE  C21919433   0.380   7.511   3.964
  172SAPE  H19R19434   0.475   7.462   3.933
  172SAPE  H19S19435   0.339   7.438   4.037
  172SAPE  C22019436   0.429   7.634   4.042
  172SAPE  H20R19437   0.340   7.697   4.063
  172SAPE  H20S19438   0.503   7.690   3.981
  172SAPE  H20T19439   0.480   7.616   4.139
  172SAPE   C3319440  -0.356   6.403   2.796
  172SAPE   H3X19441  -0.343   6.513   2.787
  172SAPE   H3Y19442  -0.255   6.367   2.825
  172SAPE   C3419443  -0.434   6.363   2.920
  172SAPE   H4X19444  -0.439   6.252   2.919
  172SAPE   H4Y19445  -0.535   6.407   2.917
  172SAPE   C3519446  -0.378   6.412   3.063
  172SAPE   H5X19447  -0.447   6.361   3.134
  172SAPE   H5Y19448  -0.378   6.522   3.074
  172SAPE   C3619449  -0.235   6.369   3.094
  172SAPE   H6X19450  -0.157   6.434   3.049
  172SAPE   H6Y19451  -0.221   6.265   3.057
  172SAPE   C3719452  -0.204   6.371   3.249
  172SAPE   H7X19453  -0.096   6.342   3.250
  172SAPE   H7Y19454  -0.259   6.291   3.303
  172SAPE   C3819455  -0.221   6.501   3.327
  172SAPE   H8X19456  -0.323   6.543   3.329
  172SAPE   H8Y19457  -0.151   6.572   3.277
  172SAPE   C3919458  -0.168   6.492   3.470
  172SAPE   H9X19459  -0.148   6.588   3.522
  172SAPE   H9Y19460  -0.083   6.421   3.471
  172SAPE  C31019461  -0.261   6.406   3.570
  172SAPE  H10X19462  -0.280   6.307   3.523
  172SAPE  H10Y19463  -0.353   6.464   3.591
  172SAPE  C31119464  -0.193   6.364   3.702
  172SAPE  H11X19465  -0.089   6.329   3.681
  172SAPE  H11Y19466  -0.248   6.279   3.748
  172SAPE  C31219467  -0.199   6.482   3.799
  172SAPE  H12X19468  -0.301   6.522   3.811
  172SAPE  H12Y19469  -0.154   6.566   3.740
  172SAPE  C31319470  -0.123   6.456   3.929
  172SAPE  H13X19471  -0.016   6.435   3.908
  172SAPE  H13Y19472  -0.172   6.367   3.974
  172SAPE  C31419473  -0.127   6.583   4.015
  172SAPE  H14X19474  -0.235   6.605   4.024
  172SAPE  H14Y19475  -0.074   6.659   3.954
  172SAPE  C31519476  -0.052   6.568   4.152
  172SAPE  H15X19477   0.050   6.525   4.142
  172SAPE  H15Y19478  -0.111   6.497   4.214
  172SAPE  C31619479  -0.041   6.697   4.230
  172SAPE  H16X19480  -0.141   6.729   4.269
  172SAPE  H16Y19481  -0.004   6.773   4.158
  172SAPE  C31719482   0.065   6.707   4.343
  172SAPE  H17X19483   0.158   6.662   4.303
  172SAPE  H17Y19484   0.022   6.653   4.431
  172SAPE  C31819485   0.084   6.850   4.382
  172SAPE  H18X19486   0.140   6.859   4.477
  172SAPE  H18Y19487  -0.008   6.912   4.391
  172SAPE  H18Z19488   0.142   6.901   4.303
  173SLPC     N19489   5.955   1.207   6.586
  173SLPC   C1319490   5.975   1.068   6.592
  173SLPC  H13A19491   6.011   1.026   6.500
  173SLPC  H13B19492   6.029   1.046   6.683
  173SLPC  H13C19493   5.882   1.012   6.596
  173SLPC   C1419494   5.858   1.252   6.695
  173SLPC  H14A19495   5.765   1.197   6.687
  173SLPC  H14B19496   5.885   1.226   6.797
  173SLPC  H14C19497   5.843   1.358   6.699
  173SLPC   C1519498   5.889   1.244   6.456
  173SLPC  H15A19499   5.912   1.342   6.418
  173SLPC  H15B19500   5.914   1.175   6.376
  173SLPC  H15C19501   5.782   1.234   6.466
  173SLPC   C1219502   6.078   1.284   6.597
  173SLPC  H12A19503   6.123   1.265   6.693
  173SLPC  H12B19504   6.061   1.390   6.597
  173SLPC   C1119505   6.178   1.260   6.492
  173SLPC  H11A19506   6.134   1.265   6.390
  173SLPC  H11B19507   6.218   1.156   6.485
  173SLPC     P19508   6.248   1.508   6.438
  173SLPC   O1319509   6.128   1.569   6.505
  173SLPC   O1419510   6.371   1.590   6.429
  173SLPC   O1219511   6.282   1.363   6.506
  173SLPC   O1119512   6.219   1.468   6.289
  173SLPC    C119513   6.308   1.413   6.189
  173SLPC    HA19514   6.400   1.384   6.244
  173SLPC    HB19515   6.267   1.319   6.147
  173SLPC    C219516   6.354   1.504   6.073
  173SLPC    HS19517   6.362   1.608   6.113
  173SLPC   O2119518   6.245   1.506   5.974
  173SLPC   C2119519   6.265   1.599   5.879
  173SLPC   O2219520   6.357   1.681   5.885
  173SLPC   C2219521   6.167   1.565   5.768
  173SLPC   H2R19522   6.221   1.499   5.697
  173SLPC   H2S19523   6.071   1.518   5.798
  173SLPC    C319524   6.492   1.461   6.012
  173SLPC    HX19525   6.565   1.453   6.095
  173SLPC    HY19526   6.525   1.537   5.938
  173SLPC   O3119527   6.484   1.327   5.965
  173SLPC   C3119528   6.462   1.310   5.833
  173SLPC   O3219529   6.437   1.393   5.749
  173SLPC   C3219530   6.476   1.164   5.799
  173SLPC   H2X19531   6.396   1.098   5.840
  173SLPC   H2Y19532   6.577   1.140   5.837
  173SLPC   C2319533   6.151   1.692   5.683
  173SLPC   H3R19534   6.244   1.721   5.629
  173SLPC   H3S19535   6.122   1.767   5.760
  173SLPC   C2419536   6.023   1.690   5.589
  173SLPC   H4R19537   5.935   1.672   5.654
  173SLPC   H4S19538   6.029   1.608   5.515
  173SLPC   C2519539   5.996   1.811   5.506
  173SLPC   H5R19540   6.083   1.828   5.438
  173SLPC   H5S19541   5.999   1.907   5.562
  173SLPC   C2619542   5.872   1.803   5.421
  173SLPC   H6R19543   5.786   1.812   5.491
  173SLPC   H6S19544   5.880   1.698   5.384
  173SLPC   C2719545   5.863   1.898   5.303
  173SLPC   H7R19546   5.769   1.874   5.248
  173SLPC   H7S19547   5.950   1.886   5.235
  173SLPC   C2819548   5.865   2.056   5.342
  173SLPC   H8R19549   5.854   2.109   5.245
  173SLPC   H8S19550   5.957   2.084   5.397
  173SLPC   C2919551   5.750   2.092   5.434
  173SLPC   H9R19552   5.733   2.031   5.523
  173SLPC  C21019553   5.682   2.214   5.423
  173SLPC  H10R19554   5.604   2.236   5.497
  173SLPC  C21119555   5.692   2.314   5.305
  173SLPC  H11R19556   5.800   2.319   5.282
  173SLPC  H11S19557   5.670   2.413   5.350
  173SLPC  C21219558   5.607   2.275   5.182
  173SLPC  H12R19559   5.624   2.172   5.147
  173SLPC  C21319560   5.553   2.357   5.093
  173SLPC  H13R19561   5.502   2.329   4.999
  173SLPC  C21419562   5.536   2.504   5.111
  173SLPC  H14R19563   5.601   2.555   5.036
  173SLPC  H14S19564   5.580   2.547   5.204
  173SLPC  C21519565   5.393   2.546   5.104
  173SLPC  H15R19566   5.341   2.487   5.025
  173SLPC  H15S19567   5.381   2.649   5.065
  173SLPC  C21619568   5.319   2.538   5.234
  173SLPC  H16R19569   5.342   2.627   5.296
  173SLPC  H16S19570   5.352   2.450   5.293
  173SLPC  C21719571   5.166   2.530   5.202
  173SLPC  H17R19572   5.150   2.460   5.118
  173SLPC  H17S19573   5.129   2.633   5.181
  173SLPC  C21819574   5.094   2.491   5.330
  173SLPC  H18R19575   5.130   2.393   5.369
  173SLPC  H18S19576   4.985   2.476   5.314
  173SLPC  H18T19577   5.115   2.565   5.411
  173SLPC   C3319578   6.477   1.143   5.645
  173SLPC   H3X19579   6.552   1.208   5.595
  173SLPC   H3Y19580   6.385   1.186   5.598
  173SLPC   C3419581   6.494   1.000   5.604
  173SLPC   H4X19582   6.398   0.955   5.636
  173SLPC   H4Y19583   6.580   0.949   5.654
  173SLPC   C3519584   6.491   0.993   5.451
  173SLPC   H5X19585   6.525   0.894   5.414
  173SLPC   H5Y19586   6.562   1.069   5.411
  173SLPC   C3619587   6.351   1.010   5.392
  173SLPC   H6X19588   6.303   1.099   5.437
  173SLPC   H6Y19589   6.279   0.926   5.407
  173SLPC   C3719590   6.352   1.041   5.235
  173SLPC   H7X19591   6.374   1.150   5.230
  173SLPC   H7Y19592   6.248   1.029   5.199
  173SLPC   C3819593   6.454   0.967   5.154
  173SLPC   H8X19594   6.556   0.987   5.194
  173SLPC   H8Y19595   6.456   1.006   5.050
  173SLPC   C3919596   6.425   0.816   5.146
  173SLPC   H9X19597   6.336   0.788   5.085
  173SLPC   H9Y19598   6.423   0.776   5.249
  173SLPC  C31019599   6.536   0.735   5.064
  173SLPC  H10X19600   6.494   0.632   5.060
  173SLPC  H10Y19601   6.626   0.741   5.129
  173SLPC  C31119602   6.547   0.789   4.916
  173SLPC  H11X19603   6.577   0.895   4.924
  173SLPC  H11Y19604   6.449   0.770   4.868
  173SLPC  C31219605   6.648   0.710   4.831
  173SLPC  H12X19606   6.644   0.604   4.864
  173SLPC  H12Y19607   6.753   0.744   4.843
  173SLPC  C31319608   6.607   0.694   4.687
  173SLPC  H13X19609   6.508   0.646   4.676
  173SLPC  H13Y19610   6.686   0.625   4.651
  173SLPC  C31419611   6.617   0.826   4.606
  173SLPC  H14X19612   6.524   0.881   4.632
  173SLPC  H14Y19613   6.625   0.817   4.496
  173SLPC  C31519614   6.740   0.919   4.645
  173SLPC  H15X19615   6.836   0.863   4.646
  173SLPC  H15Y19616   6.732   0.951   4.751
  173SLPC  C31619617   6.746   1.039   4.544
  173SLPC  H16X19618   6.641   1.063   4.517
  173SLPC  H16Y19619   6.796   0.995   4.455
  173SLPC  C31719620   6.827   1.161   4.583
  173SLPC  H17X19621   6.935   1.137   4.576
  173SLPC  H17Y19622   6.802   1.193   4.687
  173SLPC  C31819623   6.781   1.282   4.501
  173SLPC  H18X19624   6.672   1.297   4.494
  173SLPC  H18Y19625   6.824   1.272   4.399
  173SLPC  H18Z19626   6.818   1.374   4.551
  174SLPC     N19627   2.136   1.421   6.429
  174SLPC   C1319628   2.059   1.402   6.293
  174SLPC  H13A19629   1.973   1.344   6.321
  174SLPC  H13B19630   2.034   1.494   6.241
  174SLPC  H13C19631   2.113   1.346   6.219
  174SLPC   C1419632   2.252   1.519   6.396
  174SLPC  H14A19633   2.327   1.471   6.334
  174SLPC  H14B19634   2.206   1.603   6.345
  174SLPC  H14C19635   2.302   1.562   6.482
  174SLPC   C1519636   2.183   1.291   6.472
  174SLPC  H15A19637   2.263   1.267   6.404
  174SLPC  H15B19638   2.226   1.281   6.570
  174SLPC  H15C19639   2.102   1.220   6.482
  174SLPC   C1219640   2.038   1.485   6.530
  174SLPC  H12A19641   2.092   1.529   6.612
  174SLPC  H12B19642   1.977   1.412   6.581
  174SLPC   C1119643   1.946   1.601   6.470
  174SLPC  H11A19644   1.891   1.633   6.561
  174SLPC  H11B19645   1.871   1.550   6.406
  174SLPC     P19646   1.990   1.853   6.411
  174SLPC   O1319647   1.891   1.893   6.305
  174SLPC   O1419648   1.946   1.881   6.553
  174SLPC   O1219649   2.020   1.700   6.395
  174SLPC   O1119650   2.126   1.934   6.389
  174SLPC    C119651   2.251   1.885   6.434
  174SLPC    HA19652   2.298   1.936   6.521
  174SLPC    HB19653   2.239   1.781   6.472
  174SLPC    C219654   2.360   1.869   6.319
  174SLPC    HS19655   2.388   1.972   6.286
  174SLPC   O2119656   2.303   1.782   6.217
  174SLPC   C2119657   2.252   1.838   6.116
  174SLPC   O2219658   2.229   1.956   6.105
  174SLPC   C2219659   2.202   1.742   6.009
  174SLPC   H2R19660   2.273   1.657   6.003
  174SLPC   H2S19661   2.106   1.693   6.036
  174SLPC    C319662   2.503   1.816   6.360
  174SLPC    HX19663   2.489   1.722   6.417
  174SLPC    HY19664   2.541   1.886   6.438
  174SLPC   O3119665   2.607   1.802   6.260
  174SLPC   C3119666   2.626   1.679   6.205
  174SLPC   O3219667   2.544   1.591   6.212
  174SLPC   C3219668   2.741   1.694   6.111
  174SLPC   H2X19669   2.775   1.588   6.101
  174SLPC   H2Y19670   2.825   1.751   6.155
  174SLPC   C2319671   2.175   1.817   5.868
  174SLPC   H3R19672   2.119   1.911   5.891
  174SLPC   H3S19673   2.120   1.744   5.805
  174SLPC   C2419674   2.310   1.851   5.807
  174SLPC   H4R19675   2.365   1.755   5.795
  174SLPC   H4S19676   2.365   1.923   5.870
  174SLPC   C2519677   2.294   1.910   5.665
  174SLPC   H5R19678   2.231   2.001   5.674
  174SLPC   H5S19679   2.236   1.835   5.607
  174SLPC   C2619680   2.428   1.941   5.590
  174SLPC   H6R19681   2.480   1.843   5.573
  174SLPC   H6S19682   2.494   2.004   5.653
  174SLPC   C2719683   2.390   2.003   5.446
  174SLPC   H7R19684   2.478   1.993   5.378
  174SLPC   H7S19685   2.365   2.110   5.462
  174SLPC   C2819686   2.275   1.936   5.372
  174SLPC   H8R19687   2.249   1.997   5.283
  174SLPC   H8S19688   2.188   1.954   5.439
  174SLPC   C2919689   2.291   1.791   5.339
  174SLPC   H9R19690   2.337   1.733   5.420
  174SLPC  C21019691   2.250   1.735   5.221
  174SLPC  H10R19692   2.270   1.628   5.201
  174SLPC  C21119693   2.187   1.817   5.108
  174SLPC  H11R19694   2.144   1.911   5.150
  174SLPC  H11S19695   2.100   1.762   5.066
  174SLPC  C21219696   2.295   1.846   4.999
  174SLPC  H12R19697   2.397   1.810   5.016
  174SLPC  C21319698   2.296   1.962   4.931
  174SLPC  H13R19699   2.384   1.981   4.867
  174SLPC  C21419700   2.183   2.062   4.917
  174SLPC  H14R19701   2.183   2.152   4.982
  174SLPC  H14S19702   2.089   2.006   4.936
  174SLPC  C21519703   2.144   2.117   4.782
  174SLPC  H15R19704   2.226   2.181   4.742
  174SLPC  H15S19705   2.058   2.187   4.789
  174SLPC  C21619706   2.102   2.000   4.691
  174SLPC  H16R19707   2.024   1.947   4.749
  174SLPC  H16S19708   2.185   1.927   4.678
  174SLPC  C21719709   2.045   2.062   4.556
  174SLPC  H17R19710   2.111   2.141   4.515
  174SLPC  H17S19711   1.946   2.106   4.583
  174SLPC  C21819712   2.019   1.961   4.444
  174SLPC  H18R19713   1.971   1.869   4.485
  174SLPC  H18S19714   2.113   1.921   4.399
  174SLPC  H18T19715   1.957   2.004   4.363
  174SLPC   C3319716   2.704   1.739   5.968
  174SLPC   H3X19717   2.645   1.833   5.979
  174SLPC   H3Y19718   2.622   1.675   5.928
  174SLPC   C3419719   2.817   1.747   5.875
  174SLPC   H4X19720   2.866   1.649   5.854
  174SLPC   H4Y19721   2.902   1.811   5.908
  174SLPC   C3519722   2.772   1.805   5.739
  174SLPC   H5X19723   2.701   1.890   5.746
  174SLPC   H5Y19724   2.705   1.731   5.691
  174SLPC   C3619725   2.890   1.836   5.647
  174SLPC   H6X19726   2.983   1.791   5.688
  174SLPC   H6Y19727   2.896   1.945   5.624
  174SLPC   C3719728   2.868   1.769   5.510
  174SLPC   H7X19729   2.767   1.792   5.470
  174SLPC   H7Y19730   2.878   1.659   5.523
  174SLPC   C3819731   2.972   1.814   5.404
  174SLPC   H8X19732   3.070   1.820   5.455
  174SLPC   H8Y19733   2.954   1.915   5.360
  174SLPC   C3919734   2.985   1.714   5.288
  174SLPC   H9X19735   2.884   1.704   5.244
  174SLPC   H9Y19736   3.027   1.619   5.328
  174SLPC  C31019737   3.084   1.761   5.186
  174SLPC  H10X19738   3.087   1.693   5.098
  174SLPC  H10Y19739   3.184   1.761   5.236
  174SLPC  C31119740   3.042   1.893   5.124
  174SLPC  H11X19741   3.065   1.967   5.204
  174SLPC  H11Y19742   2.936   1.902   5.093
  174SLPC  C31219743   3.124   1.937   5.002
  174SLPC  H12X19744   3.113   1.852   4.932
  174SLPC  H12Y19745   3.229   1.938   5.038
  174SLPC  C31319746   3.083   2.066   4.936
  174SLPC  H13X19747   3.110   2.143   5.011
  174SLPC  H13Y19748   2.975   2.065   4.911
  174SLPC  C31419749   3.160   2.099   4.808
  174SLPC  H14X19750   3.266   2.073   4.828
  174SLPC  H14Y19751   3.149   2.210   4.803
  174SLPC  C31519752   3.106   2.019   4.687
  174SLPC  H15X19753   2.996   2.040   4.688
  174SLPC  H15Y19754   3.116   1.913   4.719
  174SLPC  C31619755   3.174   2.040   4.554
  174SLPC  H16X19756   3.281   2.016   4.571
  174SLPC  H16Y19757   3.174   2.150   4.539
  174SLPC  C31719758   3.109   1.954   4.446
  174SLPC  H17X19759   3.153   1.983   4.349
  174SLPC  H17Y19760   3.000   1.962   4.431
  174SLPC  C31819761   3.135   1.806   4.473
  174SLPC  H18X19762   3.068   1.762   4.550
  174SLPC  H18Y19763   3.240   1.799   4.506
  174SLPC  H18Z19764   3.118   1.757   4.374
  175SLPC     N19765   4.574   3.721   6.338
  175SLPC   C1319766   4.574   3.745   6.190
  175SLPC  H13A19767   4.673   3.767   6.153
  175SLPC  H13B19768   4.544   3.655   6.139
  175SLPC  H13C19769   4.515   3.829   6.157
  175SLPC   C1419770   4.656   3.602   6.370
  175SLPC  H14A19771   4.653   3.573   6.475
  175SLPC  H14B19772   4.635   3.518   6.305
  175SLPC  H14C19773   4.758   3.637   6.362
  175SLPC   C1519774   4.433   3.696   6.372
  175SLPC  H15A19775   4.412   3.688   6.478
  175SLPC  H15B19776   4.365   3.775   6.345
  175SLPC  H15C19777   4.390   3.611   6.322
  175SLPC   C1219778   4.624   3.844   6.411
  175SLPC  H12A19779   4.640   3.820   6.515
  175SLPC  H12B19780   4.553   3.924   6.401
  175SLPC   C1119781   4.761   3.894   6.369
  175SLPC  H11A19782   4.779   3.990   6.422
  175SLPC  H11B19783   4.767   3.902   6.259
  175SLPC     P19784   5.002   3.832   6.424
  175SLPC   O1319785   5.005   3.960   6.493
  175SLPC   O1419786   5.071   3.713   6.480
  175SLPC   O1219787   4.854   3.796   6.401
  175SLPC   O1119788   5.055   3.860   6.277
  175SLPC    C119789   5.013   3.792   6.157
  175SLPC    HA19790   5.103   3.734   6.126
  175SLPC    HB19791   4.920   3.734   6.171
  175SLPC    C219792   4.990   3.894   6.040
  175SLPC    HS19793   4.893   3.946   6.054
  175SLPC   O2119794   4.986   3.825   5.913
  175SLPC   C2119795   4.891   3.741   5.905
  175SLPC   O2219796   4.790   3.731   5.973
  175SLPC   C2219797   4.915   3.647   5.780
  175SLPC   H2R19798   4.930   3.715   5.693
  175SLPC   H2S19799   5.011   3.592   5.796
  175SLPC    C319800   5.118   3.989   6.042
  175SLPC    HX19801   5.208   3.923   6.043
  175SLPC    HY19802   5.123   4.052   6.133
  175SLPC   O3119803   5.115   4.074   5.926
  175SLPC   C3119804   5.215   4.150   5.910
  175SLPC   O3219805   5.319   4.150   5.977
  175SLPC   C3219806   5.194   4.238   5.790
  175SLPC   H2X19807   5.085   4.253   5.801
  175SLPC   H2Y19808   5.211   4.177   5.698
  175SLPC   C2319809   4.796   3.562   5.750
  175SLPC   H3R19810   4.707   3.625   5.728
  175SLPC   H3S19811   4.767   3.498   5.836
  175SLPC   C2419812   4.812   3.455   5.630
  175SLPC   H4R19813   4.711   3.408   5.627
  175SLPC   H4S19814   4.876   3.375   5.673
  175SLPC   C2519815   4.859   3.507   5.493
  175SLPC   H5R19816   4.966   3.531   5.508
  175SLPC   H5S19817   4.797   3.598   5.477
  175SLPC   C2619818   4.842   3.389   5.388
  175SLPC   H6R19819   4.735   3.393   5.359
  175SLPC   H6S19820   4.869   3.296   5.443
  175SLPC   C2719821   4.940   3.409   5.268
  175SLPC   H7R19822   5.042   3.389   5.308
  175SLPC   H7S19823   4.935   3.513   5.230
  175SLPC   C2819824   4.908   3.304   5.156
  175SLPC   H8R19825   4.891   3.206   5.207
  175SLPC   H8S19826   5.005   3.293   5.103
  175SLPC   C2919827   4.788   3.355   5.062
  175SLPC   H9R19828   4.685   3.323   5.082
  175SLPC  C21019829   4.812   3.439   4.960
  175SLPC  H10R19830   4.724   3.488   4.917
  175SLPC  C21119831   4.941   3.515   4.930
  175SLPC  H11R19832   5.029   3.462   4.971
  175SLPC  H11S19833   4.934   3.619   4.970
  175SLPC  C21219834   4.961   3.531   4.785
  175SLPC  H12R19835   5.018   3.444   4.749
  175SLPC  C21319836   4.900   3.615   4.693
  175SLPC  H13R19837   4.929   3.603   4.588
  175SLPC  C21419838   4.814   3.734   4.728
  175SLPC  H14R19839   4.847   3.766   4.829
  175SLPC  H14S19840   4.709   3.698   4.725
  175SLPC  C21519841   4.836   3.848   4.624
  175SLPC  H15R19842   4.758   3.923   4.648
  175SLPC  H15S19843   4.824   3.817   4.518
  175SLPC  C21619844   4.974   3.913   4.643
  175SLPC  H16R19845   5.059   3.849   4.611
  175SLPC  H16S19846   4.983   3.923   4.754
  175SLPC  C21719847   4.994   4.057   4.576
  175SLPC  H17R19848   4.933   4.133   4.629
  175SLPC  H17S19849   4.942   4.048   4.478
  175SLPC  C21819850   5.143   4.091   4.548
  175SLPC  H18R19851   5.182   3.999   4.499
  175SLPC  H18S19852   5.212   4.099   4.634
  175SLPC  H18T19853   5.159   4.179   4.483
  175SLPC   C3319854   5.294   4.360   5.804
  175SLPC   H3X19855   5.397   4.320   5.791
  175SLPC   H3Y19856   5.279   4.391   5.910
  175SLPC   C3419857   5.265   4.466   5.697
  175SLPC   H4X19858   5.159   4.442   5.673
  175SLPC   H4Y19859   5.326   4.447   5.606
  175SLPC   C3519860   5.283   4.612   5.748
  175SLPC   H5X19861   5.386   4.632   5.785
  175SLPC   H5Y19862   5.213   4.618   5.834
  175SLPC   C3619863   5.241   4.719   5.646
  175SLPC   H6X19864   5.203   4.810   5.697
  175SLPC   H6Y19865   5.161   4.684   5.579
  175SLPC   C3719866   5.356   4.747   5.546
  175SLPC   H7X19867   5.409   4.655   5.512
  175SLPC   H7Y19868   5.435   4.800   5.603
  175SLPC   C3819869   5.311   4.813   5.422
  175SLPC   H8X19870   5.259   4.903   5.461
  175SLPC   H8Y19871   5.244   4.743   5.367
  175SLPC   C3919872   5.426   4.849   5.331
  175SLPC   H9X19873   5.483   4.754   5.320
  175SLPC   H9Y19874   5.478   4.923   5.396
  175SLPC  C31019875   5.395   4.918   5.194
  175SLPC  H10X19876   5.487   4.964   5.153
  175SLPC  H10Y19877   5.324   4.999   5.220
  175SLPC  C31119878   5.336   4.827   5.087
  175SLPC  H11X19879   5.249   4.779   5.136
  175SLPC  H11Y19880   5.414   4.751   5.067
  175SLPC  C31219881   5.286   4.901   4.969
  175SLPC  H12X19882   5.230   4.990   5.006
  175SLPC  H12Y19883   5.223   4.838   4.903
  175SLPC  C31319884   5.396   4.969   4.879
  175SLPC  H13X19885   5.440   4.878   4.832
  175SLPC  H13Y19886   5.465   5.026   4.944
  175SLPC  C31419887   5.333   5.060   4.772
  175SLPC  H14X19888   5.299   5.146   4.833
  175SLPC  H14Y19889   5.248   5.008   4.721
  175SLPC  C31519890   5.441   5.105   4.665
  175SLPC  H15X19891   5.499   5.180   4.724
  175SLPC  H15Y19892   5.404   5.169   4.582
  175SLPC  C31619893   5.531   4.988   4.620
  175SLPC  H16X19894   5.483   4.889   4.636
  175SLPC  H16Y19895   5.626   4.994   4.676
  175SLPC  C31719896   5.554   5.011   4.468
  175SLPC  H17X19897   5.459   5.024   4.412
  175SLPC  H17Y19898   5.593   4.917   4.424
  175SLPC  C31819899   5.647   5.122   4.420
  175SLPC  H18X19900   5.754   5.106   4.443
  175SLPC  H18Y19901   5.622   5.217   4.471
  175SLPC  H18Z19902   5.638   5.142   4.311
  176SLPC     N19903   5.301   2.780   6.579
  176SLPC   C1319904   5.434   2.752   6.646
  176SLPC  H13A19905   5.463   2.823   6.723
  176SLPC  H13B19906   5.435   2.660   6.703
  176SLPC  H13C19907   5.509   2.750   6.569
  176SLPC   C1419908   5.307   2.925   6.544
  176SLPC  H14A19909   5.234   2.942   6.466
  176SLPC  H14B19910   5.290   2.981   6.635
  176SLPC  H14C19911   5.405   2.949   6.507
  176SLPC   C1519912   5.191   2.762   6.675
  176SLPC  H15A19913   5.199   2.807   6.773
  176SLPC  H15B19914   5.104   2.808   6.629
  176SLPC  H15C19915   5.165   2.659   6.692
  176SLPC   C1219916   5.284   2.687   6.468
  176SLPC  H12A19917   5.184   2.710   6.433
  176SLPC  H12B19918   5.278   2.582   6.493
  176SLPC   C1119919   5.393   2.697   6.355
  176SLPC  H11A19920   5.404   2.799   6.312
  176SLPC  H11B19921   5.345   2.644   6.270
  176SLPC     P19922   5.529   2.474   6.369
  176SLPC   O1319923   5.668   2.428   6.382
  176SLPC   O1419924   5.434   2.410   6.458
  176SLPC   O1219925   5.523   2.638   6.378
  176SLPC   O1119926   5.475   2.432   6.231
  176SLPC    C119927   5.548   2.464   6.113
  176SLPC    HA19928   5.594   2.565   6.121
  176SLPC    HB19929   5.632   2.392   6.101
  176SLPC    C219930   5.452   2.449   5.994
  176SLPC    HS19931   5.508   2.472   5.900
  176SLPC   O2119932   5.332   2.536   6.016
  176SLPC   C2119933   5.355   2.669   5.978
  176SLPC   O2219934   5.451   2.716   5.929
  176SLPC   C2219935   5.230   2.750   6.031
  176SLPC   H2R19936   5.201   2.710   6.131
  176SLPC   H2S19937   5.260   2.856   6.046
  176SLPC    C319938   5.417   2.303   5.962
  176SLPC    HX19939   5.372   2.257   6.053
  176SLPC    HY19940   5.510   2.246   5.942
  176SLPC   O3119941   5.314   2.301   5.866
  176SLPC   C3119942   5.355   2.317   5.737
  176SLPC   O3219943   5.474   2.315   5.707
  176SLPC   C3219944   5.235   2.333   5.645
  176SLPC   H2X19945   5.260   2.401   5.561
  176SLPC   H2Y19946   5.149   2.376   5.701
  176SLPC   C2319947   5.110   2.748   5.929
  176SLPC   H3R19948   5.016   2.785   5.973
  176SLPC   H3S19949   5.075   2.643   5.915
  176SLPC   C2419950   5.157   2.804   5.790
  176SLPC   H4R19951   5.263   2.780   5.772
  176SLPC   H4S19952   5.142   2.913   5.811
  176SLPC   C2519953   5.076   2.764   5.668
  176SLPC   H5R19954   4.970   2.778   5.697
  176SLPC   H5S19955   5.098   2.660   5.639
  176SLPC   C2619956   5.108   2.854   5.548
  176SLPC   H6R19957   5.043   2.838   5.459
  176SLPC   H6S19958   5.209   2.835   5.507
  176SLPC   C2719959   5.086   3.001   5.579
  176SLPC   H7R19960   5.150   3.038   5.662
  176SLPC   H7S19961   4.977   3.005   5.602
  176SLPC   C2819962   5.101   3.102   5.463
  176SLPC   H8R19963   5.110   3.205   5.504
  176SLPC   H8S19964   5.013   3.100   5.395
  176SLPC   C2919965   5.238   3.081   5.408
  176SLPC   H9R19966   5.316   3.089   5.485
  176SLPC  C21019967   5.276   3.062   5.283
  176SLPC  H10R19968   5.384   3.060   5.259
  176SLPC  C21119969   5.178   3.026   5.164
  176SLPC  H11R19970   5.179   3.120   5.107
  176SLPC  H11S19971   5.070   3.019   5.189
  176SLPC  C21219972   5.219   2.905   5.088
  176SLPC  H12R19973   5.276   2.835   5.152
  176SLPC  C21319974   5.190   2.871   4.958
  176SLPC  H13R19975   5.232   2.778   4.919
  176SLPC  C21419976   5.110   2.956   4.861
  176SLPC  H14R19977   5.102   3.062   4.891
  176SLPC  H14S19978   5.003   2.928   4.864
  176SLPC  C21519979   5.168   2.954   4.716
  176SLPC  H15R19980   5.195   2.849   4.690
  176SLPC  H15S19981   5.254   3.022   4.705
  176SLPC  C21619982   5.065   2.987   4.607
  176SLPC  H16R19983   4.978   2.918   4.614
  176SLPC  H16S19984   5.106   2.976   4.505
  176SLPC  C21719985   4.999   3.129   4.636
  176SLPC  H17R19986   5.074   3.208   4.613
  176SLPC  H17S19987   4.961   3.133   4.740
  176SLPC  C21819988   4.880   3.136   4.534
  176SLPC  H18R19989   4.915   3.128   4.429
  176SLPC  H18S19990   4.820   3.229   4.544
  176SLPC  H18T19991   4.816   3.047   4.553
  176SLPC   C3319992   5.189   2.192   5.598
  176SLPC   H3X19993   5.088   2.185   5.552
  176SLPC   H3Y19994   5.189   2.111   5.674
  176SLPC   C3419995   5.290   2.134   5.490
  176SLPC   H4X19996   5.383   2.108   5.545
  176SLPC   H4Y19997   5.317   2.217   5.421
  176SLPC   C3519998   5.234   2.010   5.422
  176SLPC   H5X19999   5.131   2.040   5.392
  176SLPC   H5Y20000   5.237   1.918   5.483
  176SLPC   C3620001   5.301   1.986   5.285
  176SLPC   H6X20002   5.271   1.885   5.251
  176SLPC   H6Y20003   5.411   1.972   5.293
  176SLPC   C3720004   5.247   2.076   5.169
  176SLPC   H7X20005   5.254   2.182   5.201
  176SLPC   H7Y20006   5.141   2.051   5.146
  176SLPC   C3820007   5.325   2.052   5.038
  176SLPC   H8X20008   5.310   1.948   5.002
  176SLPC   H8Y20009   5.433   2.061   5.066
  176SLPC   C3920010   5.290   2.144   4.928
  176SLPC   H9X20011   5.346   2.239   4.915
  176SLPC   H9Y20012   5.188   2.187   4.936
  176SLPC  C31020013   5.281   2.068   4.788
  176SLPC  H10X20014   5.222   2.136   4.722
  176SLPC  H10Y20015   5.228   1.971   4.802
  176SLPC  C31120016   5.423   2.039   4.739
  176SLPC  H11X20017   5.472   1.977   4.817
  176SLPC  H11Y20018   5.480   2.134   4.739
  176SLPC  C31220019   5.429   1.955   4.612
  176SLPC  H12X20020   5.384   2.014   4.529
  176SLPC  H12Y20021   5.366   1.863   4.610
  176SLPC  C31320022   5.571   1.917   4.581
  176SLPC  H13X20023   5.619   1.874   4.672
  176SLPC  H13Y20024   5.628   2.007   4.551
  176SLPC  C31420025   5.585   1.815   4.474
  176SLPC  H14X20026   5.517   1.829   4.388
  176SLPC  H14Y20027   5.557   1.718   4.520
  176SLPC  C31520028   5.725   1.799   4.421
  176SLPC  H15X20029   5.779   1.772   4.514
  176SLPC  H15Y20030   5.782   1.887   4.384
  176SLPC  C31620031   5.740   1.678   4.319
  176SLPC  H16X20032   5.696   1.712   4.223
  176SLPC  H16Y20033   5.682   1.596   4.367
  176SLPC  C31720034   5.896   1.649   4.302
  176SLPC  H17X20035   5.938   1.633   4.404
  176SLPC  H17Y20036   5.945   1.735   4.252
  176SLPC  C31820037   5.924   1.529   4.208
  176SLPC  H18X20038   6.014   1.547   4.145
  176SLPC  H18Y20039   5.842   1.518   4.133
  176SLPC  H18Z20040   5.930   1.435   4.266
  177SLPC     N20041   6.425   3.516   6.920
  177SLPC   C1320042   6.360   3.648   6.942
  177SLPC  H13A20043   6.387   3.689   7.038
  177SLPC  H13B20044   6.391   3.715   6.864
  177SLPC  H13C20045   6.253   3.637   6.936
  177SLPC   C1420046   6.350   3.407   6.984
  177SLPC  H14A20047   6.331   3.421   7.089
  177SLPC  H14B20048   6.255   3.398   6.935
  177SLPC  H14C20049   6.410   3.319   6.969
  177SLPC   C1520050   6.568   3.525   6.976
  177SLPC  H15A20051   6.559   3.540   7.083
  177SLPC  H15B20052   6.627   3.435   6.969
  177SLPC  H15C20053   6.615   3.614   6.936
  177SLPC   C1220054   6.436   3.483   6.767
  177SLPC  H12A20055   6.494   3.393   6.758
  177SLPC  H12B20056   6.496   3.561   6.723
  177SLPC   C1120057   6.305   3.462   6.680
  177SLPC  H11A20058   6.278   3.362   6.718
  177SLPC  H11B20059   6.343   3.466   6.575
  177SLPC     P20060   6.064   3.526   6.662
  177SLPC   O1320061   6.034   3.389   6.707
  177SLPC   O1420062   5.976   3.633   6.713
  177SLPC   O1220063   6.211   3.564   6.688
  177SLPC   O1120064   6.064   3.524   6.500
  177SLPC    C120065   6.139   3.636   6.437
  177SLPC    HA20066   6.163   3.717   6.509
  177SLPC    HB20067   6.239   3.601   6.401
  177SLPC    C220068   6.063   3.691   6.316
  177SLPC    HS20069   5.964   3.730   6.349
  177SLPC   O2120070   6.059   3.582   6.226
  177SLPC   C2120071   5.937   3.562   6.164
  177SLPC   O2220072   5.846   3.636   6.193
  177SLPC   C2220073   5.936   3.442   6.061
  177SLPC   H2R20074   6.040   3.435   6.022
  177SLPC   H2S20075   5.928   3.346   6.117
  177SLPC    C320076   6.140   3.820   6.249
  177SLPC    HX20077   6.245   3.788   6.238
  177SLPC    HY20078   6.131   3.901   6.325
  177SLPC   O3120079   6.088   3.865   6.122
  177SLPC   C3120080   6.000   3.962   6.131
  177SLPC   O3220081   5.957   4.016   6.230
  177SLPC   C3220082   5.987   4.015   5.988
  177SLPC   H2X20083   5.947   4.119   5.988
  177SLPC   H2Y20084   5.903   3.953   5.951
  177SLPC   C2320085   5.827   3.456   5.953
  177SLPC   H3R20086   5.730   3.495   5.990
  177SLPC   H3S20087   5.809   3.351   5.920
  177SLPC   C2420088   5.866   3.538   5.827
  177SLPC   H4R20089   5.966   3.501   5.794
  177SLPC   H4S20090   5.873   3.645   5.854
  177SLPC   C2520091   5.781   3.508   5.708
  177SLPC   H5R20092   5.693   3.575   5.720
  177SLPC   H5S20093   5.738   3.406   5.706
  177SLPC   C2620094   5.858   3.537   5.577
  177SLPC   H6R20095   5.950   3.475   5.578
  177SLPC   H6S20096   5.887   3.644   5.585
  177SLPC   C2720097   5.776   3.493   5.456
  177SLPC   H7R20098   5.677   3.543   5.445
  177SLPC   H7S20099   5.765   3.383   5.468
  177SLPC   C2820100   5.847   3.517   5.326
  177SLPC   H8R20101   5.781   3.477   5.246
  177SLPC   H8S20102   5.943   3.462   5.335
  177SLPC   C2920103   5.868   3.663   5.306
  177SLPC   H9R20104   5.842   3.727   5.392
  177SLPC  C21020105   5.903   3.720   5.188
  177SLPC  H10R20106   5.921   3.828   5.196
  177SLPC  C21120107   5.926   3.653   5.051
  177SLPC  H11R20108   5.986   3.560   5.054
  177SLPC  H11S20109   5.991   3.707   4.978
  177SLPC  C21220110   5.798   3.603   4.990
  177SLPC  H12R20111   5.723   3.568   5.062
  177SLPC  C21320112   5.770   3.614   4.857
  177SLPC  H13R20113   5.667   3.587   4.829
  177SLPC  C21420114   5.856   3.656   4.742
  177SLPC  H14R20115   5.919   3.742   4.774
  177SLPC  H14S20116   5.784   3.700   4.669
  177SLPC  C21520117   5.935   3.544   4.667
  177SLPC  H15R20118   5.867   3.477   4.610
  177SLPC  H15S20119   5.983   3.483   4.747
  177SLPC  C21620120   6.029   3.596   4.562
  177SLPC  H16R20121   6.103   3.523   4.526
  177SLPC  H16S20122   6.087   3.682   4.602
  177SLPC  C21720123   5.941   3.655   4.446
  177SLPC  H17R20124   5.907   3.755   4.483
  177SLPC  H17S20125   5.854   3.592   4.419
  177SLPC  C21820126   6.027   3.695   4.329
  177SLPC  H18R20127   6.131   3.709   4.363
  177SLPC  H18S20128   5.992   3.786   4.276
  177SLPC  H18T20129   6.036   3.611   4.258
  177SLPC   C3320130   6.106   3.988   5.888
  177SLPC   H3X20131   6.078   4.012   5.784
  177SLPC   H3Y20132   6.140   3.882   5.894
  177SLPC   C3420133   6.227   4.078   5.917
  177SLPC   H4X20134   6.268   4.061   6.019
  177SLPC   H4Y20135   6.194   4.184   5.920
  177SLPC   C3520136   6.338   4.059   5.812
  177SLPC   H5X20137   6.372   3.955   5.798
  177SLPC   H5Y20138   6.430   4.117   5.835
  177SLPC   C3620139   6.295   4.112   5.671
  177SLPC   H6X20140   6.382   4.164   5.627
  177SLPC   H6Y20141   6.208   4.181   5.678
  177SLPC   C3720142   6.271   3.993   5.574
  177SLPC   H7X20143   6.194   3.925   5.617
  177SLPC   H7Y20144   6.364   3.933   5.565
  177SLPC   C3820145   6.217   4.040   5.436
  177SLPC   H8X20146   6.253   3.971   5.357
  177SLPC   H8Y20147   6.271   4.134   5.412
  177SLPC   C3920148   6.059   4.062   5.422
  177SLPC   H9X20149   6.025   4.130   5.504
  177SLPC   H9Y20150   6.014   3.962   5.439
  177SLPC  C31020151   6.026   4.112   5.283
  177SLPC  H10X20152   6.058   4.038   5.206
  177SLPC  H10Y20153   6.072   4.210   5.256
  177SLPC  C31120154   5.880   4.151   5.268
  177SLPC  H11X20155   5.843   4.220   5.347
  177SLPC  H11Y20156   5.813   4.065   5.286
  177SLPC  C31220157   5.838   4.220   5.139
  177SLPC  H12X20158   5.887   4.317   5.115
  177SLPC  H12Y20159   5.736   4.259   5.161
  177SLPC  C31320160   5.845   4.130   5.015
  177SLPC  H13X20161   5.793   4.035   5.041
  177SLPC  H13Y20162   5.955   4.129   5.000
  177SLPC  C31420163   5.776   4.200   4.893
  177SLPC  H14X20164   5.812   4.304   4.884
  177SLPC  H14Y20165   5.669   4.211   4.922
  177SLPC  C31520166   5.790   4.133   4.754
  177SLPC  H15X20167   5.750   4.197   4.673
  177SLPC  H15Y20168   5.737   4.036   4.767
  177SLPC  C31620169   5.934   4.109   4.722
  177SLPC  H16X20170   5.973   4.018   4.774
  177SLPC  H16Y20171   5.998   4.196   4.750
  177SLPC  C31720172   5.951   4.102   4.567
  177SLPC  H17X20173   5.945   4.194   4.505
  177SLPC  H17Y20174   5.865   4.046   4.525
  177SLPC  C31820175   6.091   4.040   4.524
  177SLPC  H18X20176   6.085   3.981   4.430
  177SLPC  H18Y20177   6.132   3.968   4.598
  177SLPC  H18Z20178   6.162   4.122   4.503
  178SLPC     N20179   3.530   0.362   6.973
  178SLPC   C1320180   3.482   0.493   7.030
  178SLPC  H13A20181   3.424   0.545   6.956
  178SLPC  H13B20182   3.431   0.495   7.125
  178SLPC  H13C20183   3.565   0.562   7.032
  178SLPC   C1420184   3.616   0.304   7.086
  178SLPC  H14A20185   3.704   0.361   7.108
  178SLPC  H14B20186   3.564   0.302   7.181
  178SLPC  H14C20187   3.659   0.210   7.055
  178SLPC   C1520188   3.623   0.384   6.860
  178SLPC  H15A20189   3.584   0.432   6.771
  178SLPC  H15B20190   3.714   0.439   6.882
  178SLPC  H15C20191   3.660   0.289   6.823
  178SLPC   C1220192   3.417   0.255   6.948
  178SLPC  H12A20193   3.372   0.240   7.045
  178SLPC  H12B20194   3.478   0.172   6.916
  178SLPC   C1120195   3.311   0.292   6.842
  178SLPC  H11A20196   3.252   0.201   6.817
  178SLPC  H11B20197   3.357   0.313   6.743
  178SLPC     P20198   3.126   0.475   6.803
  178SLPC   O1320199   3.017   0.383   6.774
  178SLPC   O1420200   3.092   0.606   6.868
  178SLPC   O1220201   3.233   0.402   6.892
  178SLPC   O1120202   3.201   0.504   6.671
  178SLPC    C120203   3.129   0.545   6.553
  178SLPC    HA20204   3.074   0.457   6.512
  178SLPC    HB20205   3.059   0.631   6.555
  178SLPC    C220206   3.234   0.588   6.441
  178SLPC    HS20207   3.297   0.666   6.488
  178SLPC   O2120208   3.152   0.645   6.336
  178SLPC   C2120209   3.221   0.737   6.268
  178SLPC   O2220210   3.335   0.768   6.292
  178SLPC   C2220211   3.140   0.793   6.152
  178SLPC   H2R20212   3.076   0.714   6.108
  178SLPC   H2S20213   3.064   0.858   6.202
  178SLPC    C320214   3.332   0.470   6.390
  178SLPC    HX20215   3.388   0.431   6.478
  178SLPC    HY20216   3.417   0.519   6.337
  178SLPC   O3120217   3.261   0.360   6.328
  178SLPC   C3120218   3.243   0.379   6.197
  178SLPC   O3220219   3.264   0.474   6.130
  178SLPC   C3220220   3.169   0.255   6.147
  178SLPC   H2X20221   3.099   0.229   6.229
  178SLPC   H2Y20222   3.240   0.169   6.136
  178SLPC   C2320223   3.218   0.868   6.050
  178SLPC   H3R20224   3.300   0.921   6.103
  178SLPC   H3S20225   3.158   0.952   6.008
  178SLPC   C2420226   3.246   0.777   5.929
  178SLPC   H4R20227   3.154   0.721   5.903
  178SLPC   H4S20228   3.329   0.711   5.960
  178SLPC   C2520229   3.283   0.844   5.793
  178SLPC   H5R20230   3.370   0.907   5.820
  178SLPC   H5S20231   3.208   0.924   5.774
  178SLPC   C2620232   3.305   0.748   5.682
  178SLPC   H6R20233   3.218   0.682   5.664
  178SLPC   H6S20234   3.396   0.690   5.712
  178SLPC   C2720235   3.354   0.827   5.557
  178SLPC   H7R20236   3.465   0.826   5.553
  178SLPC   H7S20237   3.320   0.933   5.558
  178SLPC   C2820238   3.308   0.760   5.426
  178SLPC   H8R20239   3.199   0.743   5.428
  178SLPC   H8S20240   3.343   0.655   5.435
  178SLPC   C2920241   3.355   0.838   5.304
  178SLPC   H9R20242   3.297   0.923   5.265
  178SLPC  C21020243   3.447   0.804   5.213
  178SLPC  H10R20244   3.469   0.882   5.139
  178SLPC  C21120245   3.548   0.695   5.231
  178SLPC  H11R20246   3.527   0.604   5.171
  178SLPC  H11S20247   3.546   0.658   5.336
  178SLPC  C21220248   3.679   0.756   5.210
  178SLPC  H12R20249   3.736   0.807   5.289
  178SLPC  C21320250   3.740   0.764   5.092
  178SLPC  H13R20251   3.833   0.822   5.085
  178SLPC  C21420252   3.683   0.714   4.961
  178SLPC  H14R20253   3.616   0.788   4.912
  178SLPC  H14S20254   3.631   0.617   4.977
  178SLPC  C21520255   3.785   0.669   4.851
  178SLPC  H15R20256   3.839   0.577   4.880
  178SLPC  H15S20257   3.856   0.754   4.857
  178SLPC  C21620258   3.725   0.664   4.715
  178SLPC  H16R20259   3.669   0.759   4.699
  178SLPC  H16S20260   3.649   0.584   4.709
  178SLPC  C21720261   3.830   0.645   4.604
  178SLPC  H17R20262   3.893   0.562   4.643
  178SLPC  H17S20263   3.900   0.732   4.595
  178SLPC  C21820264   3.770   0.605   4.471
  178SLPC  H18R20265   3.847   0.558   4.406
  178SLPC  H18S20266   3.733   0.694   4.416
  178SLPC  H18T20267   3.688   0.532   4.487
  178SLPC   C3320268   3.075   0.280   6.023
  178SLPC   H3X20269   3.017   0.373   6.045
  178SLPC   H3Y20270   2.998   0.201   6.012
  178SLPC   C3420271   3.154   0.281   5.888
  178SLPC   H4X20272   3.203   0.182   5.874
  178SLPC   H4Y20273   3.233   0.358   5.894
  178SLPC   C3520274   3.058   0.306   5.767
  178SLPC   H5X20275   3.026   0.409   5.796
  178SLPC   H5Y20276   2.978   0.230   5.754
  178SLPC   C3620277   3.130   0.330   5.635
  178SLPC   H6X20278   3.166   0.237   5.585
  178SLPC   H6Y20279   3.225   0.383   5.660
  178SLPC   C3720280   3.052   0.402   5.523
  178SLPC   H7X20281   3.033   0.507   5.552
  178SLPC   H7Y20282   2.952   0.352   5.517
  178SLPC   C3820283   3.116   0.380   5.382
  178SLPC   H8X20284   3.113   0.270   5.369
  178SLPC   H8Y20285   3.214   0.431   5.368
  178SLPC   C3920286   3.020   0.434   5.280
  178SLPC   H9X20287   3.032   0.543   5.261
  178SLPC   H9Y20288   2.913   0.404   5.288
  178SLPC  C31020289   3.056   0.365   5.147
  178SLPC  H10X20290   3.015   0.263   5.160
  178SLPC  H10Y20291   3.166   0.367   5.132
  178SLPC  C31120292   2.983   0.436   5.038
  178SLPC  H11X20293   3.012   0.542   5.021
  178SLPC  H11Y20294   2.877   0.427   5.070
  178SLPC  C31220295   3.016   0.360   4.909
  178SLPC  H12X20296   3.001   0.251   4.923
  178SLPC  H12Y20297   3.119   0.382   4.871
  178SLPC  C31320298   2.912   0.397   4.795
  178SLPC  H13X20299   2.947   0.496   4.759
  178SLPC  H13Y20300   2.815   0.406   4.849
  178SLPC  C31420301   2.895   0.294   4.684
  178SLPC  H14X20302   2.819   0.323   4.609
  178SLPC  H14Y20303   2.842   0.210   4.734
  178SLPC  C31520304   3.018   0.237   4.615
  178SLPC  H15X20305   3.073   0.172   4.686
  178SLPC  H15Y20306   3.087   0.320   4.588
  178SLPC  C31620307   2.990   0.145   4.497
  178SLPC  H16X20308   2.885   0.157   4.463
  178SLPC  H16Y20309   2.996   0.035   4.515
  178SLPC  C31720310   3.076   0.170   4.366
  178SLPC  H17X20311   3.183   0.181   4.393
  178SLPC  H17Y20312   3.063   0.274   4.329
  178SLPC  C31820313   3.048   0.092   4.241
  178SLPC  H18X20314   2.951   0.126   4.198
  178SLPC  H18Y20315   3.050  -0.018   4.262
  178SLPC  H18Z20316   3.120   0.111   4.159
  179SLPC     N20317   2.029   2.635   1.808
  179SLPC   C1320318   2.122   2.560   1.721
  179SLPC  H13A20319   2.188   2.498   1.779
  179SLPC  H13B20320   2.058   2.498   1.660
  179SLPC  H13C20321   2.172   2.635   1.661
  179SLPC   C1420322   1.915   2.690   1.726
  179SLPC  H14A20323   1.859   2.763   1.784
  179SLPC  H14B20324   1.947   2.721   1.628
  179SLPC  H14C20325   1.853   2.607   1.696
  179SLPC   C1520326   2.104   2.758   1.854
  179SLPC  H15A20327   2.177   2.727   1.927
  179SLPC  H15B20328   2.152   2.803   1.768
  179SLPC  H15C20329   2.051   2.835   1.909
  179SLPC   C1220330   1.974   2.554   1.916
  179SLPC  H12A20331   1.923   2.467   1.879
  179SLPC  H12B20332   1.890   2.606   1.960
  179SLPC   C1120333   2.061   2.521   2.038
  179SLPC  H11A20334   1.995   2.473   2.114
  179SLPC  H11B20335   2.106   2.618   2.066
  179SLPC     P20336   2.306   2.449   2.050
  179SLPC   O1320337   2.403   2.369   1.969
  179SLPC   O1420338   2.338   2.587   2.069
  179SLPC   O1220339   2.165   2.434   1.989
  179SLPC   O1120340   2.295   2.372   2.184
  179SLPC    C120341   2.236   2.431   2.300
  179SLPC    HA20342   2.238   2.542   2.304
  179SLPC    HB20343   2.141   2.378   2.321
  179SLPC    C220344   2.326   2.384   2.419
  179SLPC    HS20345   2.327   2.274   2.431
  179SLPC   O2120346   2.264   2.438   2.534
  179SLPC   C2120347   2.210   2.352   2.618
  179SLPC   O2220348   2.191   2.234   2.593
  179SLPC   C2220349   2.177   2.429   2.742
  179SLPC   H2R20350   2.265   2.416   2.808
  179SLPC   H2S20351   2.165   2.536   2.714
  179SLPC    C320352   2.470   2.440   2.400
  179SLPC    HX20353   2.473   2.549   2.378
  179SLPC    HY20354   2.520   2.392   2.314
  179SLPC   O3120355   2.548   2.424   2.521
  179SLPC   C3120356   2.617   2.315   2.537
  179SLPC   O3220357   2.608   2.208   2.474
  179SLPC   C3220358   2.717   2.346   2.646
  179SLPC   H2X20359   2.775   2.432   2.605
  179SLPC   H2Y20360   2.770   2.250   2.666
  179SLPC   C2320361   2.047   2.379   2.800
  179SLPC   H3R20362   2.043   2.268   2.809
  179SLPC   H3S20363   1.968   2.392   2.722
  179SLPC   C2420364   2.004   2.458   2.925
  179SLPC   H4R20365   1.895   2.442   2.938
  179SLPC   H4S20366   2.020   2.566   2.906
  179SLPC   C2520367   2.082   2.420   3.051
  179SLPC   H5R20368   2.189   2.432   3.023
  179SLPC   H5S20369   2.069   2.314   3.083
  179SLPC   C2620370   2.055   2.521   3.164
  179SLPC   H6R20371   1.946   2.530   3.184
  179SLPC   H6S20372   2.075   2.622   3.123
  179SLPC   C2720373   2.149   2.496   3.283
  179SLPC   H7R20374   2.247   2.530   3.243
  179SLPC   H7S20375   2.159   2.387   3.303
  179SLPC   C2820376   2.135   2.568   3.414
  179SLPC   H8R20377   2.199   2.533   3.497
  179SLPC   H8S20378   2.035   2.540   3.452
  179SLPC   C2920379   2.140   2.716   3.397
  179SLPC   H9R20380   2.178   2.755   3.301
  179SLPC  C21020381   2.119   2.803   3.502
  179SLPC  H10R20382   2.133   2.911   3.486
  179SLPC  C21120383   2.092   2.759   3.645
  179SLPC  H11R20384   1.993   2.709   3.655
  179SLPC  H11S20385   2.086   2.855   3.700
  179SLPC  C21220386   2.204   2.689   3.712
  179SLPC  H12R20387   2.289   2.662   3.647
  179SLPC  C21320388   2.193   2.652   3.841
  179SLPC  H13R20389   2.282   2.619   3.895
  179SLPC  C21420390   2.078   2.669   3.941
  179SLPC  H14R20391   2.045   2.570   3.979
  179SLPC  H14S20392   1.989   2.700   3.882
  179SLPC  C21520393   2.102   2.770   4.060
  179SLPC  H15R20394   2.190   2.741   4.122
  179SLPC  H15S20395   2.018   2.748   4.129
  179SLPC  C21620396   2.110   2.909   4.004
  179SLPC  H16R20397   2.015   2.921   3.947
  179SLPC  H16S20398   2.191   2.908   3.928
  179SLPC  C21720399   2.145   3.019   4.108
  179SLPC  H17R20400   2.231   2.993   4.172
  179SLPC  H17S20401   2.063   3.046   4.178
  179SLPC  C21820402   2.182   3.150   4.036
  179SLPC  H18R20403   2.248   3.132   3.949
  179SLPC  H18S20404   2.223   3.218   4.114
  179SLPC  H18T20405   2.092   3.203   3.998
  179SLPC   C3320406   2.657   2.381   2.783
  179SLPC   H3X20407   2.568   2.315   2.795
  179SLPC   H3Y20408   2.625   2.487   2.793
  179SLPC   C3420409   2.754   2.350   2.899
  179SLPC   H4X20410   2.845   2.410   2.880
  179SLPC   H4Y20411   2.787   2.244   2.902
  179SLPC   C3520412   2.707   2.409   3.039
  179SLPC   H5X20413   2.709   2.520   3.042
  179SLPC   H5Y20414   2.600   2.387   3.059
  179SLPC   C3620415   2.789   2.350   3.163
  179SLPC   H6X20416   2.890   2.377   3.126
  179SLPC   H6Y20417   2.781   2.239   3.165
  179SLPC   C3720418   2.773   2.418   3.301
  179SLPC   H7X20419   2.783   2.527   3.288
  179SLPC   H7Y20420   2.856   2.378   3.362
  179SLPC   C3820421   2.646   2.371   3.371
  179SLPC   H8X20422   2.651   2.261   3.356
  179SLPC   H8Y20423   2.560   2.419   3.319
  179SLPC   C3920424   2.649   2.412   3.520
  179SLPC   H9X20425   2.676   2.520   3.518
  179SLPC   H9Y20426   2.737   2.356   3.558
  179SLPC  C31020427   2.515   2.390   3.599
  179SLPC  H10X20428   2.491   2.282   3.599
  179SLPC  H10Y20429   2.433   2.448   3.552
  179SLPC  C31120430   2.516   2.426   3.753
  179SLPC  H11X20431   2.568   2.342   3.805
  179SLPC  H11Y20432   2.411   2.425   3.788
  179SLPC  C31220433   2.589   2.555   3.790
  179SLPC  H12X20434   2.541   2.640   3.735
  179SLPC  H12Y20435   2.692   2.545   3.750
  179SLPC  C31320436   2.584   2.583   3.940
  179SLPC  H13X20437   2.630   2.498   3.994
  179SLPC  H13Y20438   2.482   2.590   3.983
  179SLPC  C31420439   2.637   2.725   3.975
  179SLPC  H14X20440   2.575   2.803   3.924
  179SLPC  H14Y20441   2.738   2.725   3.929
  179SLPC  C31520442   2.652   2.749   4.128
  179SLPC  H15X20443   2.723   2.831   4.153
  179SLPC  H15Y20444   2.695   2.661   4.181
  179SLPC  C31620445   2.516   2.783   4.201
  179SLPC  H16X20446   2.457   2.690   4.210
  179SLPC  H16Y20447   2.456   2.858   4.144
  179SLPC  C31720448   2.547   2.845   4.336
  179SLPC  H17X20449   2.602   2.940   4.317
  179SLPC  H17Y20450   2.611   2.783   4.402
  179SLPC  C31820451   2.418   2.896   4.404
  179SLPC  H18X20452   2.354   2.806   4.423
  179SLPC  H18Y20453   2.366   2.966   4.335
  179SLPC  H18Z20454   2.444   2.957   4.493
  180SLPC     N20455   0.677   1.316   2.072
  180SLPC   C1320456   0.771   1.199   2.050
  180SLPC  H13A20457   0.873   1.235   2.054
  180SLPC  H13B20458   0.758   1.115   2.115
  180SLPC  H13C20459   0.770   1.166   1.947
  180SLPC   C1420460   0.671   1.351   2.217
  180SLPC  H14A20461   0.737   1.435   2.234
  180SLPC  H14B20462   0.570   1.379   2.242
  180SLPC  H14C20463   0.704   1.269   2.279
  180SLPC   C1520464   0.536   1.275   2.025
  180SLPC  H15A20465   0.492   1.207   2.097
  180SLPC  H15B20466   0.473   1.362   2.031
  180SLPC  H15C20467   0.519   1.248   1.922
  180SLPC   C1220468   0.728   1.439   1.996
  180SLPC  H12A20469   0.736   1.410   1.892
  180SLPC  H12B20470   0.827   1.462   2.033
  180SLPC   C1120471   0.647   1.566   1.998
  180SLPC  H11A20472   0.542   1.537   1.976
  180SLPC  H11B20473   0.691   1.624   1.914
  180SLPC     P20474   0.642   1.796   2.121
  180SLPC   O1320475   0.592   1.846   1.994
  180SLPC   O1420476   0.558   1.837   2.238
  180SLPC   O1220477   0.656   1.642   2.122
  180SLPC   O1120478   0.787   1.855   2.131
  180SLPC    C120479   0.899   1.778   2.168
  180SLPC    HA20480   0.885   1.668   2.161
  180SLPC    HB20481   0.990   1.814   2.116
  180SLPC    C220482   0.935   1.801   2.328
  180SLPC    HS20483   0.997   1.717   2.366
  180SLPC   O2120484   0.815   1.806   2.395
  180SLPC   C2120485   0.776   1.684   2.431
  180SLPC   O2220486   0.829   1.580   2.400
  180SLPC   C2220487   0.655   1.689   2.526
  180SLPC   H2R20488   0.565   1.716   2.467
  180SLPC   H2S20489   0.640   1.585   2.561
  180SLPC    C320490   1.008   1.940   2.346
  180SLPC    HX20491   0.933   2.013   2.310
  180SLPC    HY20492   1.106   1.940   2.295
  180SLPC   O3120493   1.039   1.955   2.490
  180SLPC   C3120494   0.975   2.058   2.546
  180SLPC   O3220495   0.903   2.139   2.490
  180SLPC   C3220496   0.990   2.039   2.694
  180SLPC   H2X20497   1.082   1.977   2.699
  180SLPC   H2Y20498   0.900   1.995   2.742
  180SLPC   C2320499   0.675   1.768   2.657
  180SLPC   H3R20500   0.574   1.789   2.700
  180SLPC   H3S20501   0.717   1.866   2.625
  180SLPC   C2420502   0.761   1.700   2.760
  180SLPC   H4R20503   0.864   1.704   2.719
  180SLPC   H4S20504   0.736   1.593   2.778
  180SLPC   C2520505   0.758   1.779   2.893
  180SLPC   H5R20506   0.663   1.741   2.936
  180SLPC   H5S20507   0.736   1.884   2.863
  180SLPC   C2620508   0.874   1.751   2.985
  180SLPC   H6R20509   0.963   1.779   2.925
  180SLPC   H6S20510   0.874   1.640   2.993
  180SLPC   C2720511   0.874   1.818   3.119
  180SLPC   H7R20512   0.837   1.921   3.100
  180SLPC   H7S20513   0.971   1.826   3.171
  180SLPC   C2820514   0.768   1.750   3.210
  180SLPC   H8R20515   0.679   1.726   3.148
  180SLPC   H8S20516   0.724   1.819   3.286
  180SLPC   C2920517   0.813   1.629   3.286
  180SLPC   H9R20518   0.781   1.532   3.245
  180SLPC  C21020519   0.886   1.633   3.399
  180SLPC  H10R20520   0.932   1.543   3.443
  180SLPC  C21120521   0.929   1.757   3.473
  180SLPC  H11R20522   0.866   1.777   3.563
  180SLPC  H11S20523   0.916   1.855   3.423
  180SLPC  C21220524   1.072   1.746   3.522
  180SLPC  H12R20525   1.149   1.752   3.444
  180SLPC  C21320526   1.120   1.746   3.651
  180SLPC  H13R20527   1.228   1.760   3.658
  180SLPC  C21420528   1.047   1.767   3.783
  180SLPC  H14R20529   1.067   1.684   3.854
  180SLPC  H14S20530   0.938   1.763   3.762
  180SLPC  C21520531   1.070   1.898   3.870
  180SLPC  H15R20532   1.175   1.896   3.904
  180SLPC  H15S20533   1.008   1.898   3.962
  180SLPC  C21620534   1.036   2.028   3.793
  180SLPC  H16R20535   1.101   2.038   3.704
  180SLPC  H16S20536   1.060   2.109   3.866
  180SLPC  C21720537   0.888   2.048   3.756
  180SLPC  H17R20538   0.824   2.049   3.846
  180SLPC  H17S20539   0.857   1.965   3.689
  180SLPC  C21820540   0.860   2.178   3.680
  180SLPC  H18R20541   0.750   2.184   3.665
  180SLPC  H18S20542   0.917   2.196   3.587
  180SLPC  H18T20543   0.885   2.257   3.753
  180SLPC   C3320544   1.020   2.165   2.775
  180SLPC   H3X20545   0.948   2.246   2.750
  180SLPC   H3Y20546   1.116   2.208   2.738
  180SLPC   C3420547   1.031   2.148   2.926
  180SLPC   H4X20548   0.940   2.098   2.965
  180SLPC   H4Y20549   1.036   2.251   2.969
  180SLPC   C3520550   1.154   2.073   2.968
  180SLPC   H5X20551   1.243   2.099   2.906
  180SLPC   H5Y20552   1.140   1.964   2.949
  180SLPC   C3620553   1.192   2.066   3.119
  180SLPC   H6X20554   1.282   2.002   3.105
  180SLPC   H6Y20555   1.110   2.008   3.166
  180SLPC   C3720556   1.224   2.196   3.181
  180SLPC   H7X20557   1.131   2.257   3.181
  180SLPC   H7Y20558   1.295   2.256   3.121
  180SLPC   C3820559   1.279   2.171   3.325
  180SLPC   H8X20560   1.389   2.170   3.308
  180SLPC   H8Y20561   1.238   2.071   3.350
  180SLPC   C3920562   1.244   2.289   3.429
  180SLPC   H9X20563   1.139   2.320   3.415
  180SLPC   H9Y20564   1.310   2.371   3.393
  180SLPC  C31020565   1.288   2.256   3.573
  180SLPC  H10X20566   1.397   2.232   3.562
  180SLPC  H10Y20567   1.235   2.164   3.605
  180SLPC  C31120568   1.275   2.371   3.678
  180SLPC  H11X20569   1.166   2.392   3.675
  180SLPC  H11Y20570   1.338   2.448   3.630
  180SLPC  C31220571   1.318   2.332   3.814
  180SLPC  H12X20572   1.423   2.295   3.814
  180SLPC  H12Y20573   1.258   2.243   3.844
  180SLPC  C31320574   1.292   2.441   3.912
  180SLPC  H13X20575   1.204   2.504   3.886
  180SLPC  H13Y20576   1.381   2.507   3.896
  180SLPC  C31420577   1.310   2.405   4.057
  180SLPC  H14X20578   1.301   2.294   4.059
  180SLPC  H14Y20579   1.222   2.438   4.116
  180SLPC  C31520580   1.430   2.445   4.141
  180SLPC  H15X20581   1.398   2.402   4.238
  180SLPC  H15Y20582   1.429   2.555   4.153
  180SLPC  C31620583   1.567   2.394   4.097
  180SLPC  H16X20584   1.595   2.434   3.998
  180SLPC  H16Y20585   1.567   2.283   4.093
  180SLPC  C31720586   1.673   2.427   4.204
  180SLPC  H17X20587   1.661   2.358   4.291
  180SLPC  H17Y20588   1.667   2.530   4.245
  180SLPC  C31820589   1.815   2.408   4.143
  180SLPC  H18X20590   1.820   2.307   4.097
  180SLPC  H18Y20591   1.900   2.414   4.213
  180SLPC  H18Z20592   1.835   2.486   4.067
  181SLPC     N20593   6.350   1.264   2.161
  181SLPC   C1320594   6.337   1.225   2.017
  181SLPC  H13A20595   6.428   1.169   1.998
  181SLPC  H13B20596   6.247   1.168   1.999
  181SLPC  H13C20597   6.337   1.307   1.947
  181SLPC   C1420598   6.369   1.154   2.255
  181SLPC  H14A20599   6.319   1.063   2.225
  181SLPC  H14B20600   6.473   1.130   2.267
  181SLPC  H14C20601   6.331   1.178   2.353
  181SLPC   C1520602   6.216   1.326   2.198
  181SLPC  H15A20603   6.204   1.419   2.145
  181SLPC  H15B20604   6.142   1.261   2.154
  181SLPC  H15C20605   6.213   1.354   2.302
  181SLPC   C1220606   6.443   1.373   2.182
  181SLPC  H12A20607   6.440   1.418   2.280
  181SLPC  H12B20608   6.436   1.463   2.122
  181SLPC   C1120609   6.586   1.329   2.164
  181SLPC  H11A20610   6.644   1.421   2.146
  181SLPC  H11B20611   6.596   1.266   2.073
  181SLPC     P20612   6.791   1.201   2.270
  181SLPC   O1320613   6.785   1.053   2.274
  181SLPC   O1420614   6.867   1.264   2.158
  181SLPC   O1220615   6.643   1.254   2.275
  181SLPC   O1120616   6.859   1.258   2.401
  181SLPC    C120617   6.829   1.391   2.438
  181SLPC    HA20618   6.915   1.462   2.434
  181SLPC    HB20619   6.745   1.438   2.383
  181SLPC    C220620   6.780   1.402   2.589
  181SLPC    HS20621   6.750   1.509   2.595
  181SLPC   O2120622   6.892   1.355   2.671
  181SLPC   C2120623   6.978   1.444   2.709
  181SLPC   O2220624   6.959   1.565   2.684
  181SLPC   C2220625   7.106   1.377   2.769
  181SLPC   H2R20626   7.065   1.301   2.839
  181SLPC   H2S20627   7.159   1.330   2.683
  181SLPC    C320628   6.655   1.321   2.621
  181SLPC    HX20629   6.681   1.214   2.614
  181SLPC    HY20630   6.579   1.347   2.543
  181SLPC   O3120631   6.610   1.347   2.748
  181SLPC   C3120632   6.534   1.457   2.762
  181SLPC   O3220633   6.474   1.512   2.672
  181SLPC   C3220634   6.520   1.497   2.913
  181SLPC   H2X20635   6.548   1.413   2.980
  181SLPC   H2Y20636   6.411   1.508   2.926
  181SLPC   C2320637   7.208   1.474   2.836
  181SLPC   H3R20638   7.151   1.533   2.911
  181SLPC   H3S20639   7.257   1.541   2.761
  181SLPC   C2420640   7.322   1.398   2.899
  181SLPC   H4R20641   7.413   1.461   2.913
  181SLPC   H4S20642   7.347   1.309   2.838
  181SLPC   C2520643   7.273   1.354   3.037
  181SLPC   H5R20644   7.295   1.247   3.059
  181SLPC   H5S20645   7.162   1.353   3.037
  181SLPC   C2620646   7.322   1.429   3.158
  181SLPC   H6R20647   7.302   1.536   3.136
  181SLPC   H6S20648   7.431   1.411   3.175
  181SLPC   C2720649   7.240   1.401   3.289
  181SLPC   H7R20650   7.269   1.301   3.327
  181SLPC   H7S20651   7.133   1.406   3.262
  181SLPC   C2820652   7.277   1.506   3.400
  181SLPC   H8R20653   7.250   1.606   3.361
  181SLPC   H8S20654   7.387   1.502   3.418
  181SLPC   C2920655   7.217   1.479   3.532
  181SLPC   H9R20656   7.114   1.442   3.525
  181SLPC  C21020657   7.263   1.508   3.663
  181SLPC  H10R20658   7.194   1.491   3.748
  181SLPC  C21120659   7.384   1.575   3.713
  181SLPC  H11R20660   7.451   1.611   3.633
  181SLPC  H11S20661   7.444   1.496   3.763
  181SLPC  C21220662   7.344   1.687   3.812
  181SLPC  H12R20663   7.307   1.773   3.754
  181SLPC  C21320664   7.337   1.688   3.947
  181SLPC  H13R20665   7.335   1.780   4.007
  181SLPC  C21420666   7.361   1.573   4.038
  181SLPC  H14R20667   7.390   1.480   3.983
  181SLPC  H14S20668   7.265   1.555   4.090
  181SLPC  C21520669   7.459   1.595   4.152
  181SLPC  H15R20670   7.460   1.505   4.217
  181SLPC  H15S20671   7.421   1.680   4.212
  181SLPC  C21620672   7.602   1.630   4.102
  181SLPC  H16R20673   7.596   1.729   4.052
  181SLPC  H16S20674   7.630   1.554   4.026
  181SLPC  C21720675   7.707   1.616   4.211
  181SLPC  H17R20676   7.689   1.523   4.270
  181SLPC  H17S20677   7.686   1.695   4.286
  181SLPC  C21820678   7.847   1.627   4.153
  181SLPC  H18R20679   7.854   1.717   4.088
  181SLPC  H18S20680   7.879   1.543   4.088
  181SLPC  H18T20681   7.926   1.650   4.227
  181SLPC   C3320682   6.595   1.623   2.945
  181SLPC   H3X20683   6.554   1.668   3.038
  181SLPC   H3Y20684   6.563   1.694   2.866
  181SLPC   C3420685   6.747   1.600   2.956
  181SLPC   H4X20686   6.799   1.692   2.992
  181SLPC   H4Y20687   6.782   1.578   2.853
  181SLPC   C3520688   6.780   1.489   3.061
  181SLPC   H5X20689   6.891   1.492   3.056
  181SLPC   H5Y20690   6.743   1.388   3.033
  181SLPC   C3620691   6.740   1.511   3.203
  181SLPC   H6X20692   6.773   1.428   3.269
  181SLPC   H6Y20693   6.629   1.502   3.191
  181SLPC   C3720694   6.789   1.649   3.250
  181SLPC   H7X20695   6.734   1.728   3.194
  181SLPC   H7Y20696   6.897   1.665   3.225
  181SLPC   C3820697   6.770   1.681   3.398
  181SLPC   H8X20698   6.659   1.672   3.409
  181SLPC   H8Y20699   6.808   1.784   3.411
  181SLPC   C3920700   6.849   1.589   3.495
  181SLPC   H9X20701   6.957   1.595   3.470
  181SLPC   H9Y20702   6.817   1.483   3.496
  181SLPC  C31020703   6.830   1.627   3.641
  181SLPC  H10X20704   6.867   1.548   3.710
  181SLPC  H10Y20705   6.720   1.634   3.655
  181SLPC  C31120706   6.903   1.762   3.678
  181SLPC  H11X20707   6.852   1.851   3.635
  181SLPC  H11Y20708   7.001   1.771   3.625
  181SLPC  C31220709   6.942   1.774   3.823
  181SLPC  H12X20710   7.010   1.861   3.826
  181SLPC  H12Y20711   6.990   1.679   3.856
  181SLPC  C31320712   6.822   1.790   3.922
  181SLPC  H13X20713   6.863   1.805   4.024
  181SLPC  H13Y20714   6.763   1.696   3.915
  181SLPC  C31420715   6.729   1.905   3.880
  181SLPC  H14X20716   6.647   1.854   3.825
  181SLPC  H14Y20717   6.789   1.967   3.810
  181SLPC  C31520718   6.684   1.988   4.003
  181SLPC  H15X20719   6.777   2.032   4.045
  181SLPC  H15Y20720   6.638   1.927   4.083
  181SLPC  C31620721   6.589   2.101   3.961
  181SLPC  H16X20722   6.547   2.149   4.052
  181SLPC  H16Y20723   6.506   2.045   3.913
  181SLPC  C31720724   6.658   2.217   3.880
  181SLPC  H17X20725   6.695   2.189   3.779
  181SLPC  H17Y20726   6.754   2.240   3.931
  181SLPC  C31820727   6.571   2.349   3.858
  181SLPC  H18X20728   6.498   2.341   3.774
  181SLPC  H18Y20729   6.653   2.408   3.812
  181SLPC  H18Z20730   6.535   2.393   3.953
  182SLPC     N20731   4.163   0.745   2.220
  182SLPC   C1320732   4.068   0.628   2.218
  182SLPC  H13A20733   4.033   0.604   2.119
  182SLPC  H13B20734   4.118   0.537   2.246
  182SLPC  H13C20735   3.985   0.641   2.285
  182SLPC   C1420736   4.096   0.868   2.161
  182SLPC  H14A20737   4.162   0.954   2.164
  182SLPC  H14B20738   4.063   0.842   2.061
  182SLPC  H14C20739   4.007   0.878   2.221
  182SLPC   C1520740   4.283   0.712   2.129
  182SLPC  H15A20741   4.312   0.609   2.136
  182SLPC  H15B20742   4.254   0.725   2.026
  182SLPC  H15C20743   4.364   0.781   2.148
  182SLPC   C1220744   4.201   0.771   2.367
  182SLPC  H12A20745   4.253   0.680   2.392
  182SLPC  H12B20746   4.105   0.774   2.417
  182SLPC   C1120747   4.294   0.891   2.398
  182SLPC  H11A20748   4.369   0.886   2.316
  182SLPC  H11B20749   4.345   0.873   2.495
  182SLPC     P20750   4.304   1.149   2.368
  182SLPC   O1320751   4.443   1.134   2.414
  182SLPC   O1420752   4.276   1.189   2.224
  182SLPC   O1220753   4.219   1.015   2.394
  182SLPC   O1120754   4.235   1.263   2.456
  182SLPC    C120755   4.183   1.218   2.588
  182SLPC    HA20756   4.126   1.306   2.625
  182SLPC    HB20757   4.109   1.136   2.578
  182SLPC    C220758   4.295   1.198   2.694
  182SLPC    HS20759   4.359   1.114   2.660
  182SLPC   O2120760   4.238   1.176   2.824
  182SLPC   C2120761   4.161   1.064   2.839
  182SLPC   O2220762   4.133   0.976   2.758
  182SLPC   C2220763   4.130   1.056   2.992
  182SLPC   H2R20764   4.212   1.103   3.050
  182SLPC   H2S20765   4.044   1.126   3.004
  182SLPC    C320766   4.387   1.327   2.691
  182SLPC    HX20767   4.312   1.405   2.714
  182SLPC    HY20768   4.417   1.335   2.585
  182SLPC   O3120769   4.495   1.334   2.787
  182SLPC   C3120770   4.599   1.263   2.755
  182SLPC   O3220771   4.620   1.202   2.648
  182SLPC   C3220772   4.683   1.252   2.877
  182SLPC   H2X20773   4.756   1.170   2.857
  182SLPC   H2Y20774   4.615   1.221   2.959
  182SLPC   C2320775   4.117   0.911   3.044
  182SLPC   H3R20776   4.201   0.854   2.999
  182SLPC   H3S20777   4.025   0.876   2.992
  182SLPC   C2420778   4.114   0.898   3.192
  182SLPC   H4R20779   4.014   0.932   3.227
  182SLPC   H4S20780   4.171   0.974   3.250
  182SLPC   C2520781   4.139   0.755   3.246
  182SLPC   H5R20782   4.248   0.735   3.243
  182SLPC   H5S20783   4.091   0.685   3.174
  182SLPC   C2620784   4.091   0.735   3.395
  182SLPC   H6R20785   3.980   0.738   3.403
  182SLPC   H6S20786   4.136   0.811   3.461
  182SLPC   C2720787   4.133   0.595   3.447
  182SLPC   H7R20788   4.094   0.518   3.377
  182SLPC   H7S20789   4.091   0.574   3.547
  182SLPC   C2820790   4.290   0.579   3.474
  182SLPC   H8R20791   4.331   0.668   3.526
  182SLPC   H8S20792   4.335   0.595   3.374
  182SLPC   C2920793   4.326   0.445   3.537
  182SLPC   H9R20794   4.298   0.429   3.642
  182SLPC  C21020795   4.369   0.333   3.467
  182SLPC  H10R20796   4.399   0.245   3.527
  182SLPC  C21120797   4.391   0.321   3.315
  182SLPC  H11R20798   4.501   0.326   3.305
  182SLPC  H11S20799   4.345   0.405   3.258
  182SLPC  C21220800   4.331   0.198   3.263
  182SLPC  H12R20801   4.235   0.166   3.306
  182SLPC  C21320802   4.383   0.131   3.158
  182SLPC  H13R20803   4.323   0.046   3.120
  182SLPC  C21420804   4.507   0.148   3.078
  182SLPC  H14R20805   4.583   0.067   3.082
  182SLPC  H14S20806   4.581   0.222   3.114
  182SLPC  C21520807   4.479   0.186   2.928
  182SLPC  H15R20808   4.431   0.286   2.930
  182SLPC  H15S20809   4.417   0.100   2.895
  182SLPC  C21620810   4.604   0.193   2.841
  182SLPC  H16R20811   4.675   0.274   2.866
  182SLPC  H16S20812   4.568   0.210   2.737
  182SLPC  C21720813   4.684   0.056   2.848
  182SLPC  H17R20814   4.624  -0.027   2.890
  182SLPC  H17S20815   4.758   0.074   2.929
  182SLPC  C21820816   4.752   0.021   2.725
  182SLPC  H18R20817   4.834  -0.052   2.736
  182SLPC  H18S20818   4.786   0.112   2.671
  182SLPC  H18T20819   4.679  -0.030   2.659
  182SLPC   C3320820   4.742   1.383   2.910
  182SLPC   H3X20821   4.673   1.469   2.921
  182SLPC   H3Y20822   4.799   1.405   2.817
  182SLPC   C3420823   4.847   1.365   3.018
  182SLPC   H4X20824   4.941   1.423   3.006
  182SLPC   H4Y20825   4.884   1.260   3.021
  182SLPC   C3520826   4.796   1.386   3.158
  182SLPC   H5X20827   4.704   1.326   3.174
  182SLPC   H5Y20828   4.766   1.490   3.180
  182SLPC   C3620829   4.907   1.333   3.262
  182SLPC   H6X20830   5.004   1.382   3.236
  182SLPC   H6Y20831   4.902   1.223   3.252
  182SLPC   C3720832   4.871   1.386   3.406
  182SLPC   H7X20833   4.762   1.377   3.425
  182SLPC   H7Y20834   4.897   1.492   3.427
  182SLPC   C3820835   4.939   1.295   3.506
  182SLPC   H8X20836   5.016   1.362   3.551
  182SLPC   H8Y20837   4.982   1.205   3.459
  182SLPC   C3920838   4.850   1.235   3.617
  182SLPC   H9X20839   4.757   1.203   3.564
  182SLPC   H9Y20840   4.829   1.315   3.691
  182SLPC  C31020841   4.922   1.119   3.695
  182SLPC  H10X20842   4.934   1.033   3.626
  182SLPC  H10Y20843   4.843   1.091   3.767
  182SLPC  C31120844   5.051   1.156   3.772
  182SLPC  H11X20845   5.046   1.262   3.803
  182SLPC  H11Y20846   5.130   1.132   3.697
  182SLPC  C31220847   5.075   1.073   3.903
  182SLPC  H12X20848   5.079   0.966   3.873
  182SLPC  H12Y20849   4.981   1.088   3.960
  182SLPC  C31320850   5.202   1.104   3.981
  182SLPC  H13X20851   5.196   1.028   4.062
  182SLPC  H13Y20852   5.202   1.201   4.033
  182SLPC  C31420853   5.339   1.081   3.900
  182SLPC  H14X20854   5.345   1.163   3.825
  182SLPC  H14Y20855   5.334   0.981   3.850
  182SLPC  C31520856   5.470   1.089   3.975
  182SLPC  H15X20857   5.472   1.015   4.058
  182SLPC  H15Y20858   5.468   1.189   4.023
  182SLPC  C31620859   5.596   1.063   3.895
  182SLPC  H16X20860   5.576   0.962   3.855
  182SLPC  H16Y20861   5.688   1.078   3.957
  182SLPC  C31720862   5.605   1.157   3.775
  182SLPC  H17X20863   5.527   1.138   3.699
  182SLPC  H17Y20864   5.707   1.139   3.733
  182SLPC  C31820865   5.605   1.303   3.810
  182SLPC  H18X20866   5.658   1.376   3.746
  182SLPC  H18Y20867   5.648   1.319   3.912
  182SLPC  H18Z20868   5.499   1.336   3.809
  183SLPC     N20869   5.248   2.341   2.278
  183SLPC   C1320870   5.331   2.292   2.159
  183SLPC  H13A20871   5.338   2.184   2.165
  183SLPC  H13B20872   5.272   2.307   2.070
  183SLPC  H13C20873   5.432   2.330   2.145
  183SLPC   C1420874   5.121   2.260   2.288
  183SLPC  H14A20875   5.073   2.266   2.384
  183SLPC  H14B20876   5.052   2.297   2.213
  183SLPC  H14C20877   5.132   2.155   2.263
  183SLPC   C1520878   5.211   2.483   2.269
  183SLPC  H15A20879   5.289   2.557   2.263
  183SLPC  H15B20880   5.150   2.494   2.180
  183SLPC  H15C20881   5.156   2.515   2.356
  183SLPC   C1220882   5.326   2.323   2.405
  183SLPC  H12A20883   5.269   2.351   2.492
  183SLPC  H12B20884   5.407   2.394   2.406
  183SLPC   C1120885   5.393   2.189   2.434
  183SLPC  H11A20886   5.327   2.108   2.396
  183SLPC  H11B20887   5.401   2.175   2.544
  183SLPC     P20888   5.647   2.248   2.412
  183SLPC   O1320889   5.699   2.175   2.533
  183SLPC   O1420890   5.743   2.257   2.295
  183SLPC   O1220891   5.521   2.170   2.368
  183SLPC   O1120892   5.595   2.385   2.461
  183SLPC    C120893   5.639   2.515   2.427
  183SLPC    HA20894   5.696   2.521   2.332
  183SLPC    HB20895   5.552   2.574   2.391
  183SLPC    C220896   5.714   2.567   2.552
  183SLPC    HS20897   5.754   2.668   2.530
  183SLPC   O2120898   5.823   2.481   2.584
  183SLPC   C2120899   5.927   2.486   2.500
  183SLPC   O2220900   5.936   2.555   2.401
  183SLPC   C2220901   6.025   2.388   2.569
  183SLPC   H2R20902   6.018   2.403   2.678
  183SLPC   H2S20903   5.997   2.283   2.543
  183SLPC    C320904   5.614   2.586   2.670
  183SLPC    HX20905   5.553   2.497   2.696
  183SLPC    HY20906   5.541   2.652   2.617
  183SLPC   O3120907   5.666   2.662   2.784
  183SLPC   C3120908   5.720   2.578   2.877
  183SLPC   O3220909   5.723   2.455   2.870
  183SLPC   C3220910   5.794   2.650   2.986
  183SLPC   H2X20911   5.899   2.615   2.980
  183SLPC   H2Y20912   5.760   2.618   3.086
  183SLPC   C2320913   6.177   2.417   2.536
  183SLPC   H3R20914   6.184   2.466   2.437
  183SLPC   H3S20915   6.227   2.319   2.525
  183SLPC   C2420916   6.243   2.502   2.645
  183SLPC   H4R20917   6.348   2.517   2.615
  183SLPC   H4S20918   6.236   2.433   2.732
  183SLPC   C2520919   6.182   2.645   2.671
  183SLPC   H5R20920   6.078   2.627   2.706
  183SLPC   H5S20921   6.184   2.699   2.574
  183SLPC   C2620922   6.262   2.711   2.792
  183SLPC   H6R20923   6.368   2.696   2.764
  183SLPC   H6S20924   6.255   2.665   2.893
  183SLPC   C2720925   6.238   2.868   2.808
  183SLPC   H7R20926   6.254   2.912   2.708
  183SLPC   H7S20927   6.325   2.908   2.864
  183SLPC   C2820928   6.103   2.907   2.868
  183SLPC   H8R20929   6.083   2.859   2.966
  183SLPC   H8S20930   6.026   2.865   2.801
  183SLPC   C2920931   6.099   3.059   2.881
  183SLPC   H9R20932   6.084   3.118   2.790
  183SLPC  C21020933   6.135   3.129   2.991
  183SLPC  H10R20934   6.146   3.239   2.987
  183SLPC  C21120935   6.168   3.073   3.126
  183SLPC  H11R20936   6.154   2.963   3.120
  183SLPC  H11S20937   6.084   3.113   3.186
  183SLPC  C21220938   6.297   3.104   3.175
  183SLPC  H12R20939   6.351   3.191   3.135
  183SLPC  C21320940   6.357   3.053   3.286
  183SLPC  H13R20941   6.463   3.079   3.299
  183SLPC  C21420942   6.321   2.937   3.381
  183SLPC  H14R20943   6.381   2.848   3.350
  183SLPC  H14S20944   6.214   2.909   3.375
  183SLPC  C21520945   6.380   2.957   3.522
  183SLPC  H15R20946   6.490   2.943   3.536
  183SLPC  H15S20947   6.335   2.873   3.579
  183SLPC  C21620948   6.323   3.069   3.607
  183SLPC  H16R20949   6.215   3.068   3.580
  183SLPC  H16S20950   6.345   3.172   3.573
  183SLPC  C21720951   6.358   3.048   3.755
  183SLPC  H17R20952   6.467   3.040   3.778
  183SLPC  H17S20953   6.316   2.951   3.790
  183SLPC  C21820954   6.297   3.160   3.838
  183SLPC  H18R20955   6.335   3.150   3.941
  183SLPC  H18S20956   6.191   3.130   3.849
  183SLPC  H18T20957   6.320   3.266   3.813
  183SLPC   C3320958   5.786   2.803   2.992
  183SLPC   H3X20959   5.678   2.830   2.991
  183SLPC   H3Y20960   5.826   2.839   2.895
  183SLPC   C3420961   5.851   2.863   3.121
  183SLPC   H4X20962   5.850   2.974   3.116
  183SLPC   H4Y20963   5.956   2.834   3.143
  183SLPC   C3520964   5.780   2.823   3.255
  183SLPC   H5X20965   5.784   2.718   3.291
  183SLPC   H5Y20966   5.671   2.847   3.256
  183SLPC   C3620967   5.846   2.903   3.369
  183SLPC   H6X20968   5.854   3.008   3.332
  183SLPC   H6Y20969   5.947   2.865   3.393
  183SLPC   C3720970   5.782   2.881   3.513
  183SLPC   H7X20971   5.793   2.780   3.556
  183SLPC   H7Y20972   5.674   2.908   3.507
  183SLPC   C3820973   5.857   2.970   3.611
  183SLPC   H8X20974   5.833   3.078   3.598
  183SLPC   H8Y20975   5.966   2.964   3.588
  183SLPC   C3920976   5.831   2.942   3.762
  183SLPC   H9X20977   5.889   3.024   3.809
  183SLPC   H9Y20978   5.871   2.844   3.796
  183SLPC  C31020979   5.684   2.948   3.809
  183SLPC  H10X20980   5.626   2.866   3.759
  183SLPC  H10Y20981   5.636   3.042   3.773
  183SLPC  C31120982   5.675   2.937   3.959
  183SLPC  H11X20983   5.708   3.036   3.996
  183SLPC  H11Y20984   5.744   2.856   3.992
  183SLPC  C31220985   5.538   2.895   4.002
  183SLPC  H12X20986   5.493   2.807   3.953
  183SLPC  H12Y20987   5.476   2.985   3.980
  183SLPC  C31320988   5.515   2.882   4.153
  183SLPC  H13X20989   5.570   2.789   4.177
  183SLPC  H13Y20990   5.405   2.872   4.169
  183SLPC  C31420991   5.575   2.997   4.244
  183SLPC  H14X20992   5.555   3.097   4.200
  183SLPC  H14Y20993   5.684   2.977   4.244
  183SLPC  C31520994   5.529   2.992   4.398
  183SLPC  H15X20995   5.423   3.023   4.408
  183SLPC  H15Y20996   5.593   3.066   4.451
  183SLPC  C31620997   5.569   2.861   4.463
  183SLPC  H16X20998   5.680   2.856   4.468
  183SLPC  H16Y20999   5.547   2.771   4.401
  183SLPC  C31721000   5.518   2.854   4.611
  183SLPC  H17X21001   5.408   2.854   4.598
  183SLPC  H17Y21002   5.544   2.942   4.673
  183SLPC  C31821003   5.559   2.725   4.682
  183SLPC  H18X21004   5.662   2.702   4.715
  183SLPC  H18Y21005   5.511   2.637   4.634
  183SLPC  H18Z21006   5.500   2.723   4.776
  184SLPC     N21007   5.963   2.741   2.018
  184SLPC   C1321008   6.056   2.635   1.953
  184SLPC  H13A21009   6.026   2.535   1.980
  184SLPC  H13B21010   6.053   2.640   1.845
  184SLPC  H13C21011   6.155   2.645   1.994
  184SLPC   C1421012   5.944   2.701   2.164
  184SLPC  H14A21013   5.899   2.780   2.223
  184SLPC  H14B21014   5.876   2.619   2.179
  184SLPC  H14C21015   6.032   2.674   2.220
  184SLPC   C1521016   5.826   2.740   1.949
  184SLPC  H15A21017   5.850   2.721   1.845
  184SLPC  H15B21018   5.751   2.673   1.989
  184SLPC  H15C21019   5.782   2.838   1.963
  184SLPC   C1221020   6.017   2.872   1.984
  184SLPC  H12A21021   6.012   2.891   1.878
  184SLPC  H12B21022   6.122   2.866   2.008
  184SLPC   C1121023   5.952   2.997   2.050
  184SLPC  H11A21024   6.023   3.079   2.026
  184SLPC  H11B21025   5.939   2.980   2.159
  184SLPC     P21026   5.776   3.156   1.936
  184SLPC   O1321027   5.859   3.171   1.814
  184SLPC   O1421028   5.631   3.147   1.910
  184SLPC   O1221029   5.823   3.022   2.007
  184SLPC   O1121030   5.811   3.274   2.033
  184SLPC    C121031   5.764   3.282   2.163
  184SLPC    HA21032   5.702   3.195   2.194
  184SLPC    HB21033   5.852   3.272   2.229
  184SLPC    C221034   5.698   3.413   2.201
  184SLPC    HS21035   5.626   3.429   2.118
  184SLPC   O2121036   5.793   3.517   2.201
  184SLPC   C2121037   5.740   3.642   2.225
  184SLPC   O2221038   5.628   3.670   2.193
  184SLPC   C2221039   5.833   3.730   2.314
  184SLPC   H2R21040   5.884   3.670   2.392
  184SLPC   H2S21041   5.905   3.767   2.238
  184SLPC    C321042   5.630   3.401   2.340
  184SLPC    HX21043   5.561   3.314   2.330
  184SLPC    HY21044   5.566   3.490   2.356
  184SLPC   O3121045   5.734   3.393   2.445
  184SLPC   C3121046   5.704   3.422   2.572
  184SLPC   O3221047   5.593   3.442   2.619
  184SLPC   C3221048   5.827   3.396   2.652
  184SLPC   H2X21049   5.888   3.325   2.591
  184SLPC   H2Y21050   5.800   3.327   2.735
  184SLPC   C2321051   5.757   3.844   2.383
  184SLPC   H3R21052   5.726   3.923   2.311
  184SLPC   H3S21053   5.829   3.878   2.461
  184SLPC   C2421054   5.633   3.801   2.474
  184SLPC   H4R21055   5.663   3.714   2.536
  184SLPC   H4S21056   5.556   3.766   2.402
  184SLPC   C2521057   5.577   3.918   2.556
  184SLPC   H5R21058   5.555   3.997   2.481
  184SLPC   H5S21059   5.659   3.958   2.619
  184SLPC   C2621060   5.468   3.872   2.653
  184SLPC   H6R21061   5.477   3.947   2.735
  184SLPC   H6S21062   5.493   3.770   2.689
  184SLPC   C2721063   5.331   3.880   2.590
  184SLPC   H7R21064   5.327   3.802   2.511
  184SLPC   H7S21065   5.323   3.980   2.543
  184SLPC   C2821066   5.222   3.861   2.693
  184SLPC   H8R21067   5.245   3.767   2.748
  184SLPC   H8S21068   5.125   3.864   2.639
  184SLPC   C2921069   5.206   3.985   2.788
  184SLPC   H9R21070   5.184   4.076   2.730
  184SLPC  C21021071   5.203   3.991   2.923
  184SLPC  H10R21072   5.178   4.087   2.970
  184SLPC  C21121073   5.241   3.879   3.017
  184SLPC  H11R21074   5.349   3.902   3.029
  184SLPC  H11S21075   5.244   3.777   2.974
  184SLPC  C21221076   5.174   3.889   3.157
  184SLPC  H12R21077   5.080   3.946   3.159
  184SLPC  C21321078   5.204   3.831   3.274
  184SLPC  H13R21079   5.136   3.849   3.359
  184SLPC  C21421080   5.318   3.738   3.296
  184SLPC  H14R21081   5.378   3.765   3.386
  184SLPC  H14S21082   5.394   3.752   3.216
  184SLPC  C21521083   5.263   3.589   3.308
  184SLPC  H15R21084   5.196   3.565   3.223
  184SLPC  H15S21085   5.198   3.590   3.398
  184SLPC  C21621086   5.365   3.481   3.319
  184SLPC  H16R21087   5.316   3.384   3.296
  184SLPC  H16S21088   5.417   3.475   3.417
  184SLPC  C21721089   5.477   3.498   3.214
  184SLPC  H17R21090   5.543   3.409   3.225
  184SLPC  H17S21091   5.541   3.586   3.238
  184SLPC  C21821092   5.433   3.487   3.068
  184SLPC  H18R21093   5.405   3.380   3.064
  184SLPC  H18S21094   5.514   3.501   2.993
  184SLPC  H18T21095   5.340   3.543   3.041
  184SLPC   C3321096   5.892   3.519   2.708
  184SLPC   H3X21097   5.920   3.587   2.624
  184SLPC   H3Y21098   5.982   3.493   2.768
  184SLPC   C3421099   5.804   3.591   2.805
  184SLPC   H4X21100   5.767   3.509   2.868
  184SLPC   H4Y21101   5.720   3.643   2.754
  184SLPC   C3521102   5.880   3.706   2.877
  184SLPC   H5X21103   5.921   3.771   2.798
  184SLPC   H5Y21104   5.961   3.666   2.941
  184SLPC   C3621105   5.776   3.784   2.959
  184SLPC   H6X21106   5.687   3.797   2.894
  184SLPC   H6Y21107   5.812   3.888   2.975
  184SLPC   C3721108   5.743   3.729   3.098
  184SLPC   H7X21109   5.721   3.621   3.095
  184SLPC   H7Y21110   5.646   3.778   3.121
  184SLPC   C3821111   5.851   3.749   3.204
  184SLPC   H8X21112   5.872   3.858   3.203
  184SLPC   H8Y21113   5.940   3.700   3.158
  184SLPC   C3921114   5.806   3.707   3.342
  184SLPC   H9X21115   5.899   3.708   3.403
  184SLPC   H9Y21116   5.772   3.602   3.339
  184SLPC  C31021117   5.696   3.800   3.393
  184SLPC  H10X21118   5.606   3.788   3.329
  184SLPC  H10Y21119   5.746   3.900   3.387
  184SLPC  C31121120   5.656   3.777   3.541
  184SLPC  H11X21121   5.564   3.833   3.567
  184SLPC  H11Y21122   5.728   3.832   3.605
  184SLPC  C31221123   5.661   3.634   3.589
  184SLPC  H12X21124   5.770   3.612   3.597
  184SLPC  H12Y21125   5.614   3.561   3.520
  184SLPC  C31321126   5.590   3.607   3.725
  184SLPC  H13X21127   5.596   3.500   3.755
  184SLPC  H13Y21128   5.486   3.642   3.712
  184SLPC  C31421129   5.659   3.683   3.837
  184SLPC  H14X21130   5.687   3.787   3.807
  184SLPC  H14Y21131   5.753   3.625   3.852
  184SLPC  C31521132   5.584   3.694   3.963
  184SLPC  H15X21133   5.647   3.738   4.043
  184SLPC  H15Y21134   5.533   3.603   4.003
  184SLPC  C31621135   5.450   3.777   3.949
  184SLPC  H16X21136   5.412   3.753   3.847
  184SLPC  H16Y21137   5.495   3.879   3.942
  184SLPC  C31721138   5.348   3.759   4.055
  184SLPC  H17X21139   5.316   3.653   4.058
  184SLPC  H17Y21140   5.264   3.829   4.034
  184SLPC  C31821141   5.396   3.782   4.198
  184SLPC  H18X21142   5.314   3.790   4.272
  184SLPC  H18Y21143   5.447   3.881   4.200
  184SLPC  H18Z21144   5.460   3.700   4.238
  185POPC     N21145   6.107   0.009   7.048
  185POPC   C1221146   6.216   0.000   6.936
  185POPC  H12A21147   6.298   0.069   6.953
  185POPC  H12B21148   6.169   0.039   6.846
  185POPC   C1321149   6.039   0.140   7.058
  185POPC  H13A21150   5.965   0.148   6.980
  185POPC  H13B21151   5.996   0.142   7.157
  185POPC  H13C21152   6.108   0.224   7.051
  185POPC   C1421153   5.996  -0.088   7.004
  185POPC  H14A21154   5.910  -0.094   7.069
  185POPC  H14B21155   5.972  -0.053   6.905
  185POPC  H14C21156   6.035  -0.189   6.997
  185POPC   C1521157   6.157  -0.027   7.185
  185POPC  H15A21158   6.087  -0.001   7.263
  185POPC  H15B21159   6.247   0.024   7.218
  185POPC  H15C21160   6.176  -0.133   7.197
  185POPC   C1121161   6.287  -0.133   6.904
  185POPC  H11A21162   6.354  -0.116   6.817
  185POPC  H11B21163   6.217  -0.218   6.892
  185POPC     P21164   6.527  -0.130   7.012
  185POPC   O1321165   6.590  -0.171   7.143
  185POPC   O1421166   6.548   0.008   6.963
  185POPC   O1221167   6.366  -0.173   7.019
  185POPC   O1121168   6.582  -0.238   6.906
  185POPC    C121169   6.713  -0.217   6.847
  185POPC    HA21170   6.756  -0.315   6.819
  185POPC    HB21171   6.788  -0.166   6.911
  185POPC    C221172   6.704  -0.136   6.715
  185POPC    HS21173   6.654  -0.038   6.728
  185POPC   O2121174   6.633  -0.221   6.623
  185POPC   C2121175   6.572  -0.171   6.521
  185POPC   O2221176   6.546  -0.055   6.501
  185POPC   C2221177   6.532  -0.287   6.423
  185POPC   H2R21178   6.423  -0.307   6.427
  185POPC   H2S21179   6.593  -0.377   6.444
  185POPC    C321180   6.854  -0.105   6.670
  185POPC    HX21181   6.908  -0.201   6.684
  185POPC    HY21182   6.890  -0.037   6.751
  185POPC   O3121183   6.875  -0.039   6.546
  185POPC   C3121184   6.895  -0.113   6.436
  185POPC   O3221185   6.876  -0.235   6.440
  185POPC   C3221186   6.921  -0.032   6.310
  185POPC   H2X21187   6.946   0.070   6.346
  185POPC   H2Y21188   6.827  -0.032   6.250
  185POPC   C2321189   6.564  -0.252   6.281
  185POPC   H3R21190   6.665  -0.206   6.295
  185POPC   H3S21191   6.503  -0.172   6.234
  185POPC   C2421192   6.584  -0.360   6.175
  185POPC   H4R21193   6.490  -0.406   6.139
  185POPC   H4S21194   6.637  -0.443   6.225
  185POPC   C2521195   6.674  -0.311   6.063
  185POPC   H5R21196   6.761  -0.254   6.102
  185POPC   H5S21197   6.606  -0.236   6.017
  185POPC   C2621198   6.722  -0.413   5.971
  185POPC   H6R21199   6.635  -0.474   5.939
  185POPC   H6S21200   6.794  -0.486   6.014
  185POPC   C2721201   6.777  -0.350   5.841
  185POPC   H7R21202   6.880  -0.318   5.868
  185POPC   H7S21203   6.719  -0.261   5.807
  185POPC   C2821204   6.774  -0.448   5.723
  185POPC   H8R21205   6.814  -0.547   5.754
  185POPC   H8S21206   6.854  -0.412   5.655
  185POPC   C2921207   6.642  -0.449   5.649
  185POPC   H9121208   6.551  -0.479   5.704
  185POPC  C21021209   6.629  -0.405   5.528
  185POPC  H10121210   6.525  -0.399   5.495
  185POPC  C21121211   6.740  -0.360   5.437
  185POPC  H11R21212   6.789  -0.453   5.403
  185POPC  H11S21213   6.817  -0.302   5.494
  185POPC  C21221214   6.686  -0.264   5.325
  185POPC  H12R21215   6.774  -0.241   5.262
  185POPC  H12S21216   6.646  -0.174   5.376
  185POPC  C21321217   6.576  -0.329   5.236
  185POPC  H13R21218   6.476  -0.325   5.285
  185POPC  H13S21219   6.600  -0.437   5.236
  185POPC  C21421220   6.554  -0.270   5.098
  185POPC  H14R21221   6.652  -0.234   5.060
  185POPC  H14S21222   6.492  -0.178   5.100
  185POPC  C21521223   6.491  -0.371   5.004
  185POPC  H15R21224   6.388  -0.405   5.029
  185POPC  H15S21225   6.553  -0.462   5.021
  185POPC  C21621226   6.518  -0.345   4.858
  185POPC  H16R21227   6.626  -0.348   4.833
  185POPC  H16S21228   6.486  -0.241   4.836
  185POPC  C21721229   6.437  -0.434   4.761
  185POPC  H17R21230   6.449  -0.387   4.662
  185POPC  H17S21231   6.329  -0.429   4.787
  185POPC  C21821232   6.476  -0.582   4.755
  185POPC  H18R21233   6.449  -0.624   4.854
  185POPC  H18S21234   6.585  -0.600   4.746
  185POPC  H18T21235   6.426  -0.626   4.665
  185POPC   C3321236   7.031  -0.098   6.224
  185POPC   H3X21237   7.013  -0.207   6.218
  185POPC   H3Y21238   7.130  -0.075   6.268
  185POPC   C3421239   7.026  -0.066   6.075
  185POPC   H4X21240   7.000   0.041   6.061
  185POPC   H4Y21241   6.940  -0.125   6.038
  185POPC   C3521242   7.149  -0.120   6.004
  185POPC   H5X21243   7.165  -0.229   6.016
  185POPC   H5Y21244   7.233  -0.065   6.051
  185POPC   C3621245   7.167  -0.090   5.852
  185POPC   H6X21246   7.271  -0.112   5.819
  185POPC   H6Y21247   7.157   0.020   5.848
  185POPC   C3721248   7.060  -0.169   5.762
  185POPC   H7X21249   6.956  -0.140   5.790
  185POPC   H7Y21250   7.071  -0.279   5.777
  185POPC   C3821251   7.088  -0.153   5.609
  185POPC   H8X21252   7.026  -0.232   5.562
  185POPC   H8Y21253   7.196  -0.174   5.597
  185POPC   C3921254   7.062  -0.018   5.542
  185POPC   H9X21255   7.114   0.059   5.603
  185POPC   H9Y21256   6.953   0.007   5.545
  185POPC  C31021257   7.103  -0.027   5.397
  185POPC  H10X21258   7.184  -0.103   5.392
  185POPC  H10Y21259   7.147   0.071   5.366
  185POPC  C31121260   6.997  -0.059   5.295
  185POPC  H11X21261   6.933  -0.142   5.333
  185POPC  H11Y21262   7.053  -0.099   5.208
  185POPC  C31221263   6.913   0.056   5.253
  185POPC  H12X21264   6.971   0.140   5.209
  185POPC  H12Y21265   6.868   0.099   5.344
  185POPC  C31321266   6.800   0.037   5.148
  185POPC  H13X21267   6.738   0.129   5.157
  185POPC  H13Y21268   6.737  -0.051   5.169
  185POPC  C31421269   6.856   0.010   5.006
  185POPC  H14X21270   6.917  -0.083   5.005
  185POPC  H14Y21271   6.932   0.085   4.974
  185POPC  C31521272   6.741   0.002   4.902
  185POPC  H15X21273   6.702   0.104   4.881
  185POPC  H15Y21274   6.663  -0.057   4.954
  185POPC  C31621275   6.775  -0.068   4.773
  185POPC  H16X21276   6.827  -0.162   4.802
  185POPC  H16Y21277   6.839  -0.009   4.704
  185POPC  H16Z21278   6.686  -0.104   4.717
  186POPC     N21279   3.173   6.376   7.354
  186POPC   C1221280   3.190   6.431   7.215
  186POPC  H12A21281   3.294   6.459   7.211
  186POPC  H12B21282   3.144   6.529   7.210
  186POPC   C1321283   3.213   6.472   7.451
  186POPC  H13A21284   3.239   6.437   7.550
  186POPC  H13B21285   3.312   6.509   7.426
  186POPC  H13C21286   3.151   6.560   7.448
  186POPC   C1421287   3.032   6.356   7.392
  186POPC  H14A21288   2.980   6.273   7.346
  186POPC  H14B21289   3.008   6.339   7.496
  186POPC  H14C21290   2.974   6.442   7.362
  186POPC   C1521291   3.250   6.245   7.370
  186POPC  H15A21292   3.213   6.175   7.297
  186POPC  H15B21293   3.232   6.203   7.467
  186POPC  H15C21294   3.355   6.273   7.365
  186POPC   C1121295   3.156   6.342   7.084
  186POPC  H11A21296   3.227   6.257   7.084
  186POPC  H11B21297   3.171   6.406   6.995
  186POPC     P21298   2.965   6.174   7.032
  186POPC   O1321299   2.821   6.162   7.064
  186POPC   O1421300   3.046   6.059   7.079
  186POPC   O1221301   3.022   6.301   7.090
  186POPC   O1121302   2.996   6.204   6.880
  186POPC    C121303   2.942   6.308   6.792
  186POPC    HA21304   3.019   6.354   6.727
  186POPC    HB21305   2.903   6.390   6.855
  186POPC    C221306   2.835   6.241   6.690
  186POPC    HS21307   2.760   6.198   6.760
  186POPC   O2121308   2.912   6.145   6.612
  186POPC   C2121309   2.845   6.042   6.567
  186POPC   O2221310   2.732   6.015   6.598
  186POPC   C2221311   2.945   5.954   6.485
  186POPC   H2R21312   2.961   5.869   6.555
  186POPC   H2S21313   3.040   6.011   6.476
  186POPC    C321314   2.772   6.353   6.600
  186POPC    HX21315   2.857   6.401   6.547
  186POPC    HY21316   2.721   6.436   6.653
  186POPC   O3121317   2.690   6.304   6.492
  186POPC   C3121318   2.565   6.295   6.523
  186POPC   O3221319   2.507   6.306   6.631
  186POPC   C3221320   2.481   6.275   6.400
  186POPC   H2X21321   2.380   6.264   6.444
  186POPC   H2Y21322   2.516   6.176   6.362
  186POPC   C2321323   2.908   5.907   6.344
  186POPC   H3R21324   2.811   5.856   6.329
  186POPC   H3S21325   2.980   5.829   6.313
  186POPC   C2421326   2.924   6.025   6.253
  186POPC   H4R21327   2.899   6.123   6.299
  186POPC   H4S21328   2.852   6.020   6.169
  186POPC   C2521329   3.066   6.040   6.202
  186POPC   H5R21330   3.123   5.946   6.219
  186POPC   H5S21331   3.118   6.111   6.270
  186POPC   C2621332   3.077   6.073   6.054
  186POPC   H6R21333   3.023   6.006   5.983
  186POPC   H6S21334   3.178   6.053   6.013
  186POPC   C2721335   3.028   6.220   6.027
  186POPC   H7R21336   3.096   6.285   6.087
  186POPC   H7S21337   2.925   6.234   6.066
  186POPC   C2821338   3.067   6.276   5.890
  186POPC   H8R21339   3.177   6.260   5.890
  186POPC   H8S21340   3.046   6.385   5.879
  186POPC   C2921341   2.996   6.205   5.780
  186POPC   H9121342   2.902   6.159   5.814
  186POPC  C21021343   3.047   6.161   5.661
  186POPC  H10121344   2.980   6.116   5.587
  186POPC  C21121345   3.181   6.194   5.605
  186POPC  H11R21346   3.240   6.100   5.597
  186POPC  H11S21347   3.241   6.256   5.675
  186POPC  C21221348   3.182   6.264   5.470
  186POPC  H12R21349   3.118   6.355   5.457
  186POPC  H12S21350   3.147   6.187   5.398
  186POPC  C21321351   3.325   6.304   5.413
  186POPC  H13R21352   3.392   6.216   5.412
  186POPC  H13S21353   3.363   6.386   5.478
  186POPC  C21421354   3.315   6.352   5.273
  186POPC  H14R21355   3.219   6.408   5.279
  186POPC  H14S21356   3.303   6.266   5.204
  186POPC  C21521357   3.425   6.440   5.217
  186POPC  H15R21358   3.522   6.392   5.244
  186POPC  H15S21359   3.424   6.539   5.268
  186POPC  C21621360   3.419   6.473   5.067
  186POPC  H16R21361   3.489   6.558   5.055
  186POPC  H16S21362   3.321   6.515   5.036
  186POPC  C21721363   3.462   6.352   4.981
  186POPC  H17R21364   3.425   6.259   5.029
  186POPC  H17S21365   3.573   6.354   4.988
  186POPC  C21821366   3.426   6.366   4.829
  186POPC  H18R21367   3.481   6.456   4.796
  186POPC  H18S21368   3.316   6.380   4.819
  186POPC  H18T21369   3.468   6.290   4.759
  186POPC   C3321370   2.496   6.387   6.298
  186POPC   H3X21371   2.596   6.380   6.251
  186POPC   H3Y21372   2.487   6.487   6.345
  186POPC   C3421373   2.390   6.384   6.190
  186POPC   H4X21374   2.336   6.481   6.196
  186POPC   H4Y21375   2.315   6.304   6.212
  186POPC   C3521376   2.450   6.378   6.048
  186POPC   H5X21377   2.511   6.469   6.031
  186POPC   H5Y21378   2.366   6.389   5.975
  186POPC   C3621379   2.531   6.250   6.013
  186POPC   H6X21380   2.471   6.166   6.054
  186POPC   H6Y21381   2.633   6.248   6.056
  186POPC   C3721382   2.539   6.207   5.863
  186POPC   H7X21383   2.439   6.210   5.815
  186POPC   H7Y21384   2.584   6.106   5.858
  186POPC   C3821385   2.619   6.313   5.785
  186POPC   H8X21386   2.722   6.310   5.827
  186POPC   H8Y21387   2.572   6.409   5.816
  186POPC   C3921388   2.624   6.302   5.631
  186POPC   H9X21389   2.518   6.308   5.598
  186POPC   H9Y21390   2.663   6.200   5.614
  186POPC  C31021391   2.713   6.416   5.565
  186POPC  H10X21392   2.814   6.422   5.610
  186POPC  H10Y21393   2.667   6.513   5.595
  186POPC  C31121394   2.741   6.408   5.413
  186POPC  H11X21395   2.764   6.511   5.379
  186POPC  H11Y21396   2.642   6.388   5.367
  186POPC  C31221397   2.836   6.303   5.363
  186POPC  H12X21398   2.779   6.208   5.357
  186POPC  H12Y21399   2.918   6.292   5.437
  186POPC  C31321400   2.894   6.342   5.233
  186POPC  H13X21401   2.981   6.407   5.257
  186POPC  H13Y21402   2.822   6.400   5.172
  186POPC  C31421403   2.957   6.232   5.147
  186POPC  H14X21404   2.873   6.164   5.118
  186POPC  H14Y21405   3.029   6.168   5.201
  186POPC  C31521406   3.033   6.281   5.022
  186POPC  H15X21407   3.120   6.342   5.054
  186POPC  H15Y21408   2.966   6.345   4.962
  186POPC  C31621409   3.090   6.162   4.937
  186POPC  H16X21410   3.182   6.183   4.879
  186POPC  H16Y21411   3.007   6.112   4.882
  186POPC  H16Z21412   3.129   6.086   5.008
  187POPC     N21413   5.556   5.091   1.912
  187POPC   C1221414   5.559   5.083   2.058
  187POPC  H12A21415   5.661   5.068   2.090
  187POPC  H12B21416   5.499   4.996   2.083
  187POPC   C1321417   5.612   4.970   1.848
  187POPC  H13A21418   5.629   4.989   1.743
  187POPC  H13B21419   5.712   4.957   1.889
  187POPC  H13C21420   5.536   4.893   1.849
  187POPC   C1421421   5.417   5.104   1.866
  187POPC  H14A21422   5.370   5.183   1.922
  187POPC  H14B21423   5.408   5.142   1.765
  187POPC  H14C21424   5.362   5.012   1.876
  187POPC   C1521425   5.639   5.207   1.863
  187POPC  H15A21426   5.595   5.302   1.888
  187POPC  H15B21427   5.647   5.189   1.757
  187POPC  H15C21428   5.738   5.214   1.905
  187POPC   C1121429   5.506   5.203   2.140
  187POPC  H11A21430   5.545   5.297   2.096
  187POPC  H11B21431   5.558   5.189   2.237
  187POPC     P21432   5.268   5.143   2.241
  187POPC   O1321433   5.303   5.000   2.242
  187POPC   O1421434   5.127   5.179   2.212
  187POPC   O1221435   5.368   5.215   2.143
  187POPC   O1121436   5.296   5.206   2.384
  187POPC    C121437   5.299   5.350   2.395
  187POPC    HA21438   5.215   5.394   2.453
  187POPC    HB21439   5.289   5.400   2.297
  187POPC    C221440   5.424   5.392   2.461
  187POPC    HS21441   5.508   5.321   2.442
  187POPC   O2121442   5.389   5.385   2.598
  187POPC   C2121443   5.463   5.314   2.679
  187POPC   O2221444   5.567   5.257   2.655
  187POPC   C2221445   5.412   5.315   2.823
  187POPC   H2R21446   5.305   5.287   2.815
  187POPC   H2S21447   5.413   5.420   2.859
  187POPC    C321448   5.469   5.540   2.417
  187POPC    HX21449   5.373   5.595   2.425
  187POPC    HY21450   5.499   5.551   2.310
  187POPC   O3121451   5.561   5.594   2.517
  187POPC   C3121452   5.568   5.724   2.511
  187POPC   O3221453   5.511   5.791   2.430
  187POPC   C3221454   5.647   5.780   2.619
  187POPC   H2X21455   5.716   5.851   2.569
  187POPC   H2Y21456   5.710   5.699   2.660
  187POPC   C2321457   5.492   5.225   2.922
  187POPC   H3R21458   5.599   5.230   2.894
  187POPC   H3S21459   5.457   5.120   2.911
  187POPC   C2421460   5.481   5.257   3.072
  187POPC   H4R21461   5.522   5.357   3.096
  187POPC   H4S21462   5.549   5.186   3.123
  187POPC   C2521463   5.341   5.256   3.131
  187POPC   H5R21464   5.300   5.154   3.115
  187POPC   H5S21465   5.277   5.331   3.080
  187POPC   C2621466   5.344   5.277   3.286
  187POPC   H6R21467   5.389   5.376   3.305
  187POPC   H6S21468   5.407   5.191   3.317
  187POPC   C2721469   5.205   5.257   3.345
  187POPC   H7R21470   5.166   5.156   3.320
  187POPC   H7S21471   5.135   5.321   3.287
  187POPC   C2821472   5.194   5.268   3.499
  187POPC   H8R21473   5.271   5.193   3.530
  187POPC   H8S21474   5.096   5.227   3.533
  187POPC   C2921475   5.220   5.398   3.566
  187POPC   H9121476   5.296   5.457   3.513
  187POPC  C21021477   5.166   5.440   3.681
  187POPC  H10121478   5.206   5.536   3.717
  187POPC  C21121479   5.079   5.360   3.773
  187POPC  H11R21480   5.121   5.257   3.782
  187POPC  H11S21481   4.976   5.353   3.733
  187POPC  C21221482   5.072   5.411   3.911
  187POPC  H12R21483   4.989   5.486   3.912
  187POPC  H12S21484   5.167   5.462   3.938
  187POPC  C21321485   5.039   5.306   4.018
  187POPC  H13R21486   5.104   5.217   4.012
  187POPC  H13S21487   4.935   5.268   4.005
  187POPC  C21421488   5.032   5.370   4.157
  187POPC  H14R21489   4.941   5.431   4.173
  187POPC  H14S21490   5.117   5.440   4.168
  187POPC  C21521491   5.032   5.266   4.274
  187POPC  H15R21492   5.119   5.201   4.252
  187POPC  H15S21493   4.941   5.205   4.260
  187POPC  C21621494   5.053   5.318   4.414
  187POPC  H16R21495   5.139   5.388   4.413
  187POPC  H16S21496   5.071   5.235   4.485
  187POPC  C21721497   4.929   5.384   4.478
  187POPC  H17R21498   4.834   5.330   4.456
  187POPC  H17S21499   4.913   5.488   4.443
  187POPC  C21821500   4.956   5.382   4.628
  187POPC  H18R21501   5.021   5.468   4.655
  187POPC  H18S21502   4.998   5.286   4.664
  187POPC  H18T21503   4.863   5.406   4.684
  187POPC   C3321504   5.558   5.864   2.713
  187POPC   H3X21505   5.481   5.801   2.763
  187POPC   H3Y21506   5.503   5.952   2.673
  187POPC   C3421507   5.646   5.918   2.823
  187POPC   H4X21508   5.738   5.967   2.785
  187POPC   H4Y21509   5.678   5.823   2.870
  187POPC   C3521510   5.562   5.990   2.919
  187POPC   H5X21511   5.464   5.938   2.933
  187POPC   H5Y21512   5.538   6.084   2.864
  187POPC   C3621513   5.619   6.021   3.061
  187POPC   H6X21514   5.718   6.071   3.051
  187POPC   H6Y21515   5.642   5.924   3.108
  187POPC   C3721516   5.526   6.113   3.148
  187POPC   H7X21517   5.422   6.074   3.150
  187POPC   H7Y21518   5.503   6.205   3.091
  187POPC   C3821519   5.581   6.132   3.287
  187POPC   H8X21520   5.683   6.172   3.268
  187POPC   H8Y21521   5.587   6.036   3.343
  187POPC   C3921522   5.507   6.240   3.368
  187POPC   H9X21523   5.413   6.193   3.405
  187POPC   H9Y21524   5.482   6.326   3.302
  187POPC  C31021525   5.609   6.292   3.473
  187POPC  H10X21526   5.675   6.370   3.429
  187POPC  H10Y21527   5.676   6.209   3.504
  187POPC  C31121528   5.540   6.359   3.597
  187POPC  H11X21529   5.462   6.431   3.566
  187POPC  H11Y21530   5.627   6.406   3.647
  187POPC  C31221531   5.468   6.253   3.683
  187POPC  H12X21532   5.530   6.161   3.676
  187POPC  H12Y21533   5.376   6.229   3.625
  187POPC  C31321534   5.428   6.293   3.833
  187POPC  H13X21535   5.384   6.395   3.829
  187POPC  H13Y21536   5.530   6.281   3.878
  187POPC  C31421537   5.324   6.193   3.897
  187POPC  H14X21538   5.358   6.089   3.882
  187POPC  H14Y21539   5.230   6.213   3.840
  187POPC  C31521540   5.290   6.222   4.051
  187POPC  H15X21541   5.228   6.314   4.054
  187POPC  H15Y21542   5.385   6.242   4.104
  187POPC  C31621543   5.223   6.109   4.128
  187POPC  H16X21544   5.273   6.012   4.110
  187POPC  H16Y21545   5.117   6.094   4.098
  187POPC  H16Z21546   5.211   6.120   4.238
  188POPC     N21547   6.020   4.644   1.949
  188POPC   C1221548   5.870   4.644   1.967
  188POPC  H12A21549   5.829   4.612   1.872
  188POPC  H12B21550   5.833   4.743   1.990
  188POPC   C1321551   6.062   4.510   1.898
  188POPC  H13A21552   5.993   4.481   1.819
  188POPC  H13B21553   6.150   4.528   1.838
  188POPC  H13C21554   6.086   4.433   1.969
  188POPC   C1421555   6.058   4.751   1.850
  188POPC  H14A21556   6.163   4.773   1.836
  188POPC  H14B21557   5.999   4.729   1.762
  188POPC  H14C21558   6.019   4.846   1.883
  188POPC   C1521559   6.098   4.673   2.075
  188POPC  H15A21560   6.078   4.598   2.150
  188POPC  H15B21561   6.064   4.769   2.112
  188POPC  H15C21562   6.201   4.673   2.043
  188POPC   C1121563   5.820   4.544   2.078
  188POPC  H11A21564   5.861   4.581   2.174
  188POPC  H11B21565   5.852   4.440   2.053
  188POPC     P21566   5.585   4.667   2.120
  188POPC   O1321567   5.532   4.727   1.996
  188POPC   O1421568   5.657   4.753   2.212
  188POPC   O1221569   5.682   4.557   2.077
  188POPC   O1121570   5.466   4.589   2.204
  188POPC    C121571   5.512   4.473   2.279
  188POPC    HA21572   5.621   4.458   2.294
  188POPC    HB21573   5.475   4.379   2.234
  188POPC    C221574   5.462   4.480   2.428
  188POPC    HS21575   5.511   4.413   2.502
  188POPC   O2121576   5.318   4.458   2.434
  188POPC   C2121577   5.283   4.331   2.430
  188POPC   O2221578   5.358   4.235   2.430
  188POPC   C2221579   5.136   4.326   2.423
  188POPC   H2R21580   5.100   4.221   2.417
  188POPC   H2S21581   5.111   4.373   2.325
  188POPC    C321582   5.486   4.621   2.477
  188POPC    HX21583   5.429   4.701   2.424
  188POPC    HY21584   5.593   4.642   2.452
  188POPC   O3121585   5.473   4.629   2.618
  188POPC   C3121586   5.362   4.707   2.657
  188POPC   O3221587   5.279   4.745   2.579
  188POPC   C3221588   5.368   4.724   2.807
  188POPC   H2X21589   5.474   4.727   2.839
  188POPC   H2Y21590   5.316   4.636   2.850
  188POPC   C2321591   5.079   4.407   2.545
  188POPC   H3R21592   5.101   4.512   2.519
  188POPC   H3S21593   5.131   4.375   2.638
  188POPC   C2421594   4.929   4.377   2.564
  188POPC   H4R21595   4.923   4.266   2.570
  188POPC   H4S21596   4.876   4.408   2.471
  188POPC   C2521597   4.843   4.440   2.675
  188POPC   H5R21598   4.738   4.410   2.659
  188POPC   H5S21599   4.852   4.549   2.654
  188POPC   C2621600   4.886   4.403   2.817
  188POPC   H6R21601   4.899   4.293   2.825
  188POPC   H6S21602   4.804   4.423   2.890
  188POPC   C2721603   5.003   4.473   2.882
  188POPC   H7R21604   4.998   4.579   2.851
  188POPC   H7S21605   5.091   4.434   2.827
  188POPC   C2821606   5.009   4.446   3.033
  188POPC   H8R21607   5.113   4.466   3.066
  188POPC   H8S21608   4.995   4.340   3.060
  188POPC   C2921609   4.918   4.530   3.115
  188POPC   H9121610   4.853   4.602   3.063
  188POPC  C21021611   4.894   4.524   3.246
  188POPC  H10121612   4.838   4.602   3.300
  188POPC  C21121613   4.969   4.435   3.337
  188POPC  H11R21614   4.989   4.334   3.294
  188POPC  H11S21615   4.900   4.411   3.421
  188POPC  C21221616   5.099   4.504   3.392
  188POPC  H12R21617   5.075   4.588   3.460
  188POPC  H12S21618   5.147   4.552   3.304
  188POPC  C21321619   5.187   4.409   3.469
  188POPC  H13R21620   5.285   4.462   3.478
  188POPC  H13S21621   5.216   4.318   3.413
  188POPC  C21421622   5.143   4.374   3.611
  188POPC  H14R21623   5.043   4.326   3.599
  188POPC  H14S21624   5.120   4.467   3.667
  188POPC  C21521625   5.257   4.299   3.677
  188POPC  H15R21626   5.356   4.320   3.630
  188POPC  H15S21627   5.236   4.192   3.654
  188POPC  C21621628   5.260   4.310   3.827
  188POPC  H16R21629   5.163   4.267   3.861
  188POPC  H16S21630   5.269   4.416   3.858
  188POPC  C21721631   5.372   4.227   3.890
  188POPC  H17R21632   5.468   4.275   3.863
  188POPC  H17S21633   5.377   4.127   3.842
  188POPC  C21821634   5.365   4.214   4.041
  188POPC  H18R21635   5.453   4.161   4.084
  188POPC  H18S21636   5.272   4.159   4.067
  188POPC  H18T21637   5.345   4.315   4.083
  188POPC   C3321638   5.316   4.856   2.850
  188POPC   H3X21639   5.213   4.873   2.814
  188POPC   H3Y21640   5.372   4.932   2.791
  188POPC   C3421641   5.331   4.870   3.002
  188POPC   H4X21642   5.344   4.979   3.017
  188POPC   H4Y21643   5.427   4.824   3.034
  188POPC   C3521644   5.210   4.818   3.078
  188POPC   H5X21645   5.195   4.709   3.059
  188POPC   H5Y21646   5.125   4.871   3.031
  188POPC   C3621647   5.225   4.843   3.224
  188POPC   H6X21648   5.290   4.928   3.254
  188POPC   H6Y21649   5.262   4.752   3.276
  188POPC   C3721650   5.096   4.861   3.298
  188POPC   H7X21651   5.027   4.781   3.264
  188POPC   H7Y21652   5.033   4.946   3.263
  188POPC   C3821653   5.100   4.863   3.451
  188POPC   H8X21654   5.159   4.952   3.480
  188POPC   H8Y21655   5.159   4.775   3.485
  188POPC   C3921656   4.955   4.860   3.517
  188POPC   H9X21657   4.904   4.768   3.480
  188POPC   H9Y21658   4.892   4.943   3.482
  188POPC  C31021659   4.965   4.867   3.666
  188POPC  H10X21660   4.862   4.856   3.708
  188POPC  H10Y21661   5.009   4.963   3.698
  188POPC  C31121662   5.041   4.754   3.728
  188POPC  H11X21663   5.151   4.768   3.717
  188POPC  H11Y21664   5.009   4.659   3.681
  188POPC  C31221665   5.003   4.743   3.881
  188POPC  H12X21666   4.964   4.842   3.912
  188POPC  H12Y21667   5.096   4.721   3.937
  188POPC  C31321668   4.903   4.636   3.906
  188POPC  H13X21669   4.965   4.543   3.905
  188POPC  H13Y21670   4.823   4.647   3.830
  188POPC  C31421671   4.855   4.638   4.049
  188POPC  H14X21672   4.785   4.725   4.056
  188POPC  H14Y21673   4.926   4.660   4.131
  188POPC  C31521674   4.778   4.511   4.068
  188POPC  H15X21675   4.846   4.423   4.058
  188POPC  H15Y21676   4.701   4.498   3.989
  188POPC  C31621677   4.705   4.500   4.198
  188POPC  H16X21678   4.609   4.556   4.206
  188POPC  H16Y21679   4.773   4.529   4.281
  188POPC  H16Z21680   4.677   4.394   4.216
  189SAPI   C1221681   1.090   0.720   6.987
  189SAPI    H221682   1.146   0.668   7.068
  189SAPI    O221683   0.980   0.795   7.053
  189SAPI   HO221684   0.929   0.731   7.102
  189SAPI   C1321685   1.192   0.811   6.929
  189SAPI    H321686   1.273   0.749   6.884
  189SAPI    O321687   1.258   0.887   7.030
  189SAPI   HO321688   1.190   0.904   7.095
  189SAPI   C1421689   1.124   0.895   6.829
  189SAPI    H421690   1.072   0.961   6.901
  189SAPI    O421691   1.204   0.981   6.749
  189SAPI   HO421692   1.272   0.933   6.701
  189SAPI   C1521693   1.016   0.834   6.741
  189SAPI    H521694   1.055   0.803   6.642
  189SAPI    O521695   0.912   0.926   6.693
  189SAPI   HO521696   0.929   0.952   6.602
  189SAPI   C1621697   0.960   0.699   6.780
  189SAPI    H621698   0.866   0.721   6.834
  189SAPI    O621699   0.929   0.615   6.673
  189SAPI   HO621700   0.897   0.533   6.711
  189SAPI   C1121701   1.038   0.624   6.883
  189SAPI    H121702   1.118   0.572   6.826
  189SAPI     P21703   0.957   0.376   6.915
  189SAPI   O1321704   0.877   0.309   7.024
  189SAPI   O1421705   1.097   0.332   6.894
  189SAPI   O1221706   0.960   0.529   6.960
  189SAPI   O1121707   0.879   0.375   6.778
  189SAPI    C121708   0.766   0.297   6.747
  189SAPI    HA21709   0.737   0.227   6.829
  189SAPI    HB21710   0.673   0.354   6.728
  189SAPI    C221711   0.781   0.215   6.613
  189SAPI    HS21712   0.685   0.158   6.607
  189SAPI   O2121713   0.896   0.128   6.620
  189SAPI   C2121714   0.882   0.013   6.541
  189SAPI   O2221715   0.784  -0.034   6.486
  189SAPI   C2221716   1.007  -0.062   6.554
  189SAPI   H2R21717   1.094   0.006   6.539
  189SAPI   H2S21718   1.008  -0.101   6.658
  189SAPI    C321719   0.795   0.306   6.490
  189SAPI    HX21720   0.892   0.361   6.491
  189SAPI    HY21721   0.722   0.388   6.500
  189SAPI   O3121722   0.777   0.234   6.367
  189SAPI   C3121723   0.652   0.204   6.322
  189SAPI   O3221724   0.552   0.227   6.386
  189SAPI   C3221725   0.658   0.133   6.189
  189SAPI   H2X21726   0.575   0.059   6.185
  189SAPI   H2Y21727   0.755   0.079   6.187
  189SAPI   C2321728   1.014  -0.188   6.465
  189SAPI   H3R21729   1.000  -0.157   6.359
  189SAPI   H3S21730   0.924  -0.245   6.496
  189SAPI   C2421731   1.145  -0.262   6.484
  189SAPI   H4R21732   1.155  -0.283   6.592
  189SAPI   H4S21733   1.225  -0.186   6.470
  189SAPI   C2521734   1.158  -0.397   6.416
  189SAPI   H5R21735   1.094  -0.473   6.462
  189SAPI   C2621736   1.242  -0.422   6.315
  189SAPI   H6R21737   1.242  -0.519   6.263
  189SAPI   C2721738   1.317  -0.319   6.243
  189SAPI   H7R21739   1.390  -0.275   6.315
  189SAPI   H7S21740   1.253  -0.232   6.216
  189SAPI   C2821741   1.401  -0.375   6.127
  189SAPI   H8R21742   1.494  -0.427   6.151
  189SAPI   C2921743   1.362  -0.369   6.000
  189SAPI   H9R21744   1.408  -0.422   5.915
  189SAPI  C21021745   1.249  -0.290   5.951
  189SAPI  H10R21746   1.228  -0.208   6.024
  189SAPI  H10S21747   1.165  -0.361   5.968
  189SAPI  C21121748   1.261  -0.233   5.813
  189SAPI  H11R21749   1.294  -0.128   5.810
  189SAPI  C21221750   1.242  -0.309   5.704
  189SAPI  H12R21751   1.257  -0.261   5.606
  189SAPI  C21321752   1.219  -0.460   5.713
  189SAPI  H13R21753   1.213  -0.500   5.817
  189SAPI  H13S21754   1.317  -0.502   5.680
  189SAPI  C21421755   1.111  -0.511   5.620
  189SAPI  H14R21756   1.139  -0.520   5.514
  189SAPI  C21521757   0.982  -0.533   5.651
  189SAPI  H15R21758   0.903  -0.548   5.576
  189SAPI  C21621759   0.938  -0.520   5.792
  189SAPI  H16R21760   0.838  -0.473   5.802
  189SAPI  H16S21761   0.998  -0.447   5.850
  189SAPI  C21721762   0.939  -0.654   5.867
  189SAPI  H17R21763   1.043  -0.692   5.863
  189SAPI  H17S21764   0.868  -0.734   5.836
  189SAPI  C21821765   0.920  -0.646   6.019
  189SAPI  H18R21766   0.811  -0.642   6.043
  189SAPI  H18S21767   0.958  -0.544   6.043
  189SAPI  C21921768   0.992  -0.757   6.102
  189SAPI  H19R21769   0.972  -0.733   6.208
  189SAPI  H19S21770   1.101  -0.744   6.090
  189SAPI  C22021771   0.939  -0.897   6.062
  189SAPI  H20R21772   0.828  -0.902   6.061
  189SAPI  H20S21773   0.984  -0.970   6.133
  189SAPI  H20T21774   0.986  -0.917   5.963
  189SAPI   C3321775   0.645   0.237   6.069
  189SAPI   H3X21776   0.734   0.304   6.073
  189SAPI   H3Y21777   0.556   0.301   6.087
  189SAPI   C3421778   0.654   0.166   5.934
  189SAPI   H4X21779   0.591   0.075   5.929
  189SAPI   H4Y21780   0.758   0.129   5.918
  189SAPI   C3521781   0.607   0.247   5.818
  189SAPI   H5X21782   0.659   0.346   5.819
  189SAPI   H5Y21783   0.498   0.264   5.831
  189SAPI   C3621784   0.630   0.185   5.680
  189SAPI   H6X21785   0.558   0.101   5.671
  189SAPI   H6Y21786   0.735   0.148   5.675
  189SAPI   C3721787   0.598   0.287   5.574
  189SAPI   H7X21788   0.667   0.372   5.589
  189SAPI   H7Y21789   0.493   0.320   5.568
  189SAPI   C3821790   0.610   0.217   5.437
  189SAPI   H8X21791   0.518   0.157   5.418
  189SAPI   H8Y21792   0.700   0.152   5.436
  189SAPI   C3921793   0.617   0.317   5.321
  189SAPI   H9X21794   0.701   0.387   5.340
  189SAPI   H9Y21795   0.524   0.377   5.328
  189SAPI  C31021796   0.625   0.253   5.185
  189SAPI  H10X21797   0.536   0.194   5.156
  189SAPI  H10Y21798   0.709   0.182   5.175
  189SAPI  C31121799   0.629   0.367   5.086
  189SAPI  H11X21800   0.691   0.454   5.116
  189SAPI  H11Y21801   0.527   0.408   5.068
  189SAPI  C31221802   0.683   0.313   4.948
  189SAPI  H12X21803   0.610   0.247   4.896
  189SAPI  H12Y21804   0.768   0.243   4.957
  189SAPI  C31321805   0.713   0.412   4.835
  189SAPI  H13X21806   0.779   0.364   4.760
  189SAPI  H13Y21807   0.783   0.484   4.884
  189SAPI  C31421808   0.584   0.460   4.779
  189SAPI  H14X21809   0.515   0.510   4.850
  189SAPI  H14Y21810   0.512   0.383   4.743
  189SAPI  C31521811   0.607   0.562   4.660
  189SAPI  H15X21812   0.701   0.621   4.667
  189SAPI  H15Y21813   0.530   0.642   4.667
  189SAPI  C31621814   0.608   0.503   4.522
  189SAPI  H16X21815   0.509   0.475   4.481
  189SAPI  H16Y21816   0.671   0.411   4.526
  189SAPI  C31721817   0.668   0.597   4.415
  189SAPI  H17X21818   0.771   0.626   4.442
  189SAPI  H17Y21819   0.607   0.689   4.409
  189SAPI  C31821820   0.675   0.527   4.273
  189SAPI  H18X21821   0.741   0.438   4.272
  189SAPI  H18Y21822   0.725   0.599   4.205
  189SAPI  H18Z21823   0.575   0.500   4.233
  190SAPI   C1221824   1.291   2.752   6.628
  190SAPI    H221825   1.338   2.798   6.538
  190SAPI    O221826   1.381   2.774   6.733
  190SAPI   HO221827   1.470   2.755   6.705
  190SAPI   C1321828   1.166   2.833   6.652
  190SAPI    H321829   1.101   2.818   6.563
  190SAPI    O321830   1.188   2.972   6.655
  190SAPI   HO321831   1.278   2.984   6.688
  190SAPI   C1421832   1.096   2.775   6.769
  190SAPI    H421833   1.160   2.803   6.855
  190SAPI    O421834   0.968   2.833   6.796
  190SAPI   HO421835   0.982   2.883   6.877
  190SAPI   C1521836   1.089   2.622   6.778
  190SAPI    H521837   0.990   2.594   6.736
  190SAPI    O521838   1.078   2.576   6.916
  190SAPI   HO521839   1.138   2.613   6.981
  190SAPI   C1621840   1.194   2.536   6.706
  190SAPI    H621841   1.268   2.504   6.783
  190SAPI    O621842   1.144   2.417   6.667
  190SAPI   HO621843   1.213   2.366   6.623
  190SAPI   C1121844   1.269   2.603   6.597
  190SAPI    H121845   1.210   2.601   6.503
  190SAPI     P21846   1.436   2.385   6.522
  190SAPI   O1321847   1.328   2.279   6.545
  190SAPI   O1421848   1.567   2.358   6.590
  190SAPI   O1221849   1.391   2.540   6.560
  190SAPI   O1121850   1.470   2.391   6.363
  190SAPI    C121851   1.548   2.500   6.306
  190SAPI    HA21852   1.625   2.543   6.373
  190SAPI    HB21853   1.612   2.464   6.223
  190SAPI    C221854   1.457   2.622   6.252
  190SAPI    HS21855   1.406   2.681   6.331
  190SAPI   O2121856   1.362   2.553   6.173
  190SAPI   C2121857   1.262   2.627   6.140
  190SAPI   O2221858   1.237   2.736   6.169
  190SAPI   C2221859   1.176   2.528   6.062
  190SAPI   H2R21860   1.150   2.437   6.119
  190SAPI   H2S21861   1.075   2.569   6.041
  190SAPI    C321862   1.541   2.732   6.183
  190SAPI    HX21863   1.628   2.748   6.251
  190SAPI    HY21864   1.483   2.827   6.178
  190SAPI   O3121865   1.583   2.694   6.054
  190SAPI   C3121866   1.529   2.740   5.942
  190SAPI   O3221867   1.451   2.827   5.926
  190SAPI   C3221868   1.577   2.646   5.825
  190SAPI   H2X21869   1.563   2.539   5.852
  190SAPI   H2Y21870   1.688   2.650   5.826
  190SAPI   C2321871   1.231   2.494   5.918
  190SAPI   H3R21872   1.270   2.589   5.876
  190SAPI   H3S21873   1.142   2.472   5.856
  190SAPI   C2421874   1.337   2.382   5.918
  190SAPI   H4R21875   1.414   2.406   5.995
  190SAPI   H4S21876   1.405   2.404   5.833
  190SAPI   C2521877   1.305   2.233   5.924
  190SAPI   H5R21878   1.280   2.195   6.024
  190SAPI   C2621879   1.324   2.147   5.823
  190SAPI   H6R21880   1.301   2.042   5.848
  190SAPI   C2721881   1.370   2.185   5.682
  190SAPI   H7R21882   1.327   2.283   5.653
  190SAPI   H7S21883   1.323   2.108   5.618
  190SAPI   C2821884   1.510   2.193   5.645
  190SAPI   H8R21885   1.581   2.192   5.729
  190SAPI   C2921886   1.573   2.183   5.525
  190SAPI   H9R21887   1.673   2.226   5.513
  190SAPI  C21021888   1.507   2.139   5.393
  190SAPI  H10R21889   1.457   2.042   5.412
  190SAPI  H10S21890   1.587   2.120   5.318
  190SAPI  C21121891   1.401   2.223   5.329
  190SAPI  H11R21892   1.326   2.269   5.396
  190SAPI  C21221893   1.359   2.215   5.201
  190SAPI  H12R21894   1.277   2.280   5.165
  190SAPI  C21321895   1.420   2.129   5.089
  190SAPI  H13R21896   1.514   2.080   5.124
  190SAPI  H13S21897   1.451   2.189   5.001
  190SAPI  C21421898   1.318   2.026   5.045
  190SAPI  H14R21899   1.261   1.969   5.120
  190SAPI  C21521900   1.268   2.007   4.923
  190SAPI  H15R21901   1.175   1.950   4.910
  190SAPI  C21621902   1.310   2.081   4.798
  190SAPI  H16R21903   1.303   2.011   4.713
  190SAPI  H16S21904   1.415   2.120   4.796
  190SAPI  C21721905   1.227   2.202   4.776
  190SAPI  H17R21906   1.245   2.275   4.858
  190SAPI  H17S21907   1.120   2.176   4.759
  190SAPI  C21821908   1.257   2.265   4.639
  190SAPI  H18R21909   1.278   2.191   4.558
  190SAPI  H18S21910   1.354   2.315   4.657
  190SAPI  C21921911   1.154   2.371   4.599
  190SAPI  H19R21912   1.167   2.454   4.672
  190SAPI  H19S21913   1.052   2.333   4.619
  190SAPI  C22021914   1.160   2.421   4.453
  190SAPI  H20R21915   1.073   2.487   4.437
  190SAPI  H20S21916   1.161   2.334   4.383
  190SAPI  H20T21917   1.254   2.471   4.421
  190SAPI   C3321918   1.524   2.659   5.682
  190SAPI   H3X21919   1.508   2.766   5.658
  190SAPI   H3Y21920   1.421   2.618   5.679
  190SAPI   C3421921   1.595   2.564   5.584
  190SAPI   H4X21922   1.556   2.464   5.611
  190SAPI   H4Y21923   1.703   2.557   5.608
  190SAPI   C3521924   1.573   2.603   5.435
  190SAPI   H5X21925   1.589   2.713   5.426
  190SAPI   H5Y21926   1.465   2.590   5.413
  190SAPI   C3621927   1.658   2.525   5.336
  190SAPI   H6X21928   1.641   2.420   5.368
  190SAPI   H6Y21929   1.768   2.541   5.330
  190SAPI   C3721930   1.610   2.539   5.191
  190SAPI   H7X21931   1.499   2.545   5.195
  190SAPI   H7Y21932   1.642   2.451   5.131
  190SAPI   C3821933   1.662   2.665   5.123
  190SAPI   H8X21934   1.772   2.667   5.110
  190SAPI   H8Y21935   1.633   2.752   5.186
  190SAPI   C3921936   1.615   2.684   4.979
  190SAPI   H9X21937   1.676   2.622   4.909
  190SAPI   H9Y21938   1.640   2.789   4.950
  190SAPI  C31021939   1.463   2.662   4.958
  190SAPI  H10X21940   1.412   2.714   5.042
  190SAPI  H10Y21941   1.435   2.554   4.954
  190SAPI  C31121942   1.422   2.727   4.820
  190SAPI  H11X21943   1.467   2.665   4.739
  190SAPI  H11Y21944   1.467   2.829   4.813
  190SAPI  C31221945   1.272   2.747   4.803
  190SAPI  H12X21946   1.232   2.834   4.859
  190SAPI  H12Y21947   1.222   2.655   4.839
  190SAPI  C31321948   1.236   2.774   4.652
  190SAPI  H13X21949   1.271   2.687   4.593
  190SAPI  H13Y21950   1.295   2.860   4.614
  190SAPI  C31421951   1.085   2.775   4.621
  190SAPI  H14X21952   1.057   2.865   4.679
  190SAPI  H14Y21953   1.037   2.686   4.667
  190SAPI  C31521954   1.060   2.789   4.470
  190SAPI  H15X21955   1.118   2.718   4.407
  190SAPI  H15Y21956   1.085   2.893   4.442
  190SAPI  C31621957   0.909   2.765   4.446
  190SAPI  H16X21958   0.847   2.794   4.533
  190SAPI  H16Y21959   0.903   2.654   4.447
  190SAPI  C31721960   0.855   2.828   4.320
  190SAPI  H17X21961   0.932   2.808   4.241
  190SAPI  H17Y21962   0.862   2.939   4.325
  190SAPI  C31821963   0.711   2.782   4.298
  190SAPI  H18X21964   0.666   2.836   4.213
  190SAPI  H18Y21965   0.650   2.802   4.390
  190SAPI  H18Z21966   0.703   2.672   4.284
  191SAPI   C1221967   4.055   4.663   1.948
  191SAPI    H221968   4.083   4.556   1.951
  191SAPI    O221969   4.023   4.718   2.079
  191SAPI   HO221970   3.933   4.751   2.080
  191SAPI   C1321971   4.187   4.728   1.899
  191SAPI    H321972   4.205   4.685   1.799
  191SAPI    O321973   4.297   4.687   1.978
  191SAPI   HO321974   4.350   4.626   1.925
  191SAPI   C1421975   4.174   4.885   1.887
  191SAPI    H421976   4.173   4.929   1.989
  191SAPI    O421977   4.290   4.933   1.823
  191SAPI   HO421978   4.338   4.998   1.874
  191SAPI   C1521979   4.041   4.934   1.812
  191SAPI    H521980   4.076   4.919   1.708
  191SAPI    O521981   4.012   5.073   1.836
  191SAPI   HO521982   3.931   5.105   1.796
  191SAPI   C1621983   3.919   4.840   1.822
  191SAPI    H621984   3.867   4.867   1.916
  191SAPI    O621985   3.824   4.864   1.713
  191SAPI   HO621986   3.733   4.863   1.744
  191SAPI   C1121987   3.949   4.693   1.835
  191SAPI    H121988   3.984   4.656   1.736
  191SAPI     P21989   3.812   4.471   1.836
  191SAPI   O1321990   3.895   4.427   1.724
  191SAPI   O1421991   3.667   4.448   1.821
  191SAPI   O1221992   3.826   4.627   1.868
  191SAPI   O1121993   3.868   4.411   1.970
  191SAPI    C121994   3.772   4.365   2.065
  191SAPI    HA21995   3.696   4.445   2.079
  191SAPI    HB21996   3.715   4.284   2.016
  191SAPI    C221997   3.834   4.322   2.205
  191SAPI    HS21998   3.922   4.262   2.174
  191SAPI   O2121999   3.745   4.247   2.286
  191SAPI   C2122000   3.728   4.121   2.246
  191SAPI   O2222001   3.799   4.059   2.168
  191SAPI   C2222002   3.607   4.059   2.325
  191SAPI   H2R22003   3.530   4.138   2.334
  191SAPI   H2S22004   3.568   3.968   2.275
  191SAPI    C322005   3.881   4.443   2.285
  191SAPI    HX22006   3.801   4.518   2.299
  191SAPI    HY22007   3.958   4.493   2.222
  191SAPI   O3122008   3.939   4.409   2.411
  191SAPI   C3122009   4.055   4.459   2.445
  191SAPI   O3222010   4.110   4.553   2.392
  191SAPI   C3222011   4.112   4.372   2.556
  191SAPI   H2X22012   4.115   4.264   2.532
  191SAPI   H2Y22013   4.039   4.388   2.638
  191SAPI   C2322014   3.655   4.039   2.473
  191SAPI   H3R22015   3.688   4.137   2.514
  191SAPI   H3S22016   3.746   3.975   2.474
  191SAPI   C2422017   3.551   3.970   2.570
  191SAPI   H4R22018   3.458   4.030   2.576
  191SAPI   H4S22019   3.582   3.967   2.677
  191SAPI   C2522020   3.504   3.835   2.537
  191SAPI   H5R22021   3.437   3.837   2.450
  191SAPI   C2622022   3.520   3.715   2.596
  191SAPI   H6R22023   3.469   3.628   2.552
  191SAPI   C2722024   3.580   3.677   2.728
  191SAPI   H7R22025   3.505   3.678   2.810
  191SAPI   H7S22026   3.658   3.747   2.764
  191SAPI   C2822027   3.648   3.541   2.723
  191SAPI   H8R22028   3.589   3.471   2.662
  191SAPI   C2922029   3.753   3.492   2.796
  191SAPI   H9R22030   3.793   3.390   2.786
  191SAPI  C21022031   3.817   3.576   2.906
  191SAPI  H10R22032   3.861   3.668   2.864
  191SAPI  H10S22033   3.899   3.514   2.949
  191SAPI  C21122034   3.730   3.609   3.022
  191SAPI  H11R22035   3.645   3.676   3.004
  191SAPI  C21222036   3.760   3.580   3.147
  191SAPI  H12R22037   3.691   3.617   3.223
  191SAPI  C21322038   3.870   3.496   3.214
  191SAPI  H13R22039   3.958   3.560   3.235
  191SAPI  H13S22040   3.908   3.419   3.142
  191SAPI  C21422041   3.828   3.434   3.339
  191SAPI  H14R22042   3.724   3.397   3.341
  191SAPI  C21522043   3.907   3.389   3.440
  191SAPI  H15R22044   3.869   3.344   3.532
  191SAPI  C21622045   4.064   3.399   3.441
  191SAPI  H16R22046   4.100   3.504   3.444
  191SAPI  H16S22047   4.106   3.354   3.349
  191SAPI  C21722048   4.109   3.321   3.568
  191SAPI  H17R22049   4.220   3.318   3.574
  191SAPI  H17S22050   4.070   3.217   3.573
  191SAPI  C21822051   4.070   3.393   3.696
  191SAPI  H18R22052   3.961   3.404   3.707
  191SAPI  H18S22053   4.100   3.500   3.688
  191SAPI  C21922054   4.122   3.356   3.837
  191SAPI  H19R22055   4.079   3.258   3.865
  191SAPI  H19S22056   4.086   3.434   3.907
  191SAPI  C22022057   4.270   3.339   3.851
  191SAPI  H20R22058   4.290   3.290   3.948
  191SAPI  H20S22059   4.328   3.434   3.843
  191SAPI  H20T22060   4.300   3.264   3.774
  191SAPI   C3322061   4.250   4.429   2.598
  191SAPI   H3X22062   4.252   4.535   2.631
  191SAPI   H3Y22063   4.323   4.420   2.515
  191SAPI   C3422064   4.305   4.344   2.713
  191SAPI   H4X22065   4.308   4.237   2.682
  191SAPI   H4Y22066   4.236   4.348   2.800
  191SAPI   C3522067   4.452   4.378   2.746
  191SAPI   H5X22068   4.467   4.485   2.771
  191SAPI   H5Y22069   4.500   4.377   2.646
  191SAPI   C3622070   4.515   4.291   2.853
  191SAPI   H6X22071   4.608   4.335   2.895
  191SAPI   H6Y22072   4.534   4.191   2.809
  191SAPI   C3722073   4.427   4.271   2.980
  191SAPI   H7X22074   4.479   4.206   3.054
  191SAPI   H7Y22075   4.324   4.234   2.960
  191SAPI   C3822076   4.405   4.405   3.060
  191SAPI   H8X22077   4.349   4.479   2.998
  191SAPI   H8Y22078   4.504   4.457   3.061
  191SAPI   C3922079   4.344   4.393   3.201
  191SAPI   H9X22080   4.255   4.327   3.203
  191SAPI   H9Y22081   4.313   4.492   3.243
  191SAPI  C31022082   4.443   4.329   3.296
  191SAPI  H10X22083   4.542   4.376   3.277
  191SAPI  H10Y22084   4.441   4.220   3.278
  191SAPI  C31122085   4.420   4.352   3.453
  191SAPI  H11X22086   4.326   4.299   3.477
  191SAPI  H11Y22087   4.425   4.461   3.474
  191SAPI  C31222088   4.533   4.287   3.530
  191SAPI  H12X22089   4.635   4.318   3.499
  191SAPI  H12Y22090   4.533   4.178   3.507
  191SAPI  C31322091   4.517   4.295   3.683
  191SAPI  H13X22092   4.533   4.400   3.717
  191SAPI  H13Y22093   4.599   4.241   3.733
  191SAPI  C31422094   4.381   4.243   3.732
  191SAPI  H14X22095   4.373   4.135   3.709
  191SAPI  H14Y22096   4.302   4.301   3.679
  191SAPI  C31522097   4.369   4.241   3.887
  191SAPI  H15X22098   4.375   4.351   3.902
  191SAPI  H15Y22099   4.450   4.187   3.940
  191SAPI  C31622100   4.236   4.180   3.935
  191SAPI  H16X22101   4.253   4.071   3.928
  191SAPI  H16Y22102   4.152   4.207   3.868
  191SAPI  C31722103   4.192   4.225   4.073
  191SAPI  H17X22104   4.083   4.212   4.086
  191SAPI  H17Y22105   4.195   4.336   4.077
  191SAPI  C31822106   4.269   4.179   4.197
  191SAPI  H18X22107   4.372   4.219   4.212
  191SAPI  H18Y22108   4.286   4.070   4.203
  191SAPI  H18Z22109   4.196   4.198   4.278
  192SAPI   C1222110   6.423   1.980   2.110
  192SAPI    H222111   6.380   1.948   2.208
  192SAPI    O222112   6.452   2.120   2.106
  192SAPI   HO222113   6.372   2.164   2.136
  192SAPI   C1322114   6.561   1.905   2.081
  192SAPI    H322115   6.543   1.795   2.074
  192SAPI    O322116   6.649   1.912   2.189
  192SAPI   HO322117   6.685   2.000   2.198
  192SAPI   C1422118   6.630   1.945   1.952
  192SAPI    H422119   6.672   2.046   1.972
  192SAPI    O422120   6.731   1.854   1.909
  192SAPI   HO422121   6.815   1.893   1.934
  192SAPI   C1522122   6.529   1.974   1.841
  192SAPI    H522123   6.521   1.872   1.799
  192SAPI    O522124   6.584   2.052   1.737
  192SAPI   HO522125   6.579   1.992   1.662
  192SAPI   C1622126   6.381   2.006   1.866
  192SAPI    H622127   6.374   2.117   1.866
  192SAPI    O622128   6.304   1.958   1.761
  192SAPI   HO622129   6.218   1.938   1.798
  192SAPI   C1122130   6.316   1.955   1.994
  192SAPI    H122131   6.305   1.844   1.989
  192SAPI     P22132   6.045   1.944   1.993
  192SAPI   O1322133   6.052   1.909   1.849
  192SAPI   O1422134   5.932   2.034   2.030
  192SAPI   O1222135   6.195   2.014   2.035
  192SAPI   O1122136   6.035   1.810   2.069
  192SAPI    C122137   5.944   1.819   2.188
  192SAPI    HA22138   5.839   1.840   2.158
  192SAPI    HB22139   5.932   1.718   2.232
  192SAPI    C222140   5.991   1.921   2.306
  192SAPI    HS22141   6.005   2.024   2.266
  192SAPI   O2122142   6.109   1.858   2.363
  192SAPI   C2122143   6.189   1.950   2.415
  192SAPI   O2222144   6.183   2.070   2.390
  192SAPI   C2222145   6.284   1.877   2.503
  192SAPI   H2R22146   6.220   1.812   2.567
  192SAPI   H2S22147   6.348   1.811   2.441
  192SAPI    C322148   5.877   1.939   2.421
  192SAPI    HX22149   5.781   1.958   2.368
  192SAPI    HY22150   5.901   2.029   2.482
  192SAPI   O3122151   5.845   1.809   2.478
  192SAPI   C3122152   5.917   1.784   2.582
  192SAPI   O3222153   5.986   1.865   2.643
  192SAPI   C3222154   5.889   1.634   2.621
  192SAPI   H2X22155   5.892   1.569   2.531
  192SAPI   H2Y22156   5.786   1.615   2.659
  192SAPI   C2322157   6.380   1.971   2.576
  192SAPI   H3R22158   6.428   2.050   2.514
  192SAPI   H3S22159   6.465   1.909   2.613
  192SAPI   C2422160   6.327   2.053   2.700
  192SAPI   H4R22161   6.227   2.094   2.674
  192SAPI   H4S22162   6.395   2.140   2.710
  192SAPI   C2522163   6.314   1.971   2.832
  192SAPI   H5R22164   6.228   1.903   2.837
  192SAPI   C2622165   6.404   1.970   2.936
  192SAPI   H6R22166   6.367   1.951   3.038
  192SAPI   C2722167   6.535   2.036   2.923
  192SAPI   H7R22168   6.509   2.143   2.933
  192SAPI   H7S22169   6.583   2.025   2.823
  192SAPI   C2822170   6.631   1.997   3.034
  192SAPI   H8R22171   6.701   1.916   3.008
  192SAPI   C2922172   6.643   2.028   3.161
  192SAPI   H9R22173   6.735   1.994   3.211
  192SAPI  C21022174   6.565   2.137   3.225
  192SAPI  H10R22175   6.463   2.149   3.185
  192SAPI  H10S22176   6.616   2.232   3.196
  192SAPI  C21122177   6.552   2.120   3.372
  192SAPI  H11R22178   6.504   2.028   3.407
  192SAPI  C21222179   6.592   2.201   3.472
  192SAPI  H12R22180   6.569   2.168   3.575
  192SAPI  C21322181   6.650   2.338   3.440
  192SAPI  H13R22182   6.715   2.339   3.350
  192SAPI  H13S22183   6.717   2.364   3.525
  192SAPI  C21422184   6.544   2.450   3.412
  192SAPI  H14R22185   6.460   2.422   3.347
  192SAPI  C21522186   6.532   2.568   3.466
  192SAPI  H15R22187   6.446   2.626   3.430
  192SAPI  C21622188   6.612   2.622   3.582
  192SAPI  H16R22189   6.671   2.708   3.545
  192SAPI  H16S22190   6.673   2.532   3.607
  192SAPI  C21722191   6.532   2.677   3.698
  192SAPI  H17R22192   6.447   2.612   3.727
  192SAPI  H17S22193   6.490   2.775   3.668
  192SAPI  C21822194   6.618   2.701   3.823
  192SAPI  H18R22195   6.700   2.770   3.794
  192SAPI  H18S22196   6.668   2.605   3.851
  192SAPI  C21922197   6.546   2.753   3.954
  192SAPI  H19R22198   6.473   2.688   4.005
  192SAPI  H19S22199   6.489   2.839   3.913
  192SAPI  C22022200   6.638   2.811   4.061
  192SAPI  H20R22201   6.683   2.724   4.113
  192SAPI  H20S22202   6.563   2.852   4.131
  192SAPI  H20T22203   6.721   2.879   4.031
  192SAPI   C3322204   5.989   1.573   2.720
  192SAPI   H3X22205   6.092   1.580   2.680
  192SAPI   H3Y22206   5.964   1.467   2.745
  192SAPI   C3422207   5.986   1.641   2.863
  192SAPI   H4X22208   5.891   1.616   2.915
  192SAPI   H4Y22209   5.989   1.752   2.859
  192SAPI   C3522210   6.098   1.587   2.948
  192SAPI   H5X22211   6.194   1.625   2.908
  192SAPI   H5Y22212   6.111   1.477   2.941
  192SAPI   C3622213   6.101   1.638   3.093
  192SAPI   H6X22214   6.018   1.593   3.152
  192SAPI   H6Y22215   6.106   1.748   3.105
  192SAPI   C3722216   6.224   1.587   3.173
  192SAPI   H7X22217   6.312   1.640   3.131
  192SAPI   H7Y22218   6.240   1.478   3.185
  192SAPI   C3822219   6.228   1.638   3.319
  192SAPI   H8X22220   6.336   1.623   3.343
  192SAPI   H8Y22221   6.166   1.585   3.394
  192SAPI   C3922222   6.209   1.791   3.347
  192SAPI   H9X22223   6.103   1.807   3.376
  192SAPI   H9Y22224   6.241   1.849   3.258
  192SAPI  C31022225   6.302   1.826   3.457
  192SAPI  H10X22226   6.295   1.937   3.465
  192SAPI  H10Y22227   6.409   1.806   3.439
  192SAPI  C31122228   6.252   1.765   3.594
  192SAPI  H11X22229   6.244   1.656   3.575
  192SAPI  H11Y22230   6.152   1.809   3.614
  192SAPI  C31222231   6.339   1.796   3.711
  192SAPI  H12X22232   6.337   1.907   3.724
  192SAPI  H12Y22233   6.444   1.769   3.688
  192SAPI  C31322234   6.281   1.751   3.848
  192SAPI  H13X22235   6.287   1.640   3.840
  192SAPI  H13Y22236   6.171   1.766   3.853
  192SAPI  C31422237   6.343   1.816   3.963
  192SAPI  H14X22238   6.329   1.925   3.949
  192SAPI  H14Y22239   6.448   1.779   3.955
  192SAPI  C31522240   6.271   1.762   4.086
  192SAPI  H15X22241   6.273   1.651   4.094
  192SAPI  H15Y22242   6.169   1.806   4.094
  192SAPI  C31622243   6.336   1.827   4.211
  192SAPI  H16X22244   6.312   1.934   4.196
  192SAPI  H16Y22245   6.447   1.816   4.206
  192SAPI  C31722246   6.275   1.774   4.350
  192SAPI  H17X22247   6.276   1.664   4.339
  192SAPI  H17Y22248   6.167   1.800   4.343
  192SAPI  C31822249   6.346   1.813   4.475
  192SAPI  H18X22250   6.344   1.922   4.493
  192SAPI  H18Y22251   6.454   1.789   4.472
  192SAPI  H18Z22252   6.315   1.750   4.562
  193SOD    SOD22253   3.874   3.326   8.548
  194SOD    SOD22254   4.213   4.645   2.214
  195SOD    SOD22255   0.891   5.978   8.193
  196SOD    SOD22256   4.364   1.006   8.420
  197SOD    SOD22257   1.750   0.819   6.951
  198SOD    SOD22258   2.523   0.678   8.700
  199SOD    SOD22259   3.864   2.519   1.383
  200SOD    SOD22260   0.129   0.627   6.883
  201SOD    SOD22261   3.519   3.665   1.895
  202SOD    SOD22262   5.893   2.976   6.240
  203SOD    SOD22263   5.929   2.773   1.120
  204SOD    SOD22264   5.726   3.270   0.622
  205SOD    SOD22265   3.385   1.865   1.345
  206SOD    SOD22266   4.628   3.266   2.122
  207SOD    SOD22267   3.630   6.307   1.530
  208SOD    SOD22268   0.306   3.393   2.120
  209SOD    SOD22269   1.875   2.519   0.344
  210SOD    SOD22270   1.602   6.664   7.206
  211SOD    SOD22271   0.597   5.029   8.344
  212SOD    SOD22272   0.585   1.176   7.509
  213SOD    SOD22273   5.770   6.565   0.520
  214SOD    SOD22274   0.920   2.789   8.431
  215SOD    SOD22275   4.195   0.149   6.922
  216SOD    SOD22276   6.173   5.074   1.189
  217SOD    SOD22277   6.726   6.303   0.550
  218SOD    SOD22278   5.527   3.119   7.714
  219SOD    SOD22279   4.666   1.176   2.429
  220SOD    SOD22280   1.294   3.370   0.133
  221SOD    SOD22281   4.213   2.046   1.816
  222SOD    SOD22282   2.124   2.128   6.203
  223SOD    SOD22283   6.708   2.258   1.753
  224SOD    SOD22284   5.454   2.240   6.613
  225SOD    SOD22285   5.144   4.729   7.668
  226SOD    SOD22286   0.959   5.611   2.380
  227SOD    SOD22287   4.051   2.847   0.775
  228SOD    SOD22288   4.101   0.142   0.363
  229SOD    SOD22289   0.302   2.668   6.591
  230SOD    SOD22290   5.603   5.826   7.170
  231SOD    SOD22291   1.475   1.526   1.630
  232SOD    SOD22292   2.397   4.711   6.519
  233SOD    SOD22293   1.012   4.571   7.890
  234CLA    CLA22294   4.197   4.626   1.182
  235CLA    CLA22295   1.027   3.129   7.289
  236CLA    CLA22296   0.735   5.260   8.371
  237CLA    CLA22297   1.932   6.202   8.415
  238CLA    CLA22298   6.028   5.103   0.170
  239CLA    CLA22299   0.579   3.530   1.435
  240CLA    CLA22300   2.793   0.492   8.113
  241CLA    CLA22301   2.044   1.566   8.224
  242CLA    CLA22302   0.040   3.580   8.423
  243CLA    CLA22303   6.299   1.922   0.002
  244CLA    CLA22304   0.039   0.256   8.598
  245CLA    CLA22305   4.189   3.619   8.459
  246CLA    CLA22306   4.581   0.244   7.160
  247CLA    CLA22307   4.626   3.552   8.327
  248CLA    CLA22308   4.650   0.643   0.284
  249CLA    CLA22309   5.454   0.235   8.433
  250CLA    CLA22310   3.523   1.162   1.197
  251TIP3   OH222311   6.676   4.298   1.441
  251TIP3    H122312   6.753   4.350   1.465
  251TIP3    H222313   6.603   4.360   1.446
  252TIP3   OH222314   1.070   2.089   0.496
  252TIP3    H122315   0.996   2.029   0.492
  252TIP3    H222316   1.065   2.127   0.584
  253TIP3   OH222317   6.074   1.901   7.548
  253TIP3    H122318   6.027   1.869   7.471
  253TIP3    H222319   6.122   1.825   7.581
  254TIP3   OH222320   5.188   1.661   8.047
  254TIP3    H122321   5.207   1.614   8.128
  254TIP3    H222322   5.252   1.626   7.984
  255TIP3   OH222323   3.209   3.389   0.396
  255TIP3    H122324   3.175   3.313   0.444
  255TIP3    H222325   3.157   3.463   0.429
  256TIP3   OH222326   4.600   3.843   6.763
  256TIP3    H122327   4.667   3.907   6.789
  256TIP3    H222328   4.527   3.897   6.731
  257TIP3   OH222329   4.043   1.388   1.829
  257TIP3    H122330   4.007   1.476   1.826
  257TIP3    H222331   4.086   1.382   1.914
  258TIP3   OH222332   6.424   0.663   0.293
  258TIP3    H122333   6.455   0.597   0.355
  258TIP3    H222334   6.503   0.690   0.245
  259TIP3   OH222335   0.678   2.697   8.829
  259TIP3    H122336   0.607   2.633   8.826
  259TIP3    H222337   0.740   2.660   8.891
  260TIP3   OH222338   1.838   3.118   7.575
  260TIP3    H122339   1.843   3.146   7.484
  260TIP3    H222340   1.916   3.155   7.616
  261TIP3   OH222341   2.250   5.958   7.189
  261TIP3    H122342   2.329   5.919   7.152
  261TIP3    H222343   2.274   6.049   7.207
  262TIP3   OH222344   2.136   5.766   7.369
  262TIP3    H122345   2.140   5.821   7.447
  262TIP3    H222346   2.183   5.816   7.302
  263TIP3   OH222347   5.841   5.240   8.505
  263TIP3    H122348   5.814   5.298   8.576
  263TIP3    H222349   5.879   5.299   8.439
  264TIP3   OH222350   1.847   5.120   0.235
  264TIP3    H122351   1.873   5.043   0.285
  264TIP3    H222352   1.769   5.152   0.280
  265TIP3   OH222353   2.773   3.097   7.803
  265TIP3    H122354   2.837   3.155   7.762
  265TIP3    H222355   2.781   3.115   7.896
  266TIP3   OH222356   5.306   0.091   6.109
  266TIP3    H122357   5.265   0.154   6.051
  266TIP3    H222358   5.252   0.012   6.101
  267TIP3   OH222359   1.501   3.513   1.425
  267TIP3    H122360   1.466   3.538   1.510
  267TIP3    H222361   1.490   3.592   1.371
  268TIP3   OH222362   0.046   1.031   6.491
  268TIP3    H122363   0.017   0.941   6.502
  268TIP3    H222364   0.110   1.028   6.420
  269TIP3   OH222365   3.337   2.288   7.887
  269TIP3    H122366   3.316   2.223   7.954
  269TIP3    H222367   3.339   2.238   7.806
  270TIP3   OH222368   5.033   0.104   8.352
  270TIP3    H122369   4.947   0.062   8.352
  270TIP3    H222370   5.018   0.188   8.397
  271TIP3   OH222371   6.033   0.685   0.252
  271TIP3    H122372   6.093   0.759   0.262
  271TIP3    H222373   6.084   0.609   0.283
  272TIP3   OH222374   4.720   6.571   7.403
  272TIP3    H122375   4.708   6.636   7.334
  272TIP3    H222376   4.733   6.488   7.356
  273TIP3   OH222377   5.370   5.561   6.837
  273TIP3    H122378   5.445   5.515   6.875
  273TIP3    H222379   5.331   5.498   6.777
  274TIP3   OH222380   4.430   2.185   8.046
  274TIP3    H122381   4.381   2.180   8.129
  274TIP3    H222382   4.373   2.142   7.983
  275TIP3   OH222383   4.989   0.951   7.098
  275TIP3    H122384   5.080   0.958   7.124
  275TIP3    H222385   4.958   0.872   7.143
  276TIP3   OH222386   5.635   0.365   1.270
  276TIP3    H122387   5.730   0.376   1.272
  276TIP3    H222388   5.621   0.276   1.303
  277TIP3   OH222389   5.283   6.154   8.568
  277TIP3    H122390   5.208   6.099   8.591
  277TIP3    H222391   5.262   6.191   8.483
  278TIP3   OH222392   4.095   4.342   1.314
  278TIP3    H122393   4.132   4.413   1.260
  278TIP3    H222394   4.093   4.379   1.402
  279TIP3   OH222395   0.233   1.887   1.140
  279TIP3    H122396   0.304   1.823   1.137
  279TIP3    H222397   0.191   1.873   1.225
  280TIP3   OH222398   4.358   4.819   7.988
  280TIP3    H122399   4.286   4.809   8.051
  280TIP3    H222400   4.349   4.909   7.956
  281TIP3   OH222401   3.102   3.055   0.230
  281TIP3    H122402   3.027   3.114   0.232
  281TIP3    H222403   3.106   3.024   0.139
  282TIP3   OH222404   3.922   3.465   1.445
  282TIP3    H122405   3.848   3.525   1.455
  282TIP3    H222406   3.921   3.411   1.524
  283TIP3   OH222407   6.786   2.426   6.107
  283TIP3    H122408   6.863   2.438   6.051
  283TIP3    H222409   6.812   2.464   6.191
  284TIP3   OH222410   5.877   6.545   1.504
  284TIP3    H122411   5.955   6.560   1.451
  284TIP3    H222412   5.885   6.607   1.577
  285TIP3   OH222413   2.303   4.823   2.052
  285TIP3    H122414   2.306   4.750   2.114
  285TIP3    H222415   2.372   4.804   1.989
  286TIP3   OH222416   5.607   1.694   6.857
  286TIP3    H122417   5.565   1.768   6.812
  286TIP3    H222418   5.700   1.715   6.856
  287TIP3   OH222419   2.454   0.877   0.675
  287TIP3    H122420   2.370   0.891   0.719
  287TIP3    H222421   2.434   0.818   0.603
  288TIP3   OH222422   1.907   5.140   2.532
  288TIP3    H122423   1.903   5.213   2.594
  288TIP3    H222424   1.990   5.152   2.487
  289TIP3   OH222425   1.519   6.783   0.712
  289TIP3    H122426   1.586   6.715   0.702
  289TIP3    H222427   1.506   6.818   0.624
  290TIP3   OH222428   0.940   1.774   1.394
  290TIP3    H122429   0.886   1.698   1.371
  290TIP3    H222430   0.888   1.821   1.460
  291TIP3   OH222431   6.550   3.937   0.407
  291TIP3    H122432   6.557   4.018   0.356
  291TIP3    H222433   6.560   3.867   0.343
  292TIP3   OH222434   3.130   6.024   0.662
  292TIP3    H122435   3.207   6.043   0.715
  292TIP3    H222436   3.103   5.936   0.689
  293TIP3   OH222437   4.762   0.839   8.422
  293TIP3    H122438   4.674   0.805   8.412
  293TIP3    H222439   4.751   0.932   8.443
  294TIP3   OH222440   2.449   1.113   6.367
  294TIP3    H122441   2.473   1.189   6.315
  294TIP3    H222442   2.405   1.054   6.305
  295TIP3   OH222443   4.205   2.151   8.209
  295TIP3    H122444   4.145   2.135   8.281
  295TIP3    H222445   4.176   2.233   8.171
  296TIP3   OH222446   2.209   0.726   7.750
  296TIP3    H122447   2.290   0.736   7.799
  296TIP3    H222448   2.142   0.763   7.808
  297TIP3   OH222449   0.997   3.690   8.496
  297TIP3    H122450   0.947   3.656   8.422
  297TIP3    H222451   1.080   3.720   8.458
  298TIP3   OH222452   0.553   6.727   0.006
  298TIP3    H122453   0.566   6.791  -0.064
  298TIP3    H222454   0.633   6.674   0.006
  299TIP3   OH222455   0.171   4.596   8.028
  299TIP3    H122456   0.188   4.659   7.958
  299TIP3    H222457   0.091   4.551   8.000
  300TIP3   OH222458   2.385   2.878   7.423
  300TIP3    H122459   2.388   2.971   7.446
  300TIP3    H222460   2.424   2.873   7.336
  301TIP3   OH222461   3.815   0.054   2.501
  301TIP3    H122462   3.752  -0.015   2.485
  301TIP3    H222463   3.888   0.011   2.545
  302TIP3   OH222464   1.775   0.314   1.910
  302TIP3    H122465   1.794   0.260   1.834
  302TIP3    H222466   1.806   0.263   1.985
  303TIP3   OH222467   0.982   2.238   0.711
  303TIP3    H122468   0.971   2.149   0.744
  303TIP3    H222469   0.989   2.292   0.789
  304TIP3   OH222470   1.163   5.171   7.053
  304TIP3    H122471   1.235   5.110   7.069
  304TIP3    H222472   1.199   5.257   7.076
  305TIP3   OH222473   3.414   4.802   0.338
  305TIP3    H122474   3.468   4.872   0.374
  305TIP3    H222475   3.469   4.761   0.271
  306TIP3   OH222476   6.212   4.377   7.655
  306TIP3    H122477   6.228   4.287   7.683
  306TIP3    H222478   6.156   4.368   7.578
  307TIP3   OH222479   0.413   1.228   0.033
  307TIP3    H122480   0.429   1.195  -0.055
  307TIP3    H222481   0.435   1.155   0.091
  308TIP3   OH222482   3.808   4.126   0.643
  308TIP3    H122483   3.712   4.131   0.637
  308TIP3    H222484   3.835   4.214   0.668
  309TIP3   OH222485   0.927   1.326   7.615
  309TIP3    H122486   1.020   1.339   7.634
  309TIP3    H222487   0.924   1.307   7.521
  310TIP3   OH222488   2.634   5.318   0.082
  310TIP3    H122489   2.629   5.237   0.032
  310TIP3    H222490   2.590   5.383   0.028
  311TIP3   OH222491   1.070   6.442   0.403
  311TIP3    H122492   1.095   6.416   0.492
  311TIP3    H222493   0.976   6.426   0.399
  312TIP3   OH222494   5.744   3.942   1.662
  312TIP3    H122495   5.764   4.034   1.641
  312TIP3    H222496   5.682   3.916   1.594
  313TIP3   OH222497   3.617   3.357   1.618
  313TIP3    H122498   3.579   3.302   1.687
  313TIP3    H222499   3.565   3.337   1.540
  314TIP3   OH222500   0.530   0.244   7.302
  314TIP3    H122501   0.577   0.306   7.246
  314TIP3    H222502   0.454   0.293   7.334
  315TIP3   OH222503   5.232   3.879   8.408
  315TIP3    H122504   5.288   3.877   8.485
  315TIP3    H222505   5.289   3.908   8.337
  316TIP3   OH222506   4.338   2.831   8.564
  316TIP3    H122507   4.380   2.792   8.487
  316TIP3    H222508   4.274   2.766   8.592
  317TIP3   OH222509   6.355   4.213   0.591
  317TIP3    H122510   6.295   4.190   0.662
  317TIP3    H222511   6.306   4.276   0.538
  318TIP3   OH222512   0.661   2.348   7.795
  318TIP3    H122513   0.685   2.424   7.742
  318TIP3    H222514   0.715   2.276   7.760
  319TIP3   OH222515   2.119   6.611   0.919
  319TIP3    H122516   2.132   6.704   0.903
  319TIP3    H222517   2.024   6.599   0.916
  320TIP3   OH222518   4.102   0.139   8.023
  320TIP3    H122519   4.064   0.170   8.105
  320TIP3    H222520   4.118   0.046   8.038
  321TIP3   OH222521   5.396   6.038   7.751
  321TIP3    H122522   5.411   6.081   7.667
  321TIP3    H222523   5.476   6.052   7.800
  322TIP3   OH222524   5.490   0.863   8.568
  322TIP3    H122525   5.564   0.805   8.554
  322TIP3    H222526   5.525   0.951   8.551
  323TIP3   OH222527   4.519   6.571   7.046
  323TIP3    H122528   4.518   6.481   7.077
  323TIP3    H222529   4.473   6.568   6.962
  324TIP3   OH222530   3.580   5.011   8.365
  324TIP3    H122531   3.549   5.080   8.306
  324TIP3    H222532   3.600   4.937   8.308
  325TIP3   OH222533   5.443   0.575   0.579
  325TIP3    H122534   5.402   0.592   0.663
  325TIP3    H222535   5.376   0.597   0.514
  326TIP3   OH222536   2.550   2.467   1.061
  326TIP3    H122537   2.643   2.488   1.072
  326TIP3    H222538   2.503   2.542   1.097
  327TIP3   OH222539   1.221   2.868   0.362
  327TIP3    H122540   1.175   2.952   0.372
  327TIP3    H222541   1.164   2.804   0.404
  328TIP3   OH222542   6.111   0.633   7.989
  328TIP3    H122543   6.100   0.552   7.940
  328TIP3    H222544   6.161   0.691   7.930
  329TIP3   OH222545   2.808   0.808   7.752
  329TIP3    H122546   2.863   0.775   7.681
  329TIP3    H222547   2.775   0.729   7.794
  330TIP3   OH222548   6.347   6.507   2.022
  330TIP3    H122549   6.356   6.417   2.055
  330TIP3    H222550   6.253   6.519   2.011
  331TIP3   OH222551   4.968   4.699   1.498
  331TIP3    H122552   5.040   4.706   1.436
  331TIP3    H222553   4.949   4.790   1.522
  332TIP3   OH222554   5.200   0.693   6.346
  332TIP3    H122555   5.233   0.605   6.329
  332TIP3    H222556   5.142   0.683   6.421
  333TIP3   OH222557   4.459   3.609   8.581
  333TIP3    H122558   4.365   3.611   8.564
  333TIP3    H222559   4.498   3.588   8.496
  334TIP3   OH222560   0.798   1.861   8.826
  334TIP3    H122561   0.844   1.895   8.903
  334TIP3    H222562   0.867   1.823   8.771
  335TIP3   OH222563   5.842   3.698   7.492
  335TIP3    H122564   5.881   3.727   7.410
  335TIP3    H222565   5.905   3.723   7.559
  336TIP3   OH222566   3.873   5.168   7.350
  336TIP3    H122567   3.872   5.258   7.382
  336TIP3    H222568   3.819   5.119   7.412
  337TIP3   OH222569   6.719   6.779   1.566
  337TIP3    H122570   6.715   6.800   1.659
  337TIP3    H222571   6.736   6.685   1.564
  338TIP3   OH222572   6.632   2.617   7.899
  338TIP3    H122573   6.637   2.712   7.906
  338TIP3    H222574   6.605   2.588   7.986
  339TIP3   OH222575   0.529   6.108   0.506
  339TIP3    H122576   0.491   6.040   0.561
  339TIP3    H222577   0.596   6.149   0.560
  340TIP3   OH222578   5.875   4.936   2.022
  340TIP3    H122579   5.935   4.943   2.096
  340TIP3    H222580   5.916   4.987   1.952
  341TIP3   OH222581   0.163   3.457   0.075
  341TIP3    H122582   0.081   3.501   0.097
  341TIP3    H222583   0.216   3.464   0.155
  342TIP3   OH222584   5.850   2.685   8.197
  342TIP3    H122585   5.765   2.725   8.181
  342TIP3    H222586   5.905   2.758   8.228
  343TIP3   OH222587   0.211   4.073   6.676
  343TIP3    H122588   0.253   4.156   6.656
  343TIP3    H222589   0.272   4.030   6.737
  344TIP3   OH222590   6.708   6.778   8.692
  344TIP3    H122591   6.617   6.751   8.707
  344TIP3    H222592   6.701   6.860   8.644
  345TIP3   OH222593   3.363   5.702   1.075
  345TIP3    H122594   3.298   5.771   1.060
  345TIP3    H222595   3.447   5.744   1.059
  346TIP3   OH222596   3.562   2.160   8.086
  346TIP3    H122597   3.509   2.216   8.143
  346TIP3    H222598   3.611   2.222   8.032
  347TIP3   OH222599   4.429   5.207   8.179
  347TIP3    H122600   4.334   5.217   8.180
  347TIP3    H222601   4.449   5.156   8.258
  348TIP3   OH222602   0.478   1.653   1.084
  348TIP3    H122603   0.540   1.703   1.138
  348TIP3    H222604   0.534   1.603   1.024
  349TIP3   OH222605   3.229   2.424   0.729
  349TIP3    H122606   3.184   2.481   0.666
  349TIP3    H222607   3.165   2.410   0.799
  350TIP3   OH222608   4.532   2.570   0.596
  350TIP3    H122609   4.579   2.624   0.660
  350TIP3    H222610   4.494   2.499   0.647
  351TIP3   OH222611   6.015   3.308   1.648
  351TIP3    H122612   5.959   3.242   1.688
  351TIP3    H222613   6.069   3.260   1.586
  352TIP3   OH222614   3.771   6.102   7.069
  352TIP3    H122615   3.794   6.150   6.990
  352TIP3    H222616   3.676   6.114   7.078
  353TIP3   OH222617   1.967   5.505   7.823
  353TIP3    H122618   1.947   5.531   7.913
  353TIP3    H222619   1.966   5.409   7.825
  354TIP3   OH222620   3.149   0.777   0.552
  354TIP3    H122621   3.116   0.867   0.552
  354TIP3    H222622   3.087   0.730   0.496
  355TIP3   OH222623   2.031   1.339   7.796
  355TIP3    H122624   2.082   1.419   7.811
  355TIP3    H222625   2.003   1.312   7.884
  356TIP3   OH222626   1.814   4.543   8.149
  356TIP3    H122627   1.827   4.635   8.126
  356TIP3    H222628   1.870   4.494   8.089
  357TIP3   OH222629   6.647   3.104   0.570
  357TIP3    H122630   6.683   3.016   0.573
  357TIP3    H222631   6.591   3.105   0.492
  358TIP3   OH222632   0.271   4.126   8.441
  358TIP3    H122633   0.251   4.040   8.478
  358TIP3    H222634   0.367   4.127   8.434
  359TIP3   OH222635   4.106   1.469   7.777
  359TIP3    H122636   4.012   1.469   7.760
  359TIP3    H222637   4.144   1.428   7.699
  360TIP3   OH222638   3.392   1.454   1.578
  360TIP3    H122639   3.387   1.550   1.576
  360TIP3    H222640   3.309   1.426   1.618
  361TIP3   OH222641   3.697   6.439   1.341
  361TIP3    H122642   3.615   6.489   1.340
  361TIP3    H222643   3.705   6.405   1.252
  362TIP3   OH222644   5.523   4.349   8.063
  362TIP3    H122645   5.510   4.258   8.038
  362TIP3    H222646   5.608   4.350   8.107
  363TIP3   OH222647   2.880   2.710   6.443
  363TIP3    H122648   2.794   2.688   6.479
  363TIP3    H222649   2.900   2.795   6.481
  364TIP3   OH222650   4.047   5.702   6.406
  364TIP3    H122651   3.985   5.633   6.426
  364TIP3    H222652   4.133   5.660   6.413
  365TIP3   OH222653   1.451   4.293   6.748
  365TIP3    H122654   1.499   4.353   6.690
  365TIP3    H222655   1.429   4.219   6.692
  366TIP3   OH222656   1.431   0.687   8.625
  366TIP3    H122657   1.481   0.681   8.543
  366TIP3    H222658   1.438   0.779   8.651
  367TIP3   OH222659   0.011   4.188   1.688
  367TIP3    H122660   0.093   4.185   1.737
  367TIP3    H222661   0.039   4.183   1.596
  368TIP3   OH222662   2.409   3.457   0.586
  368TIP3    H122663   2.352   3.529   0.557
  368TIP3    H222664   2.405   3.394   0.514
  369TIP3   OH222665   3.779   0.219   0.086
  369TIP3    H122666   3.853   0.224   0.146
  369TIP3    H222667   3.777   0.304   0.042
  370TIP3   OH222668   5.163   3.122   7.271
  370TIP3    H122669   5.198   3.201   7.311
  370TIP3    H222670   5.161   3.141   7.178
  371TIP3   OH222671   5.944   1.582   0.318
  371TIP3    H122672   6.011   1.514   0.325
  371TIP3    H222673   5.975   1.638   0.246
  372TIP3   OH222674   1.347   2.607   8.199
  372TIP3    H122675   1.342   2.702   8.197
  372TIP3    H222676   1.343   2.580   8.107
  373TIP3   OH222677   1.857   3.667   8.037
  373TIP3    H122678   1.854   3.583   7.990
  373TIP3    H222679   1.842   3.644   8.128
  374TIP3   OH222680   2.459   4.842   8.679
  374TIP3    H122681   2.375   4.885   8.661
  374TIP3    H222682   2.456   4.822   8.772
  375TIP3   OH222683   1.108   6.144   7.196
  375TIP3    H122684   1.118   6.239   7.186
  375TIP3    H222685   1.052   6.118   7.122
  376TIP3   OH222686   4.480   5.672   7.614
  376TIP3    H122687   4.555   5.682   7.556
  376TIP3    H222688   4.424   5.608   7.572
  377TIP3   OH222689   0.817   2.087   8.091
  377TIP3    H122690   0.765   2.134   8.157
  377TIP3    H222691   0.887   2.148   8.067
  378TIP3   OH222692   5.634   1.347   8.700
  378TIP3    H122693   5.555   1.398   8.682
  378TIP3    H222694   5.665   1.380   8.784
  379TIP3   OH222695   1.062   6.438   6.880
  379TIP3    H122696   1.035   6.346   6.879
  379TIP3    H222697   0.993   6.483   6.832
  380TIP3   OH222698   4.834   1.585   8.393
  380TIP3    H122699   4.908   1.526   8.382
  380TIP3    H222700   4.814   1.615   8.305
  381TIP3   OH222701   5.621   4.237   1.689
  381TIP3    H122702   5.591   4.237   1.598
  381TIP3    H222703   5.716   4.233   1.683
  382TIP3   OH222704   3.021   0.113   7.857
  382TIP3    H122705   2.989   0.200   7.835
  382TIP3    H222706   3.091   0.096   7.794
  383TIP3   OH222707   2.448   5.989   6.718
  383TIP3    H122708   2.527   5.958   6.675
  383TIP3    H222709   2.478   6.021   6.803
  384TIP3   OH222710   6.640   0.745   7.563
  384TIP3    H122711   6.601   0.832   7.558
  384TIP3    H222712   6.701   0.742   7.489
  385TIP3   OH222713   3.473   3.948   1.609
  385TIP3    H122714   3.400   3.912   1.559
  385TIP3    H222715   3.456   3.919   1.699
  386TIP3   OH222716   1.906   1.313   0.784
  386TIP3    H122717   1.897   1.348   0.873
  386TIP3    H222718   2.000   1.311   0.768
  387TIP3   OH222719   6.130   2.234   6.822
  387TIP3    H122720   6.125   2.223   6.917
  387TIP3    H222721   6.056   2.291   6.800
  388TIP3   OH222722   4.597   4.844   1.964
  388TIP3    H122723   4.545   4.924   1.954
  388TIP3    H222724   4.535   4.773   1.948
  389TIP3   OH222725   0.458   2.853   1.119
  389TIP3    H122726   0.395   2.840   1.190
  389TIP3    H222727   0.467   2.948   1.112
  390TIP3   OH222728   2.428   0.059   1.761
  390TIP3    H122729   2.489   0.115   1.807
  390TIP3    H222730   2.372   0.119   1.711
  391TIP3   OH222731   5.429   5.544   1.354
  391TIP3    H122732   5.379   5.626   1.349
  391TIP3    H222733   5.400   5.504   1.436
  392TIP3   OH222734   0.380   1.801   8.172
  392TIP3    H122735   0.412   1.782   8.260
  392TIP3    H222736   0.302   1.854   8.185
  393TIP3   OH222737   5.166   1.550   1.106
  393TIP3    H122738   5.131   1.462   1.118
  393TIP3    H222739   5.227   1.562   1.179
  394TIP3   OH222740   2.537   3.989   8.308
  394TIP3    H122741   2.482   4.048   8.256
  394TIP3    H222742   2.541   4.030   8.394
  395TIP3   OH222743   3.063   3.887   8.803
  395TIP3    H122744   3.026   3.804   8.835
  395TIP3    H222745   3.040   3.889   8.710
  396TIP3   OH222746   4.576   2.919   7.211
  396TIP3    H122747   4.504   2.876   7.165
  396TIP3    H222748   4.541   3.004   7.235
  397TIP3   OH222749   0.922   6.428   1.732
  397TIP3    H122750   0.869   6.365   1.781
  397TIP3    H222751   0.992   6.452   1.793
  398TIP3   OH222752   2.074   5.391   0.396
  398TIP3    H122753   2.048   5.429   0.312
  398TIP3    H222754   2.129   5.458   0.437
  399TIP3   OH222755   6.535   4.557   8.466
  399TIP3    H122756   6.468   4.612   8.506
  399TIP3    H222757   6.563   4.498   8.536
  400TIP3   OH222758   4.140   1.032   6.918
  400TIP3    H122759   4.067   0.982   6.955
  400TIP3    H222760   4.100   1.112   6.885
  401TIP3   OH222761   1.041   1.020   8.262
  401TIP3    H122762   1.126   0.978   8.275
  401TIP3    H222763   1.019   1.055   8.348
  402TIP3   OH222764   5.879   6.084   7.799
  402TIP3    H122765   5.938   6.033   7.743
  402TIP3    H222766   5.805   6.026   7.816
  403TIP3   OH222767   1.669   2.245   1.019
  403TIP3    H122768   1.654   2.321   1.075
  403TIP3    H222769   1.675   2.171   1.080
  404TIP3   OH222770   4.885   0.310   1.421
  404TIP3    H122771   4.899   0.334   1.329
  404TIP3    H222772   4.930   0.227   1.431
  405TIP3   OH222773   4.103   1.414   8.035
  405TIP3    H122774   4.021   1.456   8.062
  405TIP3    H222775   4.116   1.442   7.945
  406TIP3   OH222776   1.523   4.398   0.642
  406TIP3    H122777   1.600   4.375   0.693
  406TIP3    H222778   1.517   4.493   0.647
  407TIP3   OH222779   3.734   4.422   1.489
  407TIP3    H122780   3.793   4.493   1.462
  407TIP3    H222781   3.764   4.399   1.577
  408TIP3   OH222782   1.013   2.606   7.828
  408TIP3    H122783   1.048   2.683   7.782
  408TIP3    H222784   0.933   2.584   7.779
  409TIP3   OH222785   2.433   6.458   1.424
  409TIP3    H122786   2.422   6.474   1.518
  409TIP3    H222787   2.368   6.515   1.383
  410TIP3   OH222788   2.878   6.178   0.325
  410TIP3    H122789   2.922   6.224   0.253
  410TIP3    H222790   2.799   6.229   0.341
  411TIP3   OH222791   3.305   5.592   8.256
  411TIP3    H122792   3.326   5.616   8.347
  411TIP3    H222793   3.383   5.615   8.206
  412TIP3   OH222794   1.027   3.332   1.519
  412TIP3    H122795   0.936   3.344   1.546
  412TIP3    H222796   1.077   3.337   1.601
  413TIP3   OH222797   4.541   4.522   7.416
  413TIP3    H122798   4.550   4.469   7.337
  413TIP3    H222799   4.452   4.505   7.447
  414TIP3   OH222800   5.910   0.235   8.610
  414TIP3    H122801   5.850   0.193   8.548
  414TIP3    H222802   5.898   0.188   8.692
  415TIP3   OH222803   2.755   3.955   8.737
  415TIP3    H122804   2.799   3.872   8.750
  415TIP3    H222805   2.694   3.963   8.811
  416TIP3   OH222806   4.092   6.752   7.002
  416TIP3    H122807   4.097   6.660   6.976
  416TIP3    H222808   4.066   6.749   7.094
  417TIP3   OH222809   3.077   4.667   1.499
  417TIP3    H122810   3.018   4.629   1.564
  417TIP3    H222811   3.120   4.591   1.459
  418TIP3   OH222812   6.311   6.679   0.988
  418TIP3    H122813   6.395   6.711   0.955
  418TIP3    H222814   6.333   6.599   1.035
  419TIP3   OH222815   5.830   5.755   7.617
  419TIP3    H122816   5.871   5.759   7.704
  419TIP3    H222817   5.889   5.805   7.561
  420TIP3   OH222818   0.425   1.592   0.580
  420TIP3    H122819   0.488   1.661   0.561
  420TIP3    H222820   0.380   1.577   0.497
  421TIP3   OH222821   3.731   5.882   1.478
  421TIP3    H122822   3.700   5.961   1.433
  421TIP3    H222823   3.654   5.849   1.524
  422TIP3   OH222824   1.236   0.560   6.478
  422TIP3    H122825   1.316   0.507   6.474
  422TIP3    H222826   1.178   0.510   6.535
  423TIP3   OH222827   5.801   0.764   8.208
  423TIP3    H122828   5.818   0.676   8.241
  423TIP3    H222829   5.709   0.780   8.228
  424TIP3   OH222830   1.955   6.336   8.142
  424TIP3    H122831   2.045   6.349   8.171
  424TIP3    H222832   1.905   6.321   8.222
  425TIP3   OH222833   1.177   5.683   0.028
  425TIP3    H122834   1.186   5.676   0.124
  425TIP3    H222835   1.257   5.729   0.001
  426TIP3   OH222836   1.067   3.316   6.308
  426TIP3    H122837   1.041   3.406   6.285
  426TIP3    H222838   1.159   3.323   6.333
  427TIP3   OH222839   5.262   0.072   7.435
  427TIP3    H122840   5.292   0.080   7.526
  427TIP3    H222841   5.337   0.098   7.383
  428TIP3   OH222842   4.127   1.248   8.839
  428TIP3    H122843   4.202   1.189   8.842
  428TIP3    H222844   4.141   1.310   8.910
  429TIP3   OH222845   1.377   2.866   8.142
  429TIP3    H122846   1.443   2.870   8.074
  429TIP3    H222847   1.296   2.892   8.098
  430TIP3   OH222848   0.233   4.397   8.302
  430TIP3    H122849   0.313   4.400   8.249
  430TIP3    H222850   0.229   4.307   8.333
  431TIP3   OH222851   1.175   6.715   0.414
  431TIP3    H122852   1.115   6.771   0.365
  431TIP3    H222853   1.129   6.631   0.422
  432TIP3   OH222854   0.886   4.966   0.222
  432TIP3    H122855   0.853   4.919   0.145
  432TIP3    H222856   0.939   4.901   0.268
  433TIP3   OH222857   4.927   4.575   7.697
  433TIP3    H122858   4.867   4.587   7.770
  433TIP3    H222859   4.873   4.587   7.619
  434TIP3   OH222860   6.751   6.504   1.595
  434TIP3    H122861   6.681   6.543   1.648
  434TIP3    H222862   6.726   6.412   1.586
  435TIP3   OH222863   5.972   4.169   2.077
  435TIP3    H122864   6.023   4.216   2.010
  435TIP3    H222865   6.034   4.106   2.114
  436TIP3   OH222866   5.778   5.398   2.198
  436TIP3    H122867   5.857   5.343   2.204
  436TIP3    H222868   5.781   5.452   2.277
  437TIP3   OH222869   5.481   1.664   1.962
  437TIP3    H122870   5.506   1.667   2.054
  437TIP3    H222871   5.414   1.596   1.958
  438TIP3   OH222872   6.683   5.871   6.924
  438TIP3    H122873   6.756   5.905   6.872
  438TIP3    H222874   6.638   5.810   6.865
  439TIP3   OH222875   2.783   3.918   8.359
  439TIP3    H122876   2.688   3.925   8.356
  439TIP3    H222877   2.814   3.983   8.296
  440TIP3   OH222878   3.200   6.128   6.724
  440TIP3    H122879   3.126   6.158   6.778
  440TIP3    H222880   3.249   6.069   6.781
  441TIP3   OH222881   0.366   6.798   0.469
  441TIP3    H122882   0.412   6.762   0.393
  441TIP3    H222883   0.274   6.777   0.454
  442TIP3   OH222884   1.847   1.509   6.922
  442TIP3    H122885   1.752   1.516   6.935
  442TIP3    H222886   1.878   1.599   6.930
  443TIP3   OH222887   3.293   6.571   8.020
  443TIP3    H122888   3.220   6.631   8.033
  443TIP3    H222889   3.254   6.484   8.028
  444TIP3   OH222890   1.766   5.522   0.486
  444TIP3    H122891   1.802   5.434   0.478
  444TIP3    H222892   1.742   5.530   0.578
  445TIP3   OH222893   1.949   2.973   0.218
  445TIP3    H122894   1.863   2.972   0.260
  445TIP3    H222895   1.983   2.884   0.231
  446TIP3   OH222896   4.602   6.491   7.778
  446TIP3    H122897   4.688   6.451   7.769
  446TIP3    H222898   4.578   6.518   7.690
  447TIP3   OH222899   0.619   1.382   6.068
  447TIP3    H122900   0.588   1.472   6.059
  447TIP3    H222901   0.704   1.389   6.110
  448TIP3   OH222902   1.594   5.151   0.359
  448TIP3    H122903   1.566   5.240   0.382
  448TIP3    H222904   1.601   5.106   0.443
  449TIP3   OH222905   2.836   1.830   7.313
  449TIP3    H122906   2.885   1.875   7.244
  449TIP3    H222907   2.902   1.810   7.379
  450TIP3   OH222908   5.668   5.030   8.474
  450TIP3    H122909   5.740   5.088   8.450
  450TIP3    H222910   5.709   4.959   8.522
  451TIP3   OH222911   4.185   5.737   1.813
  451TIP3    H122912   4.249   5.784   1.759
  451TIP3    H222913   4.211   5.645   1.806
  452TIP3   OH222914   3.395   0.405   1.489
  452TIP3    H122915   3.423   0.494   1.467
  452TIP3    H222916   3.308   0.417   1.528
  453TIP3   OH222917   2.434   2.284   6.385
  453TIP3    H122918   2.509   2.229   6.410
  453TIP3    H222919   2.380   2.287   6.464
  454TIP3   OH222920   3.126   4.197   1.552
  454TIP3    H122921   3.197   4.233   1.606
  454TIP3    H222922   3.102   4.115   1.595
  455TIP3   OH222923   6.713   5.548   0.297
  455TIP3    H122924   6.804   5.569   0.319
  455TIP3    H222925   6.716   5.524   0.204
  456TIP3   OH222926   3.855   1.218   0.135
  456TIP3    H122927   3.878   1.157   0.204
  456TIP3    H222928   3.935   1.227   0.083
  457TIP3   OH222929   1.070   3.759   1.188
  457TIP3    H122930   0.975   3.771   1.177
  457TIP3    H222931   1.102   3.844   1.216
  458TIP3   OH222932   2.577   5.158   2.471
  458TIP3    H122933   2.505   5.148   2.409
  458TIP3    H222934   2.634   5.082   2.454
  459TIP3   OH222935   5.711   5.192   6.726
  459TIP3    H122936   5.736   5.100   6.736
  459TIP3    H222937   5.643   5.206   6.793
  460TIP3   OH222938   0.193   2.587   0.489
  460TIP3    H122939   0.248   2.647   0.539
  460TIP3    H222940   0.179   2.631   0.405
  461TIP3   OH222941   3.051   4.752   8.673
  461TIP3    H122942   3.124   4.712   8.626
  461TIP3    H222943   3.010   4.679   8.720
  462TIP3   OH222944   1.455   3.722   8.215
  462TIP3    H122945   1.512   3.790   8.252
  462TIP3    H222946   1.513   3.648   8.200
  463TIP3   OH222947   1.204   2.871   1.771
  463TIP3    H122948   1.271   2.803   1.783
  463TIP3    H222949   1.253   2.947   1.738
  464TIP3   OH222950   6.480   2.767   6.222
  464TIP3    H122951   6.516   2.848   6.187
  464TIP3    H222952   6.454   2.717   6.145
  465TIP3   OH222953   1.658   6.427   6.895
  465TIP3    H122954   1.707   6.419   6.814
  465TIP3    H222955   1.610   6.344   6.902
  466TIP3   OH222956   2.647   5.833   2.214
  466TIP3    H122957   2.737   5.861   2.228
  466TIP3    H222958   2.630   5.770   2.284
  467TIP3   OH222959   6.587   0.420   8.462
  467TIP3    H122960   6.643   0.371   8.522
  467TIP3    H222961   6.499   0.387   8.480
  468TIP3   OH222962   5.278   6.313   1.432
  468TIP3    H122963   5.236   6.353   1.508
  468TIP3    H222964   5.222   6.338   1.358
  469TIP3   OH222965   2.475   5.418   1.809
  469TIP3    H122966   2.530   5.341   1.800
  469TIP3    H222967   2.415   5.397   1.881
  470TIP3   OH222968   2.818   4.686   7.318
  470TIP3    H122969   2.833   4.624   7.389
  470TIP3    H222970   2.756   4.749   7.354
  471TIP3   OH222971   4.257   1.899   8.097
  471TIP3    H122972   4.215   1.976   8.134
  471TIP3    H222973   4.189   1.831   8.099
  472TIP3   OH222974   5.635   2.853   7.660
  472TIP3    H122975   5.602   2.804   7.585
  472TIP3    H222976   5.588   2.815   7.735
  473TIP3   OH222977   0.557   2.972   0.525
  473TIP3    H122978   0.547   2.997   0.433
  473TIP3    H222979   0.603   2.888   0.522
  474TIP3   OH222980   6.700   0.067   8.387
  474TIP3    H122981   6.762   0.111   8.445
  474TIP3    H222982   6.716  -0.026   8.401
  475TIP3   OH222983   2.330   4.141   0.410
  475TIP3    H122984   2.358   4.097   0.330
  475TIP3    H222985   2.324   4.070   0.475
  476TIP3   OH222986   3.929   1.099   8.285
  476TIP3    H122987   3.894   1.183   8.317
  476TIP3    H222988   3.965   1.120   8.199
  477TIP3   OH222989   4.370   0.867   8.195
  477TIP3    H122990   4.400   0.887   8.107
  477TIP3    H222991   4.399   0.777   8.211
  478TIP3   OH222992   4.038   4.571   8.637
  478TIP3    H122993   3.985   4.518   8.695
  478TIP3    H222994   4.013   4.544   8.549
  479TIP3   OH222995   1.741   1.639   0.884
  479TIP3    H122996   1.743   1.622   0.790
  479TIP3    H222997   1.796   1.571   0.922
  480TIP3   OH222998   0.254   1.096   0.652
  480TIP3    H122999   0.296   1.081   0.737
  480TIP3    H223000   0.263   1.190   0.637
  481TIP3   OH223001   5.318   6.268   2.030
  481TIP3    H123002   5.344   6.356   2.002
  481TIP3    H223003   5.243   6.283   2.088
  482TIP3   OH223004   2.582   4.915   7.018
  482TIP3    H123005   2.583   4.831   6.973
  482TIP3    H223006   2.673   4.945   7.015
  483TIP3   OH223007   1.499   0.867   2.036
  483TIP3    H123008   1.571   0.804   2.040
  483TIP3    H223009   1.537   0.945   1.997
  484TIP3   OH223010   6.667   5.295   8.814
  484TIP3    H123011   6.688   5.309   8.907
  484TIP3    H223012   6.582   5.338   8.802
  485TIP3   OH223013   5.944   0.414   7.902
  485TIP3    H123014   5.972   0.380   7.817
  485TIP3    H223015   5.848   0.406   7.901
  486TIP3   OH223016   5.609   4.784   7.571
  486TIP3    H123017   5.632   4.704   7.523
  486TIP3    H223018   5.635   4.855   7.512
  487TIP3   OH223019   5.068   5.177   1.495
  487TIP3    H123020   5.018   5.238   1.549
  487TIP3    H223021   5.045   5.090   1.530
  488TIP3   OH223022   0.604   4.520   0.483
  488TIP3    H123023   0.619   4.591   0.421
  488TIP3    H223024   0.660   4.449   0.453
  489TIP3   OH223025   3.313   4.798   6.993
  489TIP3    H123026   3.394   4.820   7.038
  489TIP3    H223027   3.334   4.805   6.900
  490TIP3   OH223028   2.696   2.251   0.115
  490TIP3    H123029   2.747   2.309   0.059
  490TIP3    H223030   2.711   2.164   0.078
  491TIP3   OH223031   5.470   4.398   0.651
  491TIP3    H123032   5.448   4.318   0.603
  491TIP3    H223033   5.453   4.377   0.743
  492TIP3   OH223034   0.668   0.682   2.092
  492TIP3    H123035   0.733   0.638   2.146
  492TIP3    H223036   0.678   0.775   2.113
  493TIP3   OH223037   0.543   0.027   7.500
  493TIP3    H123038   0.480   0.016   7.571
  493TIP3    H223039   0.507   0.098   7.447
  494TIP3   OH223040   0.464   5.743   1.307
  494TIP3    H123041   0.509   5.775   1.229
  494TIP3    H223042   0.513   5.781   1.380
  495TIP3   OH223043   2.365   2.745   8.004
  495TIP3    H123044   2.347   2.679   7.937
  495TIP3    H223045   2.404   2.817   7.956
  496TIP3   OH223046   1.287   3.702   1.906
  496TIP3    H123047   1.211   3.730   1.856
  496TIP3    H223048   1.288   3.759   1.983
  497TIP3   OH223049   3.362   0.442   7.394
  497TIP3    H123050   3.413   0.363   7.415
  497TIP3    H223051   3.308   0.416   7.320
  498TIP3   OH223052   5.744   1.755   7.125
  498TIP3    H123053   5.694   1.761   7.044
  498TIP3    H223054   5.755   1.846   7.153
  499TIP3   OH223055   4.865   3.061   7.154
  499TIP3    H123056   4.892   3.020   7.237
  499TIP3    H223057   4.938   3.044   7.095
  500TIP3   OH223058   6.112   6.122   8.389
  500TIP3    H123059   6.129   6.065   8.463
  500TIP3    H223060   6.197   6.161   8.368
  501TIP3   OH223061   1.914   1.978   2.092
  501TIP3    H123062   1.935   2.071   2.083
  501TIP3    H223063   1.898   1.948   2.003
  502TIP3   OH223064   2.642   4.124   6.797
  502TIP3    H123065   2.715   4.139   6.857
  502TIP3    H223066   2.565   4.153   6.845
  503TIP3   OH223067   3.372   6.588   7.747
  503TIP3    H123068   3.396   6.583   7.839
  503TIP3    H223069   3.325   6.506   7.730
  504TIP3   OH223070   3.647   1.467   1.263
  504TIP3    H123071   3.652   1.532   1.192
  504TIP3    H223072   3.582   1.403   1.232
  505TIP3   OH223073   0.243   2.911   8.294
  505TIP3    H123074   0.149   2.904   8.276
  505TIP3    H223075   0.274   2.976   8.231
  506TIP3   OH223076   3.362   2.882   0.850
  506TIP3    H123077   3.302   2.885   0.925
  506TIP3    H223078   3.393   2.972   0.841
  507TIP3   OH223079   4.358   2.786   7.077
  507TIP3    H123080   4.359   2.781   6.981
  507TIP3    H223081   4.266   2.778   7.100
  508TIP3   OH223082   6.384   5.459   7.269
  508TIP3    H123083   6.360   5.460   7.177
  508TIP3    H223084   6.326   5.523   7.310
  509TIP3   OH223085   2.417   2.077   7.303
  509TIP3    H123086   2.351   2.033   7.357
  509TIP3    H223087   2.437   2.013   7.234
  510TIP3   OH223088   5.447   0.723   6.914
  510TIP3    H123089   5.399   0.641   6.914
  510TIP3    H223090   5.483   0.731   6.826
  511TIP3   OH223091   6.108   0.873   7.569
  511TIP3    H123092   6.154   0.840   7.491
  511TIP3    H223093   6.077   0.794   7.613
  512TIP3   OH223094   0.482   4.221   7.794
  512TIP3    H123095   0.543   4.275   7.744
  512TIP3    H223096   0.402   4.273   7.799
  513TIP3   OH223097   3.673   6.554   0.204
  513TIP3    H123098   3.614   6.478   0.203
  513TIP3    H223099   3.743   6.530   0.143
  514TIP3   OH223100   2.961   0.039   0.617
  514TIP3    H123101   2.962   0.077   0.529
  514TIP3    H223102   3.030   0.087   0.664
  515TIP3   OH223103   4.746   2.031   6.826
  515TIP3    H123104   4.759   1.998   6.737
  515TIP3    H223105   4.679   1.974   6.863
  516TIP3   OH223106   6.147   4.750   0.206
  516TIP3    H123107   6.086   4.770   0.135
  516TIP3    H223108   6.093   4.752   0.285
  517TIP3   OH223109   0.254   1.291   1.413
  517TIP3    H123110   0.272   1.225   1.346
  517TIP3    H223111   0.167   1.324   1.392
  518TIP3   OH223112   0.047   0.085   0.705
  518TIP3    H123113   0.088   0.171   0.719
  518TIP3    H223114   0.038   0.078   0.610
  519TIP3   OH223115   5.683   5.248   7.629
  519TIP3    H123116   5.755   5.245   7.566
  519TIP3    H223117   5.657   5.340   7.631
  520TIP3   OH223118   3.172   1.610   0.023
  520TIP3    H123119   3.199   1.700   0.006
  520TIP3    H223120   3.160   1.607   0.118
  521TIP3   OH223121   0.359   5.084   1.065
  521TIP3    H123122   0.339   5.167   1.108
  521TIP3    H223123   0.453   5.087   1.051
  522TIP3   OH223124   0.476   2.373   7.339
  522TIP3    H123125   0.531   2.298   7.317
  522TIP3    H223126   0.538   2.444   7.354
  523TIP3   OH223127   4.271   1.850   1.940
  523TIP3    H123128   4.327   1.789   1.893
  523TIP3    H223129   4.314   1.862   2.025
  524TIP3   OH223130   2.101   3.300   1.992
  524TIP3    H123131   2.146   3.373   2.035
  524TIP3    H223132   2.059   3.252   2.064
  525TIP3   OH223133   1.162   6.213   7.744
  525TIP3    H123134   1.158   6.238   7.652
  525TIP3    H223135   1.077   6.237   7.779
  526TIP3   OH223136   5.822   3.138   8.549
  526TIP3    H123137   5.822   3.050   8.587
  526TIP3    H223138   5.908   3.147   8.509
  527TIP3   OH223139   0.822   6.621   8.821
  527TIP3    H123140   0.867   6.686   8.875
  527TIP3    H223141   0.884   6.548   8.814
  528TIP3   OH223142   5.437   3.417   0.978
  528TIP3    H123143   5.516   3.428   1.032
  528TIP3    H223144   5.382   3.491   1.001
  529TIP3   OH223145   5.813   6.555   1.012
  529TIP3    H123146   5.897   6.601   1.009
  529TIP3    H223147   5.817   6.504   1.094
  530TIP3   OH223148   4.981   1.164   6.520
  530TIP3    H123149   4.898   1.184   6.476
  530TIP3    H223150   5.013   1.085   6.477
  531TIP3   OH223151   0.926   4.995   6.703
  531TIP3    H123152   0.998   5.033   6.654
  531TIP3    H223153   0.929   4.901   6.682
  532TIP3   OH223154   4.086   2.901   6.754
  532TIP3    H123155   4.166   2.851   6.771
  532TIP3    H223156   4.040   2.903   6.838
  533TIP3   OH223157   5.732   4.772   8.051
  533TIP3    H123158   5.664   4.758   7.985
  533TIP3    H223159   5.814   4.749   8.005
  534TIP3   OH223160   5.260   1.488   8.249
  534TIP3    H123161   5.308   1.561   8.287
  534TIP3    H223162   5.323   1.416   8.246
  535TIP3   OH223163   0.832   0.902   7.941
  535TIP3    H123164   0.800   0.975   7.888
  535TIP3    H223165   0.927   0.916   7.945
  536TIP3   OH223166   0.668   1.037   8.157
  536TIP3    H123167   0.758   1.005   8.151
  536TIP3    H223168   0.630   0.989   8.231
  537TIP3   OH223169   6.730   1.610   0.268
  537TIP3    H123170   6.715   1.525   0.226
  537TIP3    H223171   6.704   1.674   0.202
  538TIP3   OH223172   3.477   2.032   0.409
  538TIP3    H123173   3.473   1.965   0.341
  538TIP3    H223174   3.426   1.996   0.482
  539TIP3   OH223175   5.133   2.452   7.365
  539TIP3    H123176   5.158   2.387   7.431
  539TIP3    H223177   5.109   2.400   7.288
  540TIP3   OH223178   5.783   4.400   8.366
  540TIP3    H123179   5.793   4.479   8.313
  540TIP3    H223180   5.817   4.424   8.452
  541TIP3   OH223181   3.268   4.716   0.546
  541TIP3    H123182   3.190   4.765   0.520
  541TIP3    H223183   3.335   4.742   0.483
  542TIP3   OH223184   6.548   5.770   6.665
  542TIP3    H123185   6.642   5.778   6.650
  542TIP3    H223186   6.510   5.850   6.629
  543TIP3   OH223187   5.815   6.412   1.255
  543TIP3    H123188   5.817   6.489   1.311
  543TIP3    H223189   5.749   6.355   1.294
  544TIP3   OH223190   5.818   6.155   0.404
  544TIP3    H123191   5.751   6.091   0.429
  544TIP3    H223192   5.876   6.107   0.345
  545TIP3   OH223193   2.797   4.728   0.879
  545TIP3    H123194   2.801   4.645   0.927
  545TIP3    H223195   2.888   4.752   0.865
  546TIP3   OH223196   4.208   5.420   6.699
  546TIP3    H123197   4.120   5.384   6.689
  546TIP3    H223198   4.217   5.481   6.626
  547TIP3   OH223199   2.778   1.880   1.380
  547TIP3    H123200   2.873   1.868   1.381
  547TIP3    H223201   2.752   1.864   1.471
  548TIP3   OH223202   1.667   3.313   7.784
  548TIP3    H123203   1.730   3.356   7.725
  548TIP3    H223204   1.663   3.223   7.754
  549TIP3   OH223205   0.485   5.563   1.520
  549TIP3    H123206   0.463   5.599   1.434
  549TIP3    H223207   0.440   5.619   1.583
  550TIP3   OH223208   5.186   5.104   8.655
  550TIP3    H123209   5.190   5.015   8.620
  550TIP3    H223210   5.136   5.096   8.737
  551TIP3   OH223211   0.084   2.331   0.948
  551TIP3    H123212   0.166   2.361   0.987
  551TIP3    H223213   0.092   2.351   0.855
  552TIP3   OH223214   5.898   1.017   0.390
  552TIP3    H123215   5.843   0.956   0.439
  552TIP3    H223216   5.863   1.014   0.300
  553TIP3   OH223217   0.597   4.833   6.582
  553TIP3    H123218   0.595   4.900   6.650
  553TIP3    H223219   0.677   4.784   6.600
  554TIP3   OH223220   1.000   5.605   2.145
  554TIP3    H123221   1.084   5.560   2.147
  554TIP3    H223222   1.015   5.685   2.096
  555TIP3   OH223223   4.066   2.011   2.207
  555TIP3    H123224   4.019   1.945   2.156
  555TIP3    H223225   4.126   2.051   2.145
  556TIP3   OH223226   5.224   0.744   7.653
  556TIP3    H123227   5.273   0.664   7.634
  556TIP3    H223228   5.252   0.769   7.741
  557TIP3   OH223229   4.801   1.383   8.152
  557TIP3    H123230   4.840   1.358   8.235
  557TIP3    H223231   4.843   1.467   8.131
  558TIP3   OH223232   3.248   4.370   1.080
  558TIP3    H123233   3.319   4.419   1.122
  558TIP3    H223234   3.248   4.286   1.126
  559TIP3   OH223235   2.751   4.574   6.243
  559TIP3    H123236   2.842   4.559   6.266
  559TIP3    H223237   2.725   4.496   6.194
  560TIP3   OH223238   2.157   0.033   7.321
  560TIP3    H123239   2.151  -0.014   7.238
  560TIP3    H223240   2.068   0.030   7.356
  561TIP3   OH223241   2.021   5.835   2.394
  561TIP3    H123242   2.070   5.917   2.394
  561TIP3    H223243   1.930   5.862   2.384
  562TIP3   OH223244   3.965   1.108   1.858
  562TIP3    H123245   4.005   1.093   1.772
  562TIP3    H223246   4.039   1.111   1.919
  563TIP3   OH223247   4.789   4.155   0.691
  563TIP3    H123248   4.795   4.174   0.785
  563TIP3    H223249   4.738   4.074   0.686
  564TIP3   OH223250   1.044   3.149   0.974
  564TIP3    H123251   1.034   3.158   1.069
  564TIP3    H223252   1.133   3.116   0.962
  565TIP3   OH223253   1.746   3.419   1.248
  565TIP3    H123254   1.657   3.440   1.220
  565TIP3    H223255   1.773   3.495   1.301
  566TIP3   OH223256   4.876   2.360   6.852
  566TIP3    H123257   4.952   2.308   6.826
  566TIP3    H223258   4.850   2.323   6.937
  567TIP3   OH223259   3.993   3.964   8.550
  567TIP3    H123260   4.081   3.962   8.512
  567TIP3    H223261   3.997   3.900   8.621
  568TIP3   OH223262   6.304   2.072   6.706
  568TIP3    H123263   6.226   2.116   6.739
  568TIP3    H223264   6.365   2.072   6.780
  569TIP3   OH223265   2.996   0.511   8.577
  569TIP3    H123266   2.961   0.472   8.658
  569TIP3    H223267   3.073   0.559   8.605
  570TIP3   OH223268   5.534   1.214   0.172
  570TIP3    H123269   5.603   1.273   0.141
  570TIP3    H223270   5.554   1.199   0.264
  571TIP3   OH223271   3.605   5.748   1.840
  571TIP3    H123272   3.623   5.665   1.796
  571TIP3    H223273   3.582   5.723   1.929
  572TIP3   OH223274   1.157   6.804   0.045
  572TIP3    H123275   1.230   6.766  -0.005
  572TIP3    H223276   1.161   6.897   0.027
  573TIP3   OH223277   6.279   3.046   6.270
  573TIP3    H123278   6.359   3.081   6.310
  573TIP3    H223279   6.253   2.974   6.328
  574TIP3   OH223280   6.243   4.643   0.869
  574TIP3    H123281   6.231   4.630   0.775
  574TIP3    H223282   6.293   4.567   0.898
  575TIP3   OH223283   2.763   2.149   1.806
  575TIP3    H123284   2.747   2.240   1.831
  575TIP3    H223285   2.849   2.128   1.842
  576TIP3   OH223286   0.714   2.706   0.553
  576TIP3    H123287   0.711   2.664   0.467
  576TIP3    H223288   0.674   2.643   0.612
  577TIP3   OH223289   2.348   0.953   6.903
  577TIP3    H123290   2.258   0.921   6.898
  577TIP3    H223291   2.389   0.920   6.823
  578TIP3   OH223292   6.226   3.345   7.257
  578TIP3    H123293   6.198   3.437   7.263
  578TIP3    H223294   6.301   3.339   7.317
  579TIP3   OH223295   4.077   4.805   8.798
  579TIP3    H123296   4.080   4.889   8.752
  579TIP3    H223297   4.092   4.740   8.730
  580TIP3   OH223298   6.792   4.463   6.174
  580TIP3    H123299   6.795   4.520   6.097
  580TIP3    H223300   6.711   4.413   6.163
  581TIP3   OH223301   4.743   5.998   7.552
  581TIP3    H123302   4.731   5.964   7.641
  581TIP3    H223303   4.656   5.994   7.513
  582TIP3   OH223304   5.065   4.128   2.051
  582TIP3    H123305   5.153   4.150   2.019
  582TIP3    H223306   5.022   4.213   2.062
  583TIP3   OH223307   1.059   4.361   1.205
  583TIP3    H123308   0.992   4.294   1.190
  583TIP3    H223309   1.056   4.376   1.300
  584TIP3   OH223310   0.250   5.800   7.003
  584TIP3    H123311   0.338   5.770   6.981
  584TIP3    H223312   0.192   5.729   6.975
  585TIP3   OH223313   4.535   0.219   1.407
  585TIP3    H123314   4.558   0.174   1.488
  585TIP3    H223315   4.581   0.303   1.412
  586TIP3   OH223316   6.281   0.963   0.576
  586TIP3    H123317   6.281   0.909   0.655
  586TIP3    H223318   6.261   1.051   0.607
  587TIP3   OH223319   0.795   0.954   8.717
  587TIP3    H123320   0.728   0.936   8.651
  587TIP3    H223321   0.878   0.943   8.671
  588TIP3   OH223322   4.092   1.360   2.101
  588TIP3    H123323   4.006   1.335   2.136
  588TIP3    H223324   4.153   1.300   2.143
  589TIP3   OH223325   1.364   4.714   8.274
  589TIP3    H123326   1.278   4.691   8.240
  589TIP3    H223327   1.360   4.809   8.289
  590TIP3   OH223328   1.605   4.444   6.572
  590TIP3    H123329   1.694   4.410   6.571
  590TIP3    H223330   1.602   4.500   6.649
  591TIP3   OH223331   4.697   1.911   0.374
  591TIP3    H123332   4.722   1.891   0.283
  591TIP3    H223333   4.735   1.839   0.425
  592TIP3   OH223334   0.173   1.977   8.255
  592TIP3    H123335   0.087   1.979   8.295
  592TIP3    H223336   0.230   2.021   8.318
  593TIP3   OH223337   4.244   0.384   6.594
  593TIP3    H123338   4.189   0.333   6.655
  593TIP3    H223339   4.291   0.318   6.544
  594TIP3   OH223340   5.453   4.102   7.888
  594TIP3    H123341   5.458   4.052   7.806
  594TIP3    H223342   5.537   4.086   7.931
  595TIP3   OH223343   4.455   4.730   7.739
  595TIP3    H123344   4.447   4.799   7.673
  595TIP3    H223345   4.416   4.767   7.818
  596TIP3   OH223346   6.577   3.969   1.888
  596TIP3    H123347   6.653   3.925   1.926
  596TIP3    H223348   6.570   3.933   1.799
  597TIP3   OH223349   3.064   1.498   7.973
  597TIP3    H123350   3.050   1.505   8.067
  597TIP3    H223351   3.020   1.417   7.948
  598TIP3   OH223352   3.726   4.849   7.772
  598TIP3    H123353   3.765   4.762   7.779
  598TIP3    H223354   3.800   4.907   7.755
  599TIP3   OH223355   1.578   1.259   7.411
  599TIP3    H123356   1.605   1.247   7.319
  599TIP3    H223357   1.593   1.173   7.451
  600TIP3   OH223358   0.125   2.192   7.591
  600TIP3    H123359   0.127   2.098   7.605
  600TIP3    H223360   0.062   2.225   7.656
  601TIP3   OH223361   1.269   1.984   2.078
  601TIP3    H123362   1.361   1.958   2.088
  601TIP3    H223363   1.263   2.069   2.121
  602TIP3   OH223364   2.557   3.228   8.820
  602TIP3    H123365   2.648   3.213   8.847
  602TIP3    H223366   2.505   3.174   8.880
  603TIP3   OH223367   6.788   0.329   1.689
  603TIP3    H123368   6.724   0.259   1.699
  603TIP3    H223369   6.759   0.397   1.750
  604TIP3   OH223370   2.287   4.319   0.783
  604TIP3    H123371   2.191   4.315   0.787
  604TIP3    H223372   2.309   4.398   0.831
  605TIP3   OH223373   6.655   6.005   8.299
  605TIP3    H123374   6.597   5.931   8.318
  605TIP3    H223375   6.737   5.983   8.343
  606TIP3   OH223376   1.649   5.056   0.887
  606TIP3    H123377   1.563   5.079   0.922
  606TIP3    H223378   1.697   5.021   0.962
  607TIP3   OH223379   1.149   6.706   1.302
  607TIP3    H123380   1.083   6.730   1.368
  607TIP3    H223381   1.196   6.632   1.341
  608TIP3   OH223382   0.280   3.281   7.168
  608TIP3    H123383   0.355   3.223   7.178
  608TIP3    H223384   0.206   3.223   7.152
  609TIP3   OH223385   5.764   4.670   8.297
  609TIP3    H123386   5.782   4.721   8.218
  609TIP3    H223387   5.798   4.723   8.369
  610TIP3   OH223388   4.062   6.526   8.676
  610TIP3    H123389   4.144   6.489   8.646
  610TIP3    H223390   4.044   6.598   8.616
  611TIP3   OH223391   4.566   2.796   1.553
  611TIP3    H123392   4.523   2.712   1.534
  611TIP3    H223393   4.501   2.845   1.604
  612TIP3   OH223394   0.061   1.368   8.468
  612TIP3    H123395   0.041   1.278   8.494
  612TIP3    H223396  -0.014   1.397   8.417
  613TIP3   OH223397   2.933   5.712   8.194
  613TIP3    H123398   2.968   5.632   8.234
  613TIP3    H223399   2.978   5.719   8.110
  614TIP3   OH223400   1.990   2.968   0.726
  614TIP3    H123401   2.067   2.971   0.669
  614TIP3    H223402   2.008   2.896   0.787
  615TIP3   OH223403   1.192   0.356   7.864
  615TIP3    H123404   1.267   0.319   7.818
  615TIP3    H223405   1.138   0.395   7.795
  616TIP3   OH223406   5.784   5.880   1.387
  616TIP3    H123407   5.851   5.818   1.358
  616TIP3    H223408   5.760   5.850   1.474
  617TIP3   OH223409   4.347   2.816   1.339
  617TIP3    H123410   4.392   2.748   1.389
  617TIP3    H223411   4.373   2.898   1.383
  618TIP3   OH223412   0.315   4.546   1.588
  618TIP3    H123413   0.299   4.520   1.679
  618TIP3    H223414   0.410   4.539   1.577
  619TIP3   OH223415   2.398   0.428   7.786
  619TIP3    H123416   2.486   0.465   7.798
  619TIP3    H223417   2.394   0.404   7.694
  620TIP3   OH223418   3.449   5.720   7.102
  620TIP3    H123419   3.391   5.647   7.124
  620TIP3    H223420   3.493   5.692   7.021
  621TIP3   OH223421   4.382   2.091   6.911
  621TIP3    H123422   4.433   2.051   6.842
  621TIP3    H223423   4.366   2.020   6.974
  622TIP3   OH223424   6.114   1.832   0.944
  622TIP3    H123425   6.076   1.824   0.856
  622TIP3    H223426   6.151   1.745   0.962
  623TIP3   OH223427   0.602   3.848   6.926
  623TIP3    H123428   0.603   3.936   6.889
  623TIP3    H223429   0.695   3.823   6.933
  624TIP3   OH223430   5.385   4.120   0.647
  624TIP3    H123431   5.375   4.035   0.604
  624TIP3    H223432   5.329   4.115   0.724
  625TIP3   OH223433   1.010   3.585   6.398
  625TIP3    H123434   1.051   3.670   6.383
  625TIP3    H223435   0.918   3.605   6.415
  626TIP3   OH223436   3.825   3.138   0.532
  626TIP3    H123437   3.841   3.218   0.582
  626TIP3    H223438   3.740   3.152   0.491
  627TIP3   OH223439   5.951   4.864   0.662
  627TIP3    H123440   5.996   4.888   0.743
  627TIP3    H223441   5.937   4.948   0.617
  628TIP3   OH223442   2.956   1.772   0.787
  628TIP3    H123443   2.864   1.799   0.780
  628TIP3    H223444   2.985   1.762   0.697
  629TIP3   OH223445   2.424   1.185   1.624
  629TIP3    H123446   2.475   1.255   1.663
  629TIP3    H223447   2.338   1.191   1.666
  630TIP3   OH223448   3.990   6.290   6.986
  630TIP3    H123449   4.003   6.384   6.977
  630TIP3    H223450   3.937   6.265   6.910
  631TIP3   OH223451   3.924   2.017   1.280
  631TIP3    H123452   4.006   2.025   1.230
  631TIP3    H223453   3.856   2.008   1.213
  632TIP3   OH223454   5.273   0.907   0.064
  632TIP3    H123455   5.296   0.821   0.099
  632TIP3    H223456   5.231   0.951   0.137
  633TIP3   OH223457   1.326   4.480   8.699
  633TIP3    H123458   1.320   4.423   8.776
  633TIP3    H223459   1.364   4.425   8.631
  634TIP3   OH223460   2.656   4.242   2.236
  634TIP3    H123461   2.634   4.152   2.261
  634TIP3    H223462   2.656   4.240   2.140
  635TIP3   OH223463   1.917   0.079   7.428
  635TIP3    H123464   1.830   0.052   7.396
  635TIP3    H223465   1.910   0.076   7.523
  636TIP3   OH223466   0.848   3.989   6.018
  636TIP3    H123467   0.888   3.919   6.070
  636TIP3    H223468   0.798   3.943   5.950
  637TIP3   OH223469   6.539   0.375   2.141
  637TIP3    H123470   6.548   0.280   2.138
  637TIP3    H223471   6.624   0.408   2.113
  638TIP3   OH223472   6.121   5.424   0.897
  638TIP3    H123473   6.072   5.416   0.815
  638TIP3    H223474   6.209   5.448   0.869
  639TIP3   OH223475   4.347   1.842   7.052
  639TIP3    H123476   4.422   1.831   6.992
  639TIP3    H223477   4.362   1.777   7.121
  640TIP3   OH223478   3.722   0.917   7.803
  640TIP3    H123479   3.697   0.952   7.718
  640TIP3    H223480   3.676   0.832   7.808
  641TIP3   OH223481   0.182   0.785   8.261
  641TIP3    H123482   0.187   0.741   8.176
  641TIP3    H223483   0.208   0.718   8.325
  642TIP3   OH223484   1.875   5.996   8.762
  642TIP3    H123485   1.935   6.053   8.811
  642TIP3    H223486   1.930   5.924   8.732
  643TIP3   OH223487   0.719   6.111   8.233
  643TIP3    H123488   0.655   6.081   8.297
  643TIP3    H223489   0.667   6.148   8.162
  644TIP3   OH223490   5.367   5.218   0.913
  644TIP3    H123491   5.402   5.278   0.979
  644TIP3    H223492   5.430   5.224   0.841
  645TIP3   OH223493   5.329   1.329   8.522
  645TIP3    H123494   5.369   1.400   8.571
  645TIP3    H223495   5.369   1.334   8.435
  646TIP3   OH223496   3.175   0.242   1.401
  646TIP3    H123497   3.111   0.309   1.377
  646TIP3    H223498   3.259   0.280   1.378
  647TIP3   OH223499   5.407   6.076   1.463
  647TIP3    H123500   5.402   6.060   1.557
  647TIP3    H223501   5.379   6.167   1.452
  648TIP3   OH223502   5.203   3.133   8.319
  648TIP3    H123503   5.222   3.059   8.376
  648TIP3    H223504   5.149   3.191   8.374
  649TIP3   OH223505   6.454   5.587   2.581
  649TIP3    H123506   6.485   5.660   2.633
  649TIP3    H223507   6.515   5.582   2.507
  650TIP3   OH223508   3.864   0.083   1.184
  650TIP3    H123509   3.833   0.046   1.267
  650TIP3    H223510   3.877   0.007   1.127
  651TIP3   OH223511   0.050   6.450   7.515
  651TIP3    H123512   0.006   6.379   7.561
  651TIP3    H223513   0.086   6.409   7.436
  652TIP3   OH223514   4.607   6.755   2.355
  652TIP3    H123515   4.623   6.703   2.276
  652TIP3    H223516   4.665   6.717   2.421
  653TIP3   OH223517   3.810   5.739   8.356
  653TIP3    H123518   3.878   5.676   8.331
  653TIP3    H223519   3.858   5.814   8.392
  654TIP3   OH223520   4.196   6.099   0.001
  654TIP3    H123521   4.151   6.014   0.012
  654TIP3    H223522   4.279   6.077  -0.040
  655TIP3   OH223523   3.257   0.503   8.730
  655TIP3    H123524   3.339   0.525   8.687
  655TIP3    H223525   3.231   0.419   8.691
  656TIP3   OH223526   4.682   0.393   0.486
  656TIP3    H123527   4.713   0.422   0.400
  656TIP3    H223528   4.675   0.474   0.537
  657TIP3   OH223529   5.183   3.340   7.460
  657TIP3    H123530   5.098   3.380   7.440
  657TIP3    H223531   5.184   3.333   7.555
  658TIP3   OH223532   4.270   0.145   1.350
  658TIP3    H123533   4.214   0.223   1.350
  658TIP3    H223534   4.359   0.180   1.354
  659TIP3   OH223535   1.416   3.634   6.942
  659TIP3    H123536   1.462   3.560   6.903
  659TIP3    H223537   1.439   3.708   6.886
  660TIP3   OH223538   3.710   0.831   0.480
  660TIP3    H123539   3.781   0.841   0.417
  660TIP3    H223540   3.638   0.794   0.429
  661TIP3   OH223541   6.484   6.090   1.106
  661TIP3    H123542   6.496   6.085   1.012
  661TIP3    H223543   6.554   6.148   1.136
  662TIP3   OH223544   5.360   4.139   1.128
  662TIP3    H123545   5.295   4.080   1.167
  662TIP3    H223546   5.329   4.227   1.150
  663TIP3   OH223547   4.199   2.669   0.739
  663TIP3    H123548   4.280   2.645   0.782
  663TIP3    H223549   4.211   2.642   0.648
  664TIP3   OH223550   6.219   4.319   1.196
  664TIP3    H123551   6.304   4.361   1.208
  664TIP3    H223552   6.239   4.237   1.151
  665TIP3   OH223553   2.333   3.134   7.503
  665TIP3    H123554   2.417   3.171   7.528
  665TIP3    H223555   2.296   3.196   7.440
  666TIP3   OH223556   1.590   3.807   0.069
  666TIP3    H123557   1.648   3.881   0.083
  666TIP3    H223558   1.544   3.827  -0.013
  667TIP3   OH223559   0.918   2.096   6.877
  667TIP3    H123560   0.860   2.168   6.853
  667TIP3    H223561   0.893   2.024   6.820
  668TIP3   OH223562   5.396   0.493   1.950
  668TIP3    H123563   5.356   0.568   1.994
  668TIP3    H223564   5.345   0.483   1.869
  669TIP3   OH223565   2.072   4.145   8.483
  669TIP3    H123566   2.148   4.167   8.428
  669TIP3    H223567   2.080   4.203   8.558
  670TIP3   OH223568   3.563   5.402   0.207
  670TIP3    H123569   3.485   5.418   0.259
  670TIP3    H223570   3.591   5.489   0.178
  671TIP3   OH223571   1.787   2.588   8.426
  671TIP3    H123572   1.857   2.552   8.372
  671TIP3    H223573   1.767   2.673   8.387
  672TIP3   OH223574   3.659   4.131   1.483
  672TIP3    H123575   3.573   4.089   1.488
  672TIP3    H223576   3.640   4.225   1.480
  673TIP3   OH223577   0.125   5.948   1.149
  673TIP3    H123578   0.187   6.012   1.115
  673TIP3    H223579   0.164   5.863   1.128
  674TIP3   OH223580   5.928   2.158   7.484
  674TIP3    H123581   5.873   2.230   7.513
  674TIP3    H223582   5.987   2.141   7.558
  675TIP3   OH223583   3.284   2.131   1.978
  675TIP3    H123584   3.352   2.156   2.041
  675TIP3    H223585   3.202   2.157   2.020
  676TIP3   OH223586   4.990   4.721   6.558
  676TIP3    H123587   5.018   4.723   6.467
  676TIP3    H223588   4.940   4.802   6.569
  677TIP3   OH223589   3.293   0.771   6.966
  677TIP3    H123590   3.229   0.717   6.920
  677TIP3    H223591   3.318   0.839   6.903
  678TIP3   OH223592   2.152   0.359   1.835
  678TIP3    H123593   2.117   0.443   1.863
  678TIP3    H223594   2.210   0.379   1.762
  679TIP3   OH223595   0.599   3.263   6.828
  679TIP3    H123596   0.659   3.331   6.860
  679TIP3    H223597   0.645   3.181   6.844
  680TIP3   OH223598   2.519   4.310   0.489
  680TIP3    H123599   2.467   4.239   0.453
  680TIP3    H223600   2.471   4.337   0.568
  681TIP3   OH223601   2.015   6.159   7.916
  681TIP3    H123602   1.973   6.201   7.991
  681TIP3    H223603   2.107   6.151   7.943
  682TIP3   OH223604   0.012   3.591   0.310
  682TIP3    H123605   0.076   3.620   0.376
  682TIP3    H223606  -0.008   3.501   0.333
  683TIP3   OH223607   1.292   1.717   7.356
  683TIP3    H123608   1.211   1.685   7.397
  683TIP3    H223609   1.261   1.777   7.287
  684TIP3   OH223610   4.430   3.175   8.238
  684TIP3    H123611   4.516   3.166   8.197
  684TIP3    H223612   4.396   3.258   8.206
  685TIP3   OH223613   4.778   5.682   8.656
  685TIP3    H123614   4.805   5.726   8.576
  685TIP3    H223615   4.785   5.588   8.635
  686TIP3   OH223616   2.150   4.564   8.757
  686TIP3    H123617   2.113   4.649   8.732
  686TIP3    H223618   2.187   4.579   8.844
  687TIP3   OH223619   2.576   1.973   8.456
  687TIP3    H123620   2.650   1.922   8.490
  687TIP3    H223621   2.501   1.912   8.460
  688TIP3   OH223622   0.419   1.960   8.444
  688TIP3    H123623   0.501   1.929   8.482
  688TIP3    H223624   0.351   1.925   8.501
  689TIP3   OH223625   1.562   1.021   7.528
  689TIP3    H123626   1.554   0.980   7.613
  689TIP3    H223627   1.510   0.966   7.469
  690TIP3   OH223628   5.243   1.939   2.649
  690TIP3    H123629   5.307   2.008   2.630
  690TIP3    H223630   5.284   1.887   2.719
  691TIP3   OH223631   0.074   2.542   7.380
  691TIP3    H123632   0.063   2.599   7.303
  691TIP3    H223633   0.030   2.589   7.451
  692TIP3   OH223634   3.669   1.670   1.037
  692TIP3    H123635   3.696   1.652   0.946
  692TIP3    H223636   3.707   1.755   1.056
  693TIP3   OH223637   0.215   3.065   1.232
  693TIP3    H123638   0.159   2.987   1.228
  693TIP3    H223639   0.231   3.078   1.325
  694TIP3   OH223640   0.306   4.133   1.111
  694TIP3    H123641   0.242   4.196   1.078
  694TIP3    H223642   0.258   4.050   1.116
  695TIP3   OH223643   1.028   5.909   7.452
  695TIP3    H123644   1.118   5.928   7.478
  695TIP3    H223645   1.032   5.897   7.357
  696TIP3   OH223646   0.314   2.400   8.066
  696TIP3    H123647   0.349   2.325   8.017
  696TIP3    H223648   0.390   2.457   8.079
  697TIP3   OH223649   4.604   3.633   0.838
  697TIP3    H123650   4.569   3.708   0.790
  697TIP3    H223651   4.572   3.557   0.790
  698TIP3   OH223652   3.218   6.710   0.281
  698TIP3    H123653   3.312   6.715   0.263
  698TIP3    H223654   3.179   6.685   0.197
  699TIP3   OH223655   1.986   6.120   1.347
  699TIP3    H123656   2.053   6.122   1.279
  699TIP3    H223657   2.014   6.049   1.406
  700TIP3   OH223658   5.044   3.698   6.752
  700TIP3    H123659   5.059   3.748   6.673
  700TIP3    H223660   5.034   3.764   6.821
  701TIP3   OH223661   1.579   5.151   6.731
  701TIP3    H123662   1.500   5.098   6.729
  701TIP3    H223663   1.628   5.118   6.807
  702TIP3   OH223664   2.058   2.805   7.482
  702TIP3    H123665   2.081   2.855   7.403
  702TIP3    H223666   1.962   2.801   7.480
  703TIP3   OH223667   3.377   3.801   0.787
  703TIP3    H123668   3.378   3.867   0.856
  703TIP3    H223669   3.434   3.836   0.719
  704TIP3   OH223670   6.731   0.968   7.147
  704TIP3    H123671   6.780   0.953   7.067
  704TIP3    H223672   6.683   1.049   7.132
  705TIP3   OH223673   5.826   5.668   0.005
  705TIP3    H123674   5.815   5.599   0.069
  705TIP3    H223675   5.764   5.737   0.031
  706TIP3   OH223676   6.475   0.697   1.026
  706TIP3    H123677   6.464   0.609   0.988
  706TIP3    H223678   6.471   0.683   1.120
  707TIP3   OH223679   2.286   2.268   0.095
  707TIP3    H123680   2.311   2.197   0.037
  707TIP3    H223681   2.262   2.224   0.177
  708TIP3   OH223682   1.741   2.251   6.373
  708TIP3    H123683   1.681   2.237   6.299
  708TIP3    H223684   1.684   2.285   6.442
  709TIP3   OH223685   6.161   5.904   1.878
  709TIP3    H123686   6.171   5.885   1.972
  709TIP3    H223687   6.067   5.897   1.862
  710TIP3   OH223688   1.255   4.719   0.531
  710TIP3    H123689   1.172   4.679   0.554
  710TIP3    H223690   1.277   4.683   0.445
  711TIP3   OH223691   5.076   5.640   1.407
  711TIP3    H123692   5.139   5.712   1.409
  711TIP3    H223693   5.091   5.593   1.489
  712TIP3   OH223694   6.330   2.985   7.453
  712TIP3    H123695   6.273   3.060   7.441
  712TIP3    H223696   6.350   2.955   7.364
  713TIP3   OH223697   2.975   0.229   0.062
  713TIP3    H123698   2.916   0.282   0.008
  713TIP3    H223699   3.037   0.190  -0.000
  714TIP3   OH223700   4.116   5.582   7.265
  714TIP3    H123701   4.066   5.608   7.188
  714TIP3    H223702   4.091   5.491   7.281
  715TIP3   OH223703   1.233   6.141   8.732
  715TIP3    H123704   1.212   6.096   8.814
  715TIP3    H223705   1.192   6.087   8.664
  716TIP3   OH223706   3.315   4.229   1.755
  716TIP3    H123707   3.315   4.260   1.845
  716TIP3    H223708   3.406   4.207   1.737
  717TIP3   OH223709   0.723   2.293   1.355
  717TIP3    H123710   0.746   2.290   1.448
  717TIP3    H223711   0.629   2.278   1.353
  718TIP3   OH223712   1.945   1.348   0.506
  718TIP3    H123713   1.894   1.347   0.586
  718TIP3    H223714   2.023   1.296   0.527
  719TIP3   OH223715   6.189   6.208   6.577
  719TIP3    H123716   6.165   6.147   6.646
  719TIP3    H223717   6.123   6.194   6.509
  720TIP3   OH223718   0.075   0.971   7.924
  720TIP3    H123719  -0.021   0.969   7.921
  720TIP3    H223720   0.095   1.034   7.992
  721TIP3   OH223721   3.481   0.884   8.693
  721TIP3    H123722   3.494   0.817   8.625
  721TIP3    H223723   3.566   0.927   8.700
  722TIP3   OH223724   5.065   6.410   7.314
  722TIP3    H123725   5.042   6.416   7.221
  722TIP3    H223726   5.013   6.337   7.346
  723TIP3   OH223727   2.441   4.005   6.657
  723TIP3    H123728   2.432   3.930   6.716
  723TIP3    H223729   2.511   4.058   6.697
  724TIP3   OH223730   6.741   4.162   7.948
  724TIP3    H123731   6.821   4.141   7.997
  724TIP3    H223732   6.741   4.258   7.942
  725TIP3   OH223733   4.120   1.207   0.881
  725TIP3    H123734   4.036   1.199   0.837
  725TIP3    H223735   4.103   1.178   0.971
  726TIP3   OH223736   5.769   3.599   8.427
  726TIP3    H123737   5.757   3.504   8.420
  726TIP3    H223738   5.770   3.616   8.521
  727TIP3   OH223739   0.046   4.046   0.529
  727TIP3    H123740  -0.002   3.996   0.463
  727TIP3    H223741  -0.018   4.063   0.598
  728TIP3   OH223742   5.418   3.935   0.190
  728TIP3    H123743   5.372   3.992   0.129
  728TIP3    H223744   5.433   3.854   0.141
  729TIP3   OH223745   1.550   2.775   7.222
  729TIP3    H123746   1.642   2.761   7.201
  729TIP3    H223747   1.550   2.839   7.293
  730TIP3   OH223748   6.141   2.059   8.075
  730TIP3    H123749   6.144   2.005   7.997
  730TIP3    H223750   6.167   2.000   8.146
  731TIP3   OH223751   5.978   5.973   8.811
  731TIP3    H123752   5.912   5.929   8.864
  731TIP3    H223753   5.952   5.955   8.721
  732TIP3   OH223754   6.221   3.732   7.608
  732TIP3    H123755   6.205   3.638   7.598
  732TIP3    H223756   6.134   3.770   7.616
  733TIP3   OH223757   2.257   0.250   7.189
  733TIP3    H123758   2.245   0.198   7.268
  733TIP3    H223759   2.194   0.322   7.197
  734TIP3   OH223760   4.772   3.444   8.074
  734TIP3    H123761   4.745   3.468   8.163
  734TIP3    H223762   4.819   3.521   8.042
  735TIP3   OH223763   4.571   6.508   0.342
  735TIP3    H123764   4.522   6.444   0.290
  735TIP3    H223765   4.594   6.577   0.280
  736TIP3   OH223766   1.296   3.413   2.865
  736TIP3    H123767   1.276   3.417   2.772
  736TIP3    H223768   1.348   3.334   2.876
  737TIP3   OH223769   0.250   1.262   0.342
  737TIP3    H123770   0.312   1.189   0.355
  737TIP3    H223771   0.207   1.242   0.259
  738TIP3   OH223772   4.571   1.584   8.098
  738TIP3    H123773   4.639   1.523   8.125
  738TIP3    H223774   4.500   1.529   8.064
  739TIP3   OH223775   2.002   6.617   8.246
  739TIP3    H123776   1.986   6.523   8.238
  739TIP3    H223777   2.061   6.638   8.174
  740TIP3   OH223778   1.189   6.416   2.296
  740TIP3    H123779   1.166   6.493   2.243
  740TIP3    H223780   1.258   6.372   2.245
  741TIP3   OH223781   3.242   0.081   0.649
  741TIP3    H123782   3.265   0.080   0.556
  741TIP3    H223783   3.274  -0.004   0.681
  742TIP3   OH223784   2.347   6.354   1.098
  742TIP3    H123785   2.315   6.427   1.152
  742TIP3    H223786   2.314   6.374   1.010
  743TIP3   OH223787   2.602   5.408   8.136
  743TIP3    H123788   2.546   5.481   8.109
  743TIP3    H223789   2.692   5.440   8.123
  744TIP3   OH223790   1.810   5.578   1.538
  744TIP3    H123791   1.793   5.635   1.463
  744TIP3    H223792   1.803   5.636   1.614
  745TIP3   OH223793   2.612   3.827   7.681
  745TIP3    H123794   2.675   3.768   7.724
  745TIP3    H223795   2.568   3.871   7.754
  746TIP3   OH223796   0.037   3.699   1.535
  746TIP3    H123797   0.078   3.613   1.546
  746TIP3    H223798  -0.018   3.709   1.612
  747TIP3   OH223799   5.439   2.676   1.351
  747TIP3    H123800   5.480   2.758   1.378
  747TIP3    H223801   5.349   2.682   1.383
  748TIP3   OH223802   0.775   6.205   7.112
  748TIP3    H123803   0.756   6.169   7.199
  748TIP3    H223804   0.820   6.287   7.130
  749TIP3   OH223805   5.086   5.040   0.362
  749TIP3    H123806   5.108   5.060   0.453
  749TIP3    H223807   5.140   4.964   0.340
  750TIP3   OH223808   6.263   2.979   1.719
  750TIP3    H123809   6.168   2.974   1.704
  750TIP3    H223810   6.273   3.041   1.792
  751TIP3   OH223811   1.563   0.965   6.969
  751TIP3    H123812   1.537   1.054   6.949
  751TIP3    H223813   1.505   0.938   7.041
  752TIP3   OH223814   4.418   6.239   6.978
  752TIP3    H123815   4.449   6.153   6.950
  752TIP3    H223816   4.342   6.257   6.922
  753TIP3   OH223817   2.532   0.841   6.212
  753TIP3    H123818   2.546   0.922   6.163
  753TIP3    H223819   2.582   0.852   6.293
  754TIP3   OH223820   1.676   2.127   0.088
  754TIP3    H123821   1.663   2.202   0.030
  754TIP3    H223822   1.770   2.127   0.105
  755TIP3   OH223823   5.974   2.266   2.176
  755TIP3    H123824   5.952   2.180   2.142
  755TIP3    H223825   5.897   2.292   2.227
  756TIP3   OH223826   3.958   5.911   7.078
  756TIP3    H123827   4.039   5.956   7.100
  756TIP3    H223828   3.892   5.980   7.075
  757TIP3   OH223829   6.259   6.022   7.721
  757TIP3    H123830   6.308   6.020   7.803
  757TIP3    H223831   6.217   6.108   7.720
  758TIP3   OH223832   6.792   1.304   1.034
  758TIP3    H123833   6.846   1.320   0.956
  758TIP3    H223834   6.735   1.232   1.009
  759TIP3   OH223835   4.467   1.394   7.232
  759TIP3    H123836   4.470   1.355   7.319
  759TIP3    H223837   4.512   1.331   7.176
  760TIP3   OH223838   0.688   6.752   0.391
  760TIP3    H123839   0.750   6.757   0.319
  760TIP3    H223840   0.643   6.668   0.378
  761TIP3   OH223841   4.136   2.330   0.140
  761TIP3    H123842   4.090   2.315   0.057
  761TIP3    H223843   4.198   2.400   0.121
  762TIP3   OH223844   0.634   6.447   0.446
  762TIP3    H123845   0.568   6.428   0.379
  762TIP3    H223846   0.594   6.416   0.527
  763TIP3   OH223847   2.056   3.683   1.428
  763TIP3    H123848   2.106   3.639   1.497
  763TIP3    H223849   2.015   3.757   1.471
  764TIP3   OH223850   3.822   1.488   7.151
  764TIP3    H123851   3.781   1.402   7.162
  764TIP3    H223852   3.749   1.546   7.126
  765TIP3   OH223853   6.700   1.285   6.221
  765TIP3    H123854   6.791   1.311   6.211
  765TIP3    H223855   6.655   1.365   6.249
  766TIP3   OH223856   2.907   4.158   0.260
  766TIP3    H123857   2.857   4.227   0.216
  766TIP3    H223858   2.993   4.161   0.219
  767TIP3   OH223859   3.865   2.562   1.146
  767TIP3    H123860   3.888   2.654   1.136
  767TIP3    H223861   3.784   2.552   1.096
  768TIP3   OH223862   6.107   3.028   6.854
  768TIP3    H123863   6.147   3.017   6.940
  768TIP3    H223864   6.052   3.106   6.863
  769TIP3   OH223865   3.486   2.523   0.505
  769TIP3    H123866   3.438   2.442   0.518
  769TIP3    H223867   3.544   2.505   0.431
  770TIP3   OH223868   4.894   0.739   7.256
  770TIP3    H123869   4.838   0.665   7.278
  770TIP3    H223870   4.915   0.778   7.340
  771TIP3   OH223871   5.129   4.898   8.074
  771TIP3    H123872   5.165   4.811   8.090
  771TIP3    H223873   5.205   4.954   8.062
  772TIP3   OH223874   0.552   6.215   1.057
  772TIP3    H123875   0.572   6.252   0.971
  772TIP3    H223876   0.479   6.267   1.089
  773TIP3   OH223877   1.775   5.928   0.325
  773TIP3    H123878   1.771   5.900   0.417
  773TIP3    H223879   1.684   5.936   0.298
  774TIP3   OH223880   5.382   4.999   7.990
  774TIP3    H123881   5.463   5.017   8.037
  774TIP3    H223882   5.395   4.912   7.952
  775TIP3   OH223883   5.403   4.383   0.912
  775TIP3    H123884   5.313   4.387   0.879
  775TIP3    H223885   5.393   4.382   1.007
  776TIP3   OH223886   5.846   4.583   0.039
  776TIP3    H123887   5.874   4.672   0.020
  776TIP3    H223888   5.762   4.593   0.084
  777TIP3   OH223889   5.641   1.479   6.671
  777TIP3    H123890   5.637   1.562   6.718
  777TIP3    H223891   5.664   1.503   6.581
  778TIP3   OH223892   5.416   0.691   1.651
  778TIP3    H123893   5.489   0.654   1.701
  778TIP3    H223894   5.343   0.631   1.666
  779TIP3   OH223895   1.127   1.741   0.000
  779TIP3    H123896   1.169   1.656  -0.009
  779TIP3    H223897   1.133   1.761   0.094
  780TIP3   OH223898   0.423   2.477   0.352
  780TIP3    H123899   0.406   2.385   0.373
  780TIP3    H223900   0.364   2.526   0.410
  781TIP3   OH223901   5.440   2.967   6.928
  781TIP3    H123902   5.508   2.979   6.994
  781TIP3    H223903   5.462   3.032   6.860
  782TIP3   OH223904   4.461   3.412   7.046
  782TIP3    H123905   4.387   3.472   7.058
  782TIP3    H223906   4.505   3.444   6.967
  783TIP3   OH223907   1.410   0.900   1.763
  783TIP3    H123908   1.446   0.935   1.844
  783TIP3    H223909   1.458   0.818   1.749
  784TIP3   OH223910   6.719   4.966   7.633
  784TIP3    H123911   6.627   4.951   7.655
  784TIP3    H223912   6.735   4.907   7.558
  785TIP3   OH223913   3.978   3.767   1.905
  785TIP3    H123914   3.938   3.735   1.985
  785TIP3    H223915   4.070   3.778   1.926
  786TIP3   OH223916   6.263   6.118   1.576
  786TIP3    H123917   6.228   6.079   1.496
  786TIP3    H223918   6.219   6.203   1.582
  787TIP3   OH223919   6.466   3.995   6.471
  787TIP3    H123920   6.377   4.028   6.481
  787TIP3    H223921   6.477   3.931   6.541
  788TIP3   OH223922   2.212   6.425   8.131
  788TIP3    H123923   2.242   6.449   8.218
  788TIP3    H223924   2.290   6.394   8.086
  789TIP3   OH223925   5.308   4.414   1.173
  789TIP3    H123926   5.353   4.498   1.174
  789TIP3    H223927   5.263   4.410   1.258
  790TIP3   OH223928   2.849   4.922   6.986
  790TIP3    H123929   2.911   4.975   6.935
  790TIP3    H223930   2.905   4.866   7.040
  791TIP3   OH223931   4.128   0.370   8.739
  791TIP3    H123932   4.051   0.358   8.682
  791TIP3    H223933   4.200   0.335   8.688
  792TIP3   OH223934   1.227   0.631   0.995
  792TIP3    H123935   1.305   0.583   0.969
  792TIP3    H223936   1.247   0.665   1.082
  793TIP3   OH223937   2.061   4.134   1.220
  793TIP3    H123938   2.156   4.131   1.212
  793TIP3    H223939   2.031   4.160   1.132
  794TIP3   OH223940   5.560   4.038   8.690
  794TIP3    H123941   5.466   4.049   8.677
  794TIP3    H223942   5.590   3.989   8.614
  795TIP3   OH223943   1.966   3.877   1.570
  795TIP3    H123944   2.005   3.958   1.539
  795TIP3    H223945   1.981   3.876   1.664
  796TIP3   OH223946   6.789   6.135   0.726
  796TIP3    H123947   6.792   6.167   0.816
  796TIP3    H223948   6.854   6.065   0.723
  797TIP3   OH223949   3.888   4.051   0.325
  797TIP3    H123950   3.925   4.109   0.391
  797TIP3    H223951   3.800   4.087   0.308
  798TIP3   OH223952   4.717   6.803   7.800
  798TIP3    H123953   4.769   6.774   7.874
  798TIP3    H223954   4.733   6.737   7.732
  799TIP3   OH223955   1.428   4.779   7.877
  799TIP3    H123956   1.412   4.856   7.932
  799TIP3    H223957   1.488   4.725   7.929
  800TIP3   OH223958   1.224   1.205   6.874
  800TIP3    H123959   1.160   1.204   6.946
  800TIP3    H223960   1.230   1.114   6.846
  801TIP3   OH223961   3.036   0.537   8.318
  801TIP3    H123962   2.961   0.515   8.262
  801TIP3    H223963   3.013   0.502   8.404
  802TIP3   OH223964   1.571   4.085   8.121
  802TIP3    H123965   1.574   4.085   8.026
  802TIP3    H223966   1.499   4.145   8.143
  803TIP3   OH223967   4.904   5.129   7.887
  803TIP3    H123968   4.939   5.123   7.976
  803TIP3    H223969   4.829   5.069   7.886
  804TIP3   OH223970   1.128   0.970   7.744
  804TIP3    H123971   1.114   0.935   7.832
  804TIP3    H223972   1.056   0.933   7.692
  805TIP3   OH223973   5.161   2.965   8.523
  805TIP3    H123974   5.137   2.879   8.559
  805TIP3    H223975   5.188   3.016   8.599
  806TIP3   OH223976   6.019   2.972   1.105
  806TIP3    H123977   6.079   3.002   1.036
  806TIP3    H223978   5.966   3.049   1.126
  807TIP3   OH223979   0.937   1.926   6.053
  807TIP3    H123980   1.021   1.931   6.099
  807TIP3    H223981   0.950   1.859   5.986
  808TIP3   OH223982   1.682   4.694   0.482
  808TIP3    H123983   1.760   4.742   0.507
  808TIP3    H223984   1.613   4.728   0.539
  809TIP3   OH223985   0.787   1.995   1.517
  809TIP3    H123986   0.780   2.080   1.559
  809TIP3    H223987   0.724   1.999   1.444
  810TIP3   OH223988   3.603   5.541   8.169
  810TIP3    H123989   3.583   5.460   8.123
  810TIP3    H223990   3.693   5.561   8.143
  811TIP3   OH223991   3.044   2.520   6.305
  811TIP3    H123992   2.980   2.583   6.337
  811TIP3    H223993   3.022   2.508   6.213
  812TIP3   OH223994   3.844   6.334   7.779
  812TIP3    H123995   3.825   6.332   7.873
  812TIP3    H223996   3.757   6.328   7.738
  813TIP3   OH223997   3.815   1.488   0.534
  813TIP3    H123998   3.903   1.477   0.568
  813TIP3    H223999   3.815   1.573   0.491
  814TIP3   OH224000   3.409   0.755   0.755
  814TIP3    H124001   3.496   0.795   0.762
  814TIP3    H224002   3.349   0.821   0.790
  815TIP3   OH224003   3.319   2.137   8.449
  815TIP3    H124004   3.261   2.064   8.472
  815TIP3    H224005   3.406   2.098   8.442
  816TIP3   OH224006   2.658   1.871   1.131
  816TIP3    H124007   2.563   1.885   1.133
  816TIP3    H224008   2.685   1.878   1.223
  817TIP3   OH224009   3.015   0.583   7.133
  817TIP3    H124010   2.928   0.618   7.148
  817TIP3    H224011   3.023   0.579   7.037
  818TIP3   OH224012   2.056   1.198   8.564
  818TIP3    H124013   2.077   1.145   8.488
  818TIP3    H224014   1.976   1.245   8.540
  819TIP3   OH224015   0.219   2.842   1.657
  819TIP3    H124016   0.307   2.815   1.685
  819TIP3    H224017   0.189   2.770   1.601
  820TIP3   OH224018   2.993   2.144   0.311
  820TIP3    H124019   3.045   2.094   0.373
  820TIP3    H224020   2.923   2.183   0.363
  821TIP3   OH224021   4.373   5.612   7.877
  821TIP3    H124022   4.454   5.633   7.923
  821TIP3    H224023   4.398   5.611   7.785
  822TIP3   OH224024   3.952   4.745   6.348
  822TIP3    H124025   3.935   4.836   6.326
  822TIP3    H224026   4.002   4.749   6.430
  823TIP3   OH224027   0.204   0.522   8.097
  823TIP3    H124028   0.202   0.454   8.164
  823TIP3    H224029   0.276   0.497   8.040
  824TIP3   OH224030   5.535   1.297   7.975
  824TIP3    H124031   5.505   1.232   8.038
  824TIP3    H224032   5.617   1.261   7.939
  825TIP3   OH224033   0.799   6.430   7.466
  825TIP3    H124034   0.777   6.509   7.415
  825TIP3    H224035   0.810   6.462   7.555
  826TIP3   OH224036   5.577   4.647   0.573
  826TIP3    H124037   5.567   4.552   0.574
  826TIP3    H224038   5.619   4.667   0.490
  827TIP3   OH224039   0.373   2.679   8.659
  827TIP3    H124040   0.326   2.681   8.742
  827TIP3    H224041   0.387   2.771   8.637
  828TIP3   OH224042   4.038   1.816   2.650
  828TIP3    H124043   3.969   1.877   2.626
  828TIP3    H224044   3.994   1.732   2.660
  829TIP3   OH224045   3.922   1.661   6.961
  829TIP3    H124046   3.845   1.605   6.975
  829TIP3    H224047   3.997   1.603   6.974
  830TIP3   OH224048   5.714   3.502   7.620
  830TIP3    H124049   5.633   3.546   7.644
  830TIP3    H224050   5.761   3.566   7.566
  831TIP3   OH224051   0.223   3.082   6.259
  831TIP3    H124052   0.169   3.158   6.237
  831TIP3    H224053   0.306   3.099   6.215
  832TIP3   OH224054   6.764   4.765   7.459
  832TIP3    H124055   6.804   4.812   7.386
  832TIP3    H224056   6.812   4.683   7.463
  833TIP3   OH224057   0.030   3.120   7.240
  833TIP3    H124058  -0.043   3.058   7.246
  833TIP3    H224059   0.072   3.115   7.326
  834TIP3   OH224060   5.287   1.062   1.862
  834TIP3    H124061   5.272   1.082   1.770
  834TIP3    H224062   5.383   1.058   1.870
  835TIP3   OH224063   0.037   6.162   0.426
  835TIP3    H124064   0.026   6.154   0.331
  835TIP3    H224065   0.010   6.077   0.461
  836TIP3   OH224066   0.520   4.238   0.460
  836TIP3    H124067   0.500   4.156   0.414
  836TIP3    H224068   0.581   4.211   0.529
  837TIP3   OH224069   3.162   3.211   7.705
  837TIP3    H124070   3.158   3.118   7.683
  837TIP3    H224071   3.180   3.213   7.799
  838TIP3   OH224072   2.246   2.411   0.652
  838TIP3    H124073   2.286   2.414   0.739
  838TIP3    H224074   2.157   2.444   0.665
  839TIP3   OH224075   4.707   3.396   6.730
  839TIP3    H124076   4.758   3.400   6.812
  839TIP3    H224077   4.657   3.477   6.729
  840TIP3   OH224078   6.694   5.279   7.023
  840TIP3    H124079   6.608   5.258   7.058
  840TIP3    H224080   6.705   5.373   7.040
  841TIP3   OH224081   3.766   3.173   7.593
  841TIP3    H124082   3.766   3.085   7.630
  841TIP3    H224083   3.846   3.213   7.627
  842TIP3   OH224084   6.222   0.538   0.779
  842TIP3    H124085   6.165   0.463   0.798
  842TIP3    H224086   6.282   0.541   0.853
  843TIP3   OH224087   0.837   5.208   1.002
  843TIP3    H124088   0.850   5.300   1.026
  843TIP3    H224089   0.921   5.179   0.967
  844TIP3   OH224090   6.404   4.723   7.955
  844TIP3    H124091   6.387   4.629   7.942
  844TIP3    H224092   6.499   4.729   7.966
  845TIP3   OH224093   0.133   4.004   0.058
  845TIP3    H124094   0.121   3.919   0.017
  845TIP3    H224095   0.073   4.062   0.012
  846TIP3   OH224096   1.227   4.989   0.318
  846TIP3    H124097   1.182   5.030   0.392
  846TIP3    H224098   1.174   4.911   0.298
  847TIP3   OH224099   3.028   4.933   1.540
  847TIP3    H124100   3.004   4.936   1.633
  847TIP3    H224101   3.059   4.843   1.527
  848TIP3   OH224102   1.941   2.358   1.267
  848TIP3    H124103   2.001   2.333   1.197
  848TIP3    H224104   1.988   2.426   1.315
  849TIP3   OH224105   0.190   4.514   1.095
  849TIP3    H124106   0.223   4.551   1.177
  849TIP3    H224107   0.111   4.564   1.077
  850TIP3   OH224108   6.563   0.514   1.471
  850TIP3    H124109   6.649   0.537   1.434
  850TIP3    H224110   6.573   0.423   1.500
  851TIP3   OH224111   3.558   4.048   0.555
  851TIP3    H124112   3.602   4.089   0.480
  851TIP3    H224113   3.543   3.958   0.527
  852TIP3   OH224114   4.634   2.875   0.146
  852TIP3    H124115   4.581   2.953   0.160
  852TIP3    H224116   4.622   2.854   0.053
  853TIP3   OH224117   2.969   3.632   8.792
  853TIP3    H124118   2.916   3.602   8.866
  853TIP3    H224119   2.917   3.611   8.715
  854TIP3   OH224120   5.823   2.679   0.216
  854TIP3    H124121   5.903   2.690   0.164
  854TIP3    H224122   5.760   2.738   0.176
  855TIP3   OH224123   4.433   6.041   7.495
  855TIP3    H124124   4.469   6.052   7.407
  855TIP3    H224125   4.354   5.989   7.482
  856TIP3   OH224126   1.577   5.810   1.433
  856TIP3    H124127   1.513   5.881   1.428
  856TIP3    H224128   1.573   5.768   1.348
  857TIP3   OH224129   1.962   3.417   6.588
  857TIP3    H124130   2.013   3.457   6.658
  857TIP3    H224131   2.024   3.410   6.515
  858TIP3   OH224132   2.397   3.464   8.810
  858TIP3    H124133   2.458   3.536   8.793
  858TIP3    H224134   2.452   3.387   8.820
  859TIP3   OH224135   1.807   2.062   7.469
  859TIP3    H124136   1.717   2.041   7.496
  859TIP3    H224137   1.827   2.144   7.516
  860TIP3   OH224138   0.628   5.014   1.087
  860TIP3    H124139   0.650   4.950   1.155
  860TIP3    H224140   0.711   5.058   1.068
  861TIP3   OH224141   1.785   3.683   1.360
  861TIP3    H124142   1.881   3.684   1.364
  861TIP3    H224143   1.760   3.775   1.363
  862TIP3   OH224144   2.372   1.948   1.155
  862TIP3    H124145   2.338   1.971   1.242
  862TIP3    H224146   2.305   1.889   1.118
  863TIP3   OH224147   3.680   5.516   1.714
  863TIP3    H124148   3.636   5.493   1.633
  863TIP3    H224149   3.772   5.492   1.699
  864TIP3   OH224150   2.675   0.930   0.268
  864TIP3    H124151   2.686   0.854   0.326
  864TIP3    H224152   2.763   0.952   0.239
  865TIP3   OH224153   3.708   0.942   1.073
  865TIP3    H124154   3.643   1.011   1.087
  865TIP3    H224155   3.768   0.949   1.147
  866TIP3   OH224156   0.773   4.873   1.283
  866TIP3    H124157   0.822   4.802   1.241
  866TIP3    H224158   0.837   4.943   1.295
  867TIP3   OH224159   5.613   0.654   1.849
  867TIP3    H124160   5.708   0.661   1.848
  867TIP3    H224161   5.595   0.570   1.892
  868TIP3   OH224162   0.445   6.731   0.820
  868TIP3    H124163   0.408   6.814   0.851
  868TIP3    H224164   0.408   6.721   0.732
  869TIP3   OH224165   1.311   1.627   1.452
  869TIP3    H124166   1.292   1.714   1.486
  869TIP3    H224167   1.271   1.626   1.365
  870TIP3   OH224168   4.377   6.668   0.601
  870TIP3    H124169   4.458   6.695   0.645
  870TIP3    H224170   4.373   6.573   0.616
  871TIP3   OH224171   0.201   5.754   6.279
  871TIP3    H124172   0.140   5.827   6.286
  871TIP3    H224173   0.149   5.677   6.304
  872TIP3   OH224174   0.300   2.213   1.543
  872TIP3    H124175   0.260   2.135   1.505
  872TIP3    H224176   0.237   2.242   1.610
  873TIP3   OH224177   5.858   2.553   1.181
  873TIP3    H124178   5.851   2.473   1.129
  873TIP3    H224179   5.826   2.528   1.268
  874TIP3   OH224180   4.676   6.286   7.099
  874TIP3    H124181   4.766   6.259   7.080
  874TIP3    H224182   4.640   6.313   7.014
  875TIP3   OH224183   5.899   2.153   1.407
  875TIP3    H124184   5.846   2.073   1.416
  875TIP3    H224185   5.960   2.150   1.480
  876TIP3   OH224186   0.118   6.780   0.340
  876TIP3    H124187   0.041   6.744   0.383
  876TIP3    H224188   0.083   6.828   0.264
  877TIP3   OH224189   4.029   6.540   2.370
  877TIP3    H124190   3.979   6.511   2.294
  877TIP3    H224191   3.965   6.583   2.426
  878TIP3   OH224192   0.716   5.839   7.693
  878TIP3    H124193   0.739   5.748   7.711
  878TIP3    H224194   0.722   5.847   7.597
  879TIP3   OH224195   5.125   3.031   7.532
  879TIP3    H124196   5.172   3.062   7.454
  879TIP3    H224197   5.042   3.078   7.530
  880TIP3   OH224198   0.836   6.557   1.291
  880TIP3    H124199   0.821   6.642   1.250
  880TIP3    H224200   0.748   6.524   1.309
  881TIP3   OH224201   4.559   0.191   0.214
  881TIP3    H124202   4.572   0.190   0.119
  881TIP3    H224203   4.630   0.245   0.248
  882TIP3   OH224204   4.904   3.293   0.152
  882TIP3    H124205   4.826   3.271   0.203
  882TIP3    H224206   4.940   3.370   0.196
  883TIP3   OH224207   2.859   2.090   8.750
  883TIP3    H124208   2.835   2.168   8.700
  883TIP3    H224209   2.822   2.017   8.700
  884TIP3   OH224210   0.383   1.514   0.337
  884TIP3    H124211   0.323   1.441   0.321
  884TIP3    H224212   0.345   1.587   0.288
  885TIP3   OH224213   2.389   1.054   6.609
  885TIP3    H124214   2.415   1.078   6.520
  885TIP3    H224215   2.456   0.992   6.638
  886TIP3   OH224216   3.301   4.438   0.576
  886TIP3    H124217   3.235   4.392   0.524
  886TIP3    H224218   3.270   4.528   0.582
  887TIP3   OH224219   3.684   1.729   7.460
  887TIP3    H124220   3.669   1.759   7.371
  887TIP3    H224221   3.599   1.694   7.488
  888TIP3   OH224222   4.635   0.986   0.324
  888TIP3    H124223   4.706   0.961   0.265
  888TIP3    H224224   4.655   0.943   0.407
  889TIP3   OH224225   4.319   3.413   8.225
  889TIP3    H124226   4.250   3.477   8.242
  889TIP3    H224227   4.379   3.423   8.299
  890TIP3   OH224228   3.378   1.710   0.527
  890TIP3    H124229   3.296   1.663   0.546
  890TIP3    H224230   3.429   1.649   0.475
  891TIP3   OH224231   2.409   5.017   0.830
  891TIP3    H124232   2.453   5.073   0.894
  891TIP3    H224233   2.367   5.078   0.770
  892TIP3   OH224234   1.579   1.230   6.704
  892TIP3    H124235   1.670   1.258   6.694
  892TIP3    H224236   1.545   1.227   6.614
  893TIP3   OH224237   6.589   4.864   2.485
  893TIP3    H124238   6.618   4.941   2.533
  893TIP3    H224239   6.537   4.815   2.549
  894TIP3   OH224240   4.784   3.418   2.200
  894TIP3    H124241   4.852   3.422   2.267
  894TIP3    H224242   4.781   3.507   2.164
  895TIP3   OH224243   4.110   1.417   7.012
  895TIP3    H124244   4.095   1.355   6.941
  895TIP3    H224245   4.081   1.371   7.091
  896TIP3   OH224246   5.155   2.011   7.234
  896TIP3    H124247   5.223   2.078   7.247
  896TIP3    H224248   5.132   1.983   7.322
  897TIP3   OH224249   5.693   4.611   1.460
  897TIP3    H124250   5.698   4.540   1.523
  897TIP3    H224251   5.778   4.611   1.417
  898TIP3   OH224252   2.449   1.859   0.495
  898TIP3    H124253   2.490   1.938   0.462
  898TIP3    H224254   2.432   1.877   0.588
  899TIP3   OH224255   1.528   2.200   6.187
  899TIP3    H124256   1.454   2.140   6.181
  899TIP3    H224257   1.498   2.270   6.244
  900TIP3   OH224258   4.661   1.867   6.119
  900TIP3    H124259   4.711   1.909   6.189
  900TIP3    H224260   4.572   1.861   6.154
  901TIP3   OH224261   2.004   5.514   0.798
  901TIP3    H124262   1.981   5.424   0.775
  901TIP3    H224263   2.096   5.509   0.823
  902TIP3   OH224264   3.124   2.369   8.150
  902TIP3    H124265   3.049   2.425   8.169
  902TIP3    H224266   3.197   2.431   8.140
  903TIP3   OH224267   4.625   6.477   8.825
  903TIP3    H124268   4.590   6.552   8.874
  903TIP3    H224269   4.670   6.424   8.891
  904TIP3   OH224270   1.431   4.138   6.993
  904TIP3    H124271   1.415   4.233   6.993
  904TIP3    H224272   1.454   4.118   6.902
  905TIP3   OH224273   2.623   2.572   7.881
  905TIP3    H124274   2.656   2.511   7.947
  905TIP3    H224275   2.535   2.539   7.861
  906TIP3   OH224276   5.432   2.977   2.217
  906TIP3    H124277   5.343   2.960   2.248
  906TIP3    H224278   5.429   3.066   2.182
  907TIP3   OH224279   0.303   6.767   1.845
  907TIP3    H124280   0.359   6.840   1.874
  907TIP3    H224281   0.330   6.694   1.900
  908TIP3   OH224282   2.307   6.118   1.655
  908TIP3    H124283   2.400   6.130   1.634
  908TIP3    H224284   2.293   6.171   1.733
  909TIP3   OH224285   4.651   0.838   1.841
  909TIP3    H124286   4.663   0.746   1.862
  909TIP3    H224287   4.726   0.882   1.881
  910TIP3   OH224288   3.138   5.312   6.721
  910TIP3    H124289   3.230   5.293   6.740
  910TIP3    H224290   3.089   5.243   6.765
  911TIP3   OH224291   6.448   4.654   2.541
  911TIP3    H124292   6.451   4.606   2.458
  911TIP3    H224293   6.455   4.586   2.608
  912TIP3   OH224294   5.820   2.409   1.425
  912TIP3    H124295   5.850   2.319   1.411
  912TIP3    H224296   5.876   2.442   1.495
  913TIP3   OH224297   1.041   2.025   1.724
  913TIP3    H124298   1.013   2.115   1.744
  913TIP3    H224299   0.962   1.973   1.731
  914TIP3   OH224300   4.069   1.772   1.184
  914TIP3    H124301   4.110   1.816   1.259
  914TIP3    H224302   3.993   1.729   1.221
  915TIP3   OH224303   1.216   5.456   7.683
  915TIP3    H124304   1.260   5.450   7.598
  915TIP3    H224305   1.145   5.518   7.668
  916TIP3   OH224306   1.615   0.613   6.976
  916TIP3    H124307   1.543   0.584   6.920
  916TIP3    H224308   1.670   0.535   6.986
  917TIP3   OH224309   1.945   1.902   1.342
  917TIP3    H124310   2.005   1.944   1.280
  917TIP3    H224311   1.993   1.826   1.374
  918TIP3   OH224312   0.192   6.790   7.945
  918TIP3    H124313   0.118   6.765   8.000
  918TIP3    H224314   0.238   6.708   7.926
  919TIP3   OH224315   6.230   5.038   0.964
  919TIP3    H124316   6.146   5.055   0.923
  919TIP3    H224317   6.290   5.021   0.891
  920TIP3   OH224318   5.682   0.952   6.952
  920TIP3    H124319   5.655   1.044   6.958
  920TIP3    H224320   5.686   0.935   6.858
  921TIP3   OH224321   2.979   4.374   7.950
  921TIP3    H124322   3.017   4.332   8.028
  921TIP3    H224323   2.893   4.403   7.979
  922TIP3   OH224324   1.769   4.030   8.557
  922TIP3    H124325   1.834   4.083   8.511
  922TIP3    H224326   1.684   4.066   8.530
  923TIP3   OH224327   3.821   5.569   0.231
  923TIP3    H124328   3.913   5.570   0.256
  923TIP3    H224329   3.792   5.660   0.240
  924TIP3   OH224330   3.231   1.650   0.987
  924TIP3    H124331   3.237   1.587   0.915
  924TIP3    H224332   3.182   1.724   0.950
  925TIP3   OH224333   5.039   1.814   7.736
  925TIP3    H124334   5.085   1.793   7.817
  925TIP3    H224335   4.978   1.884   7.760
  926TIP3   OH224336   4.224   2.657   0.450
  926TIP3    H124337   4.181   2.707   0.380
  926TIP3    H224338   4.304   2.623   0.409
  927TIP3   OH224339   3.707   3.651   6.222
  927TIP3    H124340   3.768   3.590   6.265
  927TIP3    H224341   3.657   3.689   6.294
  928TIP3   OH224342   4.157   4.913   8.181
  928TIP3    H124343   4.240   4.956   8.201
  928TIP3    H224344   4.125   4.881   8.265
  929TIP3   OH224345   2.500   3.316   7.186
  929TIP3    H124346   2.422   3.272   7.220
  929TIP3    H224347   2.473   3.350   7.100
  930TIP3   OH224348   4.502   0.049   7.977
  930TIP3    H124349   4.581   0.054   7.922
  930TIP3    H224350   4.494  -0.043   7.999
  931TIP3   OH224351   2.485   5.820   7.110
  931TIP3    H124352   2.511   5.729   7.126
  931TIP3    H224353   2.530   5.845   7.029
  932TIP3   OH224354   2.325   2.218   6.146
  932TIP3    H124355   2.363   2.251   6.227
  932TIP3    H224356   2.400   2.187   6.094
  933TIP3   OH224357   1.501   0.306   1.159
  933TIP3    H124358   1.434   0.368   1.188
  933TIP3    H224359   1.455   0.222   1.155
  934TIP3   OH224360   2.168   5.633   8.184
  934TIP3    H124361   2.199   5.614   8.273
  934TIP3    H224362   2.219   5.709   8.157
  935TIP3   OH224363   6.343   4.397   8.353
  935TIP3    H124364   6.423   4.448   8.367
  935TIP3    H224365   6.272   4.461   8.362
  936TIP3   OH224366   2.624   1.299   0.924
  936TIP3    H124367   2.645   1.277   1.015
  936TIP3    H224368   2.700   1.349   0.894
  937TIP3   OH224369   6.448   4.019   7.187
  937TIP3    H124370   6.423   4.016   7.279
  937TIP3    H224371   6.389   3.957   7.144
  938TIP3   OH224372   2.444   4.105   7.655
  938TIP3    H124373   2.479   4.191   7.632
  938TIP3    H224374   2.499   4.076   7.727
  939TIP3   OH224375   4.966   5.016   7.098
  939TIP3    H124376   4.881   4.971   7.096
  939TIP3    H224377   4.945   5.107   7.119
  940TIP3   OH224378   3.772   4.231   7.605
  940TIP3    H124379   3.838   4.299   7.593
  940TIP3    H224380   3.811   4.152   7.568
  941TIP3   OH224381   5.324   5.012   1.231
  941TIP3    H124382   5.359   4.982   1.147
  941TIP3    H224383   5.349   5.104   1.236
  942TIP3   OH224384   1.170   0.152   0.967
  942TIP3    H124385   1.200   0.150   0.876
  942TIP3    H224386   1.086   0.199   0.962
  943TIP3   OH224387   3.831   2.577   0.001
  943TIP3    H124388   3.741   2.596   0.028
  943TIP3    H224389   3.835   2.482  -0.003
  944TIP3   OH224390   5.760   3.992   2.098
  944TIP3    H124391   5.797   3.920   2.047
  944TIP3    H224392   5.825   4.062   2.091
  945TIP3   OH224393   5.649   4.914   7.343
  945TIP3    H124394   5.648   4.879   7.254
  945TIP3    H224395   5.682   5.003   7.334
  946TIP3   OH224396   3.121   3.209   7.276
  946TIP3    H124397   3.073   3.131   7.306
  946TIP3    H224398   3.057   3.280   7.281
  947TIP3   OH224399   1.948   0.181   2.072
  947TIP3    H124400   1.968   0.118   2.003
  947TIP3    H224401   1.950   0.130   2.152
  948TIP3   OH224402   0.891   6.763   0.908
  948TIP3    H124403   0.950   6.720   0.845
  948TIP3    H224404   0.921   6.854   0.911
  949TIP3   OH224405   2.029   6.649   7.120
  949TIP3    H124406   2.018   6.669   7.027
  949TIP3    H224407   2.113   6.603   7.124
  950TIP3   OH224408   4.648   6.059   0.195
  950TIP3    H124409   4.599   6.132   0.232
  950TIP3    H224410   4.697   6.023   0.269
  951TIP3   OH224411   4.150   5.239   8.123
  951TIP3    H124412   4.136   5.305   8.056
  951TIP3    H224413   4.073   5.182   8.118
  952TIP3   OH224414   3.136   0.351   2.625
  952TIP3    H124415   3.044   0.328   2.609
  952TIP3    H224416   3.133   0.442   2.653
  953TIP3   OH224417   0.423   4.141   8.822
  953TIP3    H124418   0.345   4.118   8.873
  953TIP3    H224419   0.491   4.083   8.854
  954TIP3   OH224420   3.794   4.582   0.520
  954TIP3    H124421   3.701   4.563   0.526
  954TIP3    H224422   3.810   4.647   0.588
  955TIP3   OH224423   6.224   5.163   7.284
  955TIP3    H124424   6.199   5.255   7.292
  955TIP3    H224425   6.177   5.133   7.206
  956TIP3   OH224426   3.962   0.486   0.979
  956TIP3    H124427   3.981   0.424   1.049
  956TIP3    H224428   4.012   0.565   1.002
  957TIP3   OH224429   4.993   2.280   7.134
  957TIP3    H124430   4.908   2.249   7.166
  957TIP3    H224431   5.052   2.205   7.148
  958TIP3   OH224432   6.776   0.523   7.718
  958TIP3    H124433   6.802   0.586   7.785
  958TIP3    H224434   6.757   0.577   7.641
  959TIP3   OH224435   2.689   0.692   0.401
  959TIP3    H124436   2.634   0.625   0.441
  959TIP3    H224437   2.777   0.673   0.434
  960TIP3   OH224438   2.190   6.137   1.175
  960TIP3    H124439   2.253   6.068   1.153
  960TIP3    H224440   2.236   6.219   1.156
  961TIP3   OH224441   0.282   3.584   1.325
  961TIP3    H124442   0.233   3.545   1.398
  961TIP3    H224443   0.373   3.585   1.356
  962TIP3   OH224444   1.456   3.944   8.715
  962TIP3    H124445   1.382   3.986   8.759
  962TIP3    H224446   1.453   3.977   8.625
  963TIP3   OH224447   5.220   0.005   8.817
  963TIP3    H124448   5.267  -0.036   8.745
  963TIP3    H224449   5.146   0.050   8.776
  964TIP3   OH224450   6.779   2.311   0.113
  964TIP3    H124451   6.716   2.381   0.094
  964TIP3    H224452   6.838   2.348   0.178
  965TIP3   OH224453   3.540   5.049   7.301
  965TIP3    H124454   3.615   5.002   7.336
  965TIP3    H224455   3.469   4.985   7.301
  966TIP3   OH224456   3.525   5.482   1.405
  966TIP3    H124457   3.518   5.387   1.403
  966TIP3    H224458   3.443   5.513   1.366
  967TIP3   OH224459   1.670   5.587   8.655
  967TIP3    H124460   1.716   5.633   8.584
  967TIP3    H224461   1.634   5.508   8.613
  968TIP3   OH224462   1.693   4.418   7.887
  968TIP3    H124463   1.692   4.451   7.976
  968TIP3    H224464   1.675   4.324   7.896
  969TIP3   OH224465   6.321   0.901   7.060
  969TIP3    H124466   6.366   0.859   6.987
  969TIP3    H224467   6.228   0.895   7.038
  970TIP3   OH224468   2.785   4.870   7.939
  970TIP3    H124469   2.704   4.820   7.945
  970TIP3    H224470   2.772   4.945   7.997
  971TIP3   OH224471   6.666   2.882   7.331
  971TIP3    H124472   6.574   2.859   7.343
  971TIP3    H224473   6.700   2.891   7.420
  972TIP3   OH224474   3.520   1.437   7.239
  972TIP3    H124475   3.472   1.365   7.279
  972TIP3    H224476   3.458   1.477   7.179
  973TIP3   OH224477   2.506   4.914   6.570
  973TIP3    H124478   2.566   4.944   6.501
  973TIP3    H224479   2.524   4.972   6.644
  974TIP3   OH224480   0.709   2.834   6.697
  974TIP3    H124481   0.736   2.745   6.673
  974TIP3    H224482   0.790   2.877   6.726
  975TIP3   OH224483   6.651   5.832   1.101
  975TIP3    H124484   6.592   5.905   1.082
  975TIP3    H224485   6.737   5.873   1.113
  976TIP3   OH224486   0.952   5.583   0.751
  976TIP3    H124487   0.953   5.524   0.826
  976TIP3    H224488   1.039   5.575   0.712
  977TIP3   OH224489   0.593   4.061   0.694
  977TIP3    H124490   0.532   4.116   0.744
  977TIP3    H224491   0.560   3.972   0.706
  978TIP3   OH224492   0.914   2.215   8.716
  978TIP3    H124493   0.853   2.279   8.678
  978TIP3    H224494   0.865   2.177   8.789
  979TIP3   OH224495   3.554   6.490   0.961
  979TIP3    H124496   3.504   6.443   0.894
  979TIP3    H224497   3.593   6.563   0.914
  980TIP3   OH224498   2.606   1.607   8.649
  980TIP3    H124499   2.546   1.533   8.638
  980TIP3    H224500   2.645   1.618   8.562
  981TIP3   OH224501   0.729   0.388   8.796
  981TIP3    H124502   0.662   0.449   8.827
  981TIP3    H224503   0.793   0.444   8.752
  982TIP3   OH224504   2.083   4.910   0.921
  982TIP3    H124505   2.152   4.967   0.888
  982TIP3    H224506   2.051   4.954   1.000
  983TIP3   OH224507   2.378   5.130   1.341
  983TIP3    H124508   2.287   5.133   1.372
  983TIP3    H224509   2.422   5.072   1.404
  984TIP3   OH224510   5.560   4.059   1.891
  984TIP3    H124511   5.577   4.130   1.953
  984TIP3    H224512   5.572   4.098   1.805
  985TIP3   OH224513   0.047   3.314   0.347
  985TIP3    H124514   0.041   3.312   0.252
  985TIP3    H224515   0.105   3.242   0.369
  986TIP3   OH224516   0.317   3.586   6.834
  986TIP3    H124517   0.348   3.509   6.786
  986TIP3    H224518   0.228   3.600   6.801
  987TIP3   OH224519   0.451   1.507   8.417
  987TIP3    H124520   0.359   1.517   8.391
  987TIP3    H224521   0.494   1.471   8.340
  988TIP3   OH224522   1.349   1.634   0.342
  988TIP3    H124523   1.415   1.667   0.281
  988TIP3    H224524   1.357   1.539   0.338
  989TIP3   OH224525   5.787   5.702   7.084
  989TIP3    H124526   5.816   5.612   7.070
  989TIP3    H224527   5.841   5.755   7.025
  990TIP3   OH224528   5.019   4.706   0.517
  990TIP3    H124529   4.936   4.677   0.555
  990TIP3    H224530   5.074   4.725   0.594
  991TIP3   OH224531   5.434   2.408   6.778
  991TIP3    H124532   5.488   2.347   6.828
  991TIP3    H224533   5.387   2.459   6.844
  992TIP3   OH224534   5.096   3.611   1.296
  992TIP3    H124535   5.124   3.533   1.248
  992TIP3    H224536   5.173   3.668   1.296
  993TIP3   OH224537   2.617   3.516   8.393
  993TIP3    H124538   2.659   3.512   8.307
  993TIP3    H224539   2.547   3.580   8.383
  994TIP3   OH224540   4.211   0.287   7.114
  994TIP3    H124541   4.168   0.248   7.190
  994TIP3    H224542   4.301   0.304   7.143
  995TIP3   OH224543   1.346   3.316   0.374
  995TIP3    H124544   1.405   3.391   0.381
  995TIP3    H224545   1.399   3.241   0.402
  996TIP3   OH224546   3.629   6.453   1.714
  996TIP3    H124547   3.629   6.548   1.723
  996TIP3    H224548   3.652   6.421   1.801
  997TIP3   OH224549   4.699   1.862   7.643
  997TIP3    H124550   4.730   1.939   7.691
  997TIP3    H224551   4.733   1.787   7.692
  998TIP3   OH224552   0.472   0.622   8.156
  998TIP3    H124553   0.522   0.621   8.074
  998TIP3    H224554   0.381   0.611   8.128
  999TIP3   OH224555   4.835   1.653   1.705
  999TIP3    H124556   4.783   1.631   1.627
  999TIP3    H224557   4.870   1.740   1.687
 1000TIP3   OH224558   5.549   2.057   7.387
 1000TIP3    H124559   5.528   2.130   7.446
 1000TIP3    H224560   5.514   1.980   7.431
 1001TIP3   OH224561   2.252   0.668   8.414
 1001TIP3    H124562   2.168   0.668   8.460
 1001TIP3    H224563   2.299   0.593   8.450
 1002TIP3   OH224564   5.475   5.193   8.307
 1002TIP3    H124565   5.529   5.147   8.243
 1002TIP3    H224566   5.505   5.161   8.392
 1003TIP3   OH224567   1.470   6.437   7.589
 1003TIP3    H124568   1.431   6.455   7.503
 1003TIP3    H224569   1.507   6.349   7.580
 1004TIP3   OH224570   4.071   2.988   0.598
 1004TIP3    H124571   4.011   3.052   0.560
 1004TIP3    H224572   4.112   2.946   0.522
 1005TIP3   OH224573   2.260   3.101   0.601
 1005TIP3    H124574   2.259   3.005   0.591
 1005TIP3    H224575   2.346   3.127   0.567
 1006TIP3   OH224576   0.750   1.202   1.042
 1006TIP3    H124577   0.673   1.163   1.001
 1006TIP3    H224578   0.714   1.258   1.111
 1007TIP3   OH224579   4.690   6.436   6.038
 1007TIP3    H124580   4.695   6.358   6.094
 1007TIP3    H224581   4.598   6.463   6.043
 1008TIP3   OH224582   6.544   2.107   8.807
 1008TIP3    H124583   6.575   2.146   8.889
 1008TIP3    H224584   6.467   2.057   8.832
 1009TIP3   OH224585   0.889   2.508   7.259
 1009TIP3    H124586   0.806   2.527   7.302
 1009TIP3    H224587   0.864   2.469   7.175
 1010TIP3   OH224588   3.591   2.401   7.921
 1010TIP3    H124589   3.615   2.387   7.830
 1010TIP3    H224590   3.495   2.405   7.921
 1011TIP3   OH224591   3.357   3.083   7.895
 1011TIP3    H124592   3.356   3.053   7.804
 1011TIP3    H224593   3.403   3.167   7.892
 1012TIP3   OH224594   5.309   0.265   6.977
 1012TIP3    H124595   5.226   0.241   7.017
 1012TIP3    H224596   5.290   0.345   6.928
 1013TIP3   OH224597   4.455   2.911   2.473
 1013TIP3    H124598   4.384   2.880   2.529
 1013TIP3    H224599   4.526   2.932   2.534
 1014TIP3   OH224600   0.440   2.130   8.796
 1014TIP3    H124601   0.362   2.181   8.776
 1014TIP3    H224602   0.425   2.046   8.753
 1015TIP3   OH224603   6.759   4.871   8.126
 1015TIP3    H124604   6.746   4.790   8.176
 1015TIP3    H224605   6.695   4.932   8.161
 1016TIP3   OH224606   2.345   1.991   8.826
 1016TIP3    H124607   2.315   1.975   8.916
 1016TIP3    H224608   2.415   1.927   8.814
 1017TIP3   OH224609   5.674   1.648   1.153
 1017TIP3    H124610   5.717   1.619   1.234
 1017TIP3    H224611   5.717   1.731   1.133
 1018TIP3   OH224612   5.120   1.801   8.423
 1018TIP3    H124613   5.168   1.719   8.409
 1018TIP3    H224614   5.126   1.817   8.517
 1019TIP3   OH224615   2.959   6.220   8.671
 1019TIP3    H124616   2.917   6.134   8.671
 1019TIP3    H224617   3.025   6.215   8.602
 1020TIP3   OH224618   2.407   3.167   1.688
 1020TIP3    H124619   2.462   3.144   1.764
 1020TIP3    H224620   2.439   3.253   1.660
 1021TIP3   OH224621   0.193   0.280   7.870
 1021TIP3    H124622   0.138   0.255   7.796
 1021TIP3    H224623   0.192   0.204   7.928
 1022TIP3   OH224624   1.486   4.395   7.147
 1022TIP3    H124625   1.580   4.380   7.156
 1022TIP3    H224626   1.472   4.485   7.176
 1023TIP3   OH224627   5.706   3.585   6.691
 1023TIP3    H124628   5.794   3.608   6.722
 1023TIP3    H224629   5.702   3.619   6.602
 1024TIP3   OH224630   5.138   4.814   1.248
 1024TIP3    H124631   5.155   4.908   1.252
 1024TIP3    H224632   5.210   4.774   1.297
 1025TIP3   OH224633   2.778   1.841   8.607
 1025TIP3    H124634   2.867   1.815   8.583
 1025TIP3    H224635   2.757   1.788   8.684
 1026TIP3   OH224636   6.002   3.305   8.733
 1026TIP3    H124637   5.957   3.389   8.731
 1026TIP3    H224638   5.934   3.242   8.758
 1027TIP3   OH224639   0.289   3.533   0.331
 1027TIP3    H124640   0.243   3.559   0.411
 1027TIP3    H224641   0.368   3.489   0.361
 1028TIP3   OH224642   4.810   5.094   8.268
 1028TIP3    H124643   4.784   5.183   8.244
 1028TIP3    H224644   4.888   5.106   8.323
 1029TIP3   OH224645   0.324   1.736   0.846
 1029TIP3    H124646   0.391   1.693   0.793
 1029TIP3    H224647   0.327   1.691   0.931
 1030TIP3   OH224648   4.785   1.204   8.653
 1030TIP3    H124649   4.766   1.214   8.747
 1030TIP3    H224650   4.875   1.235   8.643
 1031TIP3   OH224651   4.813   2.150   0.784
 1031TIP3    H124652   4.846   2.137   0.873
 1031TIP3    H224653   4.808   2.245   0.774
 1032TIP3   OH224654   4.153   0.020   0.547
 1032TIP3    H124655   4.158   0.079   0.623
 1032TIP3    H224656   4.226  -0.041   0.559
 1033TIP3   OH224657   5.247   6.102   0.877
 1033TIP3    H124658   5.279   6.020   0.839
 1033TIP3    H224659   5.285   6.104   0.965
 1034TIP3   OH224660   2.144   6.676   8.005
 1034TIP3    H124661   2.226   6.691   7.958
 1034TIP3    H224662   2.101   6.605   7.957
 1035TIP3   OH224663   4.799   0.770   0.824
 1035TIP3    H124664   4.867   0.757   0.758
 1035TIP3    H224665   4.847   0.782   0.906
 1036TIP3   OH224666   1.146   2.209   0.002
 1036TIP3    H124667   1.059   2.205  -0.038
 1036TIP3    H224668   1.190   2.131  -0.028
 1037TIP3   OH224669   0.923   0.255   0.938
 1037TIP3    H124670   0.879   0.302   0.867
 1037TIP3    H224671   0.945   0.323   1.001
 1038TIP3   OH224672   3.264   1.192   0.711
 1038TIP3    H124673   3.351   1.202   0.748
 1038TIP3    H224674   3.222   1.277   0.725
 1039TIP3   OH224675   4.901   1.029   8.059
 1039TIP3    H124676   4.907   0.966   8.131
 1039TIP3    H224677   4.986   1.073   8.060
 1040TIP3   OH224678   3.381   5.276   6.433
 1040TIP3    H124679   3.362   5.220   6.509
 1040TIP3    H224680   3.452   5.333   6.463
 1041TIP3   OH224681   0.353   6.163   7.242
 1041TIP3    H124682   0.431   6.144   7.189
 1041TIP3    H224683   0.375   6.131   7.329
 1042TIP3   OH224684   1.074   0.828   0.503
 1042TIP3    H124685   1.032   0.745   0.479
 1042TIP3    H224686   1.117   0.809   0.586
 1043TIP3   OH224687   2.883   4.110   6.589
 1043TIP3    H124688   2.872   4.045   6.659
 1043TIP3    H224689   2.963   4.084   6.544
 1044TIP3   OH224690   2.184   2.972   0.105
 1044TIP3    H124691   2.176   3.066   0.085
 1044TIP3    H224692   2.102   2.951   0.150
 1045TIP3   OH224693   0.208   2.354   7.248
 1045TIP3    H124694   0.145   2.413   7.291
 1045TIP3    H224695   0.293   2.390   7.272
 1046TIP3   OH224696   6.659   3.848   8.502
 1046TIP3    H124697   6.751   3.820   8.502
 1046TIP3    H224698   6.631   3.837   8.592
 1047TIP3   OH224699   0.210   6.506   0.004
 1047TIP3    H124700   0.130   6.524   0.054
 1047TIP3    H224701   0.207   6.567  -0.069
 1048TIP3   OH224702   6.632   1.938   0.796
 1048TIP3    H124703   6.694   1.970   0.861
 1048TIP3    H224704   6.623   2.010   0.734
 1049TIP3   OH224705   4.914   1.618   0.815
 1049TIP3    H124706   4.929   1.640   0.907
 1049TIP3    H224707   4.847   1.681   0.787
 1050TIP3   OH224708   6.795   2.727   8.239
 1050TIP3    H124709   6.843   2.692   8.314
 1050TIP3    H224710   6.829   2.678   8.164
 1051TIP3   OH224711   4.711   4.253   8.510
 1051TIP3    H124712   4.679   4.342   8.528
 1051TIP3    H224713   4.693   4.205   8.591
 1052TIP3   OH224714   0.980   3.796   6.162
 1052TIP3    H124715   1.053   3.830   6.214
 1052TIP3    H224716   0.910   3.781   6.225
 1053TIP3   OH224717   4.315   1.434   8.241
 1053TIP3    H124718   4.232   1.426   8.194
 1053TIP3    H224719   4.295   1.491   8.316
 1054TIP3   OH224720   0.246   5.110   0.029
 1054TIP3    H124721   0.203   5.033   0.066
 1054TIP3    H224722   0.339   5.092   0.036
 1055TIP3   OH224723   5.419   6.703   1.515
 1055TIP3    H124724   5.354   6.770   1.494
 1055TIP3    H224725   5.443   6.720   1.606
 1056TIP3   OH224726   4.266   5.167   7.521
 1056TIP3    H124727   4.262   5.181   7.426
 1056TIP3    H224728   4.355   5.134   7.536
 1057TIP3   OH224729   2.398   3.280   8.316
 1057TIP3    H124730   2.351   3.339   8.257
 1057TIP3    H224731   2.368   3.305   8.403
 1058TIP3   OH224732   4.732   0.519   7.280
 1058TIP3    H124733   4.713   0.425   7.276
 1058TIP3    H224734   4.683   0.550   7.356
 1059TIP3   OH224735   2.205   1.347   7.143
 1059TIP3    H124736   2.250   1.307   7.218
 1059TIP3    H224737   2.245   1.433   7.134
 1060TIP3   OH224738   2.014   5.969   8.166
 1060TIP3    H124739   2.080   6.039   8.170
 1060TIP3    H224740   1.933   6.011   8.197
 1061TIP3   OH224741   1.648   5.725   8.419
 1061TIP3    H124742   1.659   5.820   8.409
 1061TIP3    H224743   1.553   5.713   8.419
 1062TIP3   OH224744   5.909   6.524   8.602
 1062TIP3    H124745   5.978   6.588   8.586
 1062TIP3    H224746   5.867   6.512   8.516
 1063TIP3   OH224747   0.208   6.447   1.455
 1063TIP3    H124748   0.118   6.461   1.485
 1063TIP3    H224749   0.240   6.535   1.436
 1064TIP3   OH224750   3.600   4.892   8.096
 1064TIP3    H124751   3.545   4.850   8.030
 1064TIP3    H224752   3.671   4.933   8.046
 1065TIP3   OH224753   3.932   0.042   8.788
 1065TIP3    H124754   3.856   0.088   8.825
 1065TIP3    H224755   4.002   0.057   8.850
 1066TIP3   OH224756   5.249   0.991   7.175
 1066TIP3    H124757   5.221   1.029   7.259
 1066TIP3    H224758   5.344   0.999   7.176
 1067TIP3   OH224759   6.490   5.691   2.188
 1067TIP3    H124760   6.454   5.764   2.239
 1067TIP3    H224761   6.564   5.660   2.239
 1068TIP3   OH224762   5.244   3.605   1.011
 1068TIP3    H124763   5.182   3.660   0.964
 1068TIP3    H224764   5.312   3.665   1.042
 1069TIP3   OH224765   4.274   6.337   8.045
 1069TIP3    H124766   4.340   6.286   7.998
 1069TIP3    H224767   4.241   6.277   8.112
 1070TIP3   OH224768   4.336   0.207   0.363
 1070TIP3    H124769   4.411   0.219   0.304
 1070TIP3    H224770   4.373   0.217   0.451
 1071TIP3   OH224771   0.020   6.707   1.818
 1071TIP3    H124772  -0.007   6.631   1.870
 1071TIP3    H224773   0.115   6.710   1.826
 1072TIP3   OH224774   1.484   1.587   7.214
 1072TIP3    H124775   1.553   1.590   7.280
 1072TIP3    H224776   1.405   1.614   7.261
 1073TIP3   OH224777   5.718   6.403   8.016
 1073TIP3    H124778   5.673   6.374   7.937
 1073TIP3    H224779   5.770   6.327   8.043
 1074TIP3   OH224780   1.159   3.268   6.662
 1074TIP3    H124781   1.097   3.252   6.734
 1074TIP3    H224782   1.199   3.182   6.647
 1075TIP3   OH224783   2.129   5.492   7.041
 1075TIP3    H124784   2.034   5.481   7.045
 1075TIP3    H224785   2.157   5.489   7.132
 1076TIP3   OH224786   2.875   1.612   0.405
 1076TIP3    H124787   2.815   1.574   0.468
 1076TIP3    H224788   2.835   1.696   0.382
 1077TIP3   OH224789   3.327   1.618   8.092
 1077TIP3    H124790   3.235   1.600   8.072
 1077TIP3    H224791   3.333   1.714   8.089
 1078TIP3   OH224792   2.718   6.331   8.447
 1078TIP3    H124793   2.756   6.244   8.458
 1078TIP3    H224794   2.775   6.389   8.497
 1079TIP3   OH224795   1.028   0.735   8.300
 1079TIP3    H124796   0.942   0.742   8.258
 1079TIP3    H224797   1.040   0.641   8.316
 1080TIP3   OH224798   0.998   3.319   8.279
 1080TIP3    H124799   0.967   3.409   8.271
 1080TIP3    H224800   1.030   3.313   8.369
 1081TIP3   OH224801   1.245   0.969   2.224
 1081TIP3    H124802   1.278   1.037   2.166
 1081TIP3    H224803   1.171   0.931   2.177
 1082TIP3   OH224804   3.186   2.827   0.641
 1082TIP3    H124805   3.251   2.851   0.708
 1082TIP3    H224806   3.237   2.815   0.561
 1083TIP3   OH224807   1.002   0.491   1.351
 1083TIP3    H124808   0.919   0.536   1.362
 1083TIP3    H224809   0.993   0.409   1.399
 1084TIP3   OH224810   1.975   5.022   1.130
 1084TIP3    H124811   2.035   5.092   1.102
 1084TIP3    H224812   1.899   5.069   1.165
 1085TIP3   OH224813   0.961   4.644   8.136
 1085TIP3    H124814   0.871   4.650   8.169
 1085TIP3    H224815   1.016   4.665   8.211
 1086TIP3   OH224816   6.766   1.330   7.780
 1086TIP3    H124817   6.835   1.377   7.826
 1086TIP3    H224818   6.737   1.390   7.711
 1087TIP3   OH224819   5.218   3.343   7.739
 1087TIP3    H124820   5.136   3.332   7.787
 1087TIP3    H224821   5.284   3.299   7.793
 1088TIP3   OH224822   6.121   0.595   8.498
 1088TIP3    H124823   6.216   0.606   8.488
 1088TIP3    H224824   6.112   0.545   8.579
 1089TIP3   OH224825   1.348   2.604   7.413
 1089TIP3    H124826   1.393   2.569   7.490
 1089TIP3    H224827   1.261   2.565   7.416
 1090TIP3   OH224828   4.522   4.837   7.018
 1090TIP3    H124829   4.504   4.748   6.988
 1090TIP3    H224830   4.442   4.886   6.998
 1091TIP3   OH224831   0.785   5.195   8.658
 1091TIP3    H124832   0.881   5.193   8.655
 1091TIP3    H224833   0.758   5.211   8.568
 1092TIP3   OH224834   0.365   0.479   7.895
 1092TIP3    H124835   0.295   0.416   7.883
 1092TIP3    H224836   0.403   0.491   7.808
 1093TIP3   OH224837   3.738   6.381   0.622
 1093TIP3    H124838   3.744   6.314   0.554
 1093TIP3    H224839   3.734   6.464   0.574
 1094TIP3   OH224840   6.310   3.822   7.861
 1094TIP3    H124841   6.327   3.915   7.875
 1094TIP3    H224842   6.307   3.813   7.766
 1095TIP3   OH224843   1.777   4.137   6.689
 1095TIP3    H124844   1.812   4.080   6.620
 1095TIP3    H224845   1.825   4.219   6.679
 1096TIP3   OH224846   3.765   5.509   0.949
 1096TIP3    H124847   3.735   5.468   0.868
 1096TIP3    H224848   3.698   5.486   1.013
 1097TIP3   OH224849   0.976   2.756   1.053
 1097TIP3    H124850   0.958   2.750   1.147
 1097TIP3    H224851   0.910   2.817   1.020
 1098TIP3   OH224852   6.181   5.364   7.788
 1098TIP3    H124853   6.243   5.368   7.716
 1098TIP3    H224854   6.216   5.296   7.846
 1099TIP3   OH224855   0.832   3.740   1.542
 1099TIP3    H124856   0.818   3.687   1.463
 1099TIP3    H224857   0.758   3.718   1.598
 1100TIP3   OH224858   0.697   0.318   7.938
 1100TIP3    H124859   0.778   0.278   7.907
 1100TIP3    H224860   0.628   0.258   7.908
 1101TIP3   OH224861   3.064   5.380   1.565
 1101TIP3    H124862   3.037   5.301   1.519
 1101TIP3    H224863   3.108   5.347   1.644
 1102TIP3   OH224864   5.640   3.228   0.834
 1102TIP3    H124865   5.656   3.258   0.923
 1102TIP3    H224866   5.545   3.219   0.828
 1103TIP3   OH224867   0.469   5.919   7.369
 1103TIP3    H124868   0.473   5.911   7.274
 1103TIP3    H224869   0.560   5.934   7.395
 1104TIP3   OH224870   3.147   1.279   1.471
 1104TIP3    H124871   3.106   1.216   1.529
 1104TIP3    H224872   3.241   1.259   1.477
 1105TIP3   OH224873   4.794   4.505   1.375
 1105TIP3    H124874   4.829   4.579   1.424
 1105TIP3    H224875   4.763   4.543   1.293
 1106TIP3   OH224876   4.756   4.622   0.564
 1106TIP3    H124877   4.721   4.602   0.477
 1106TIP3    H224878   4.713   4.559   0.622
 1107TIP3   OH224879   3.248   1.857   8.288
 1107TIP3    H124880   3.181   1.806   8.243
 1107TIP3    H224881   3.321   1.861   8.226
 1108TIP3   OH224882   4.814   1.781   7.154
 1108TIP3    H124883   4.800   1.779   7.249
 1108TIP3    H224884   4.850   1.694   7.133
 1109TIP3   OH224885   3.768   5.815   6.722
 1109TIP3    H124886   3.808   5.848   6.641
 1109TIP3    H224887   3.827   5.843   6.791
 1110TIP3   OH224888   1.385   4.086   7.798
 1110TIP3    H124889   1.381   3.990   7.797
 1110TIP3    H224890   1.310   4.113   7.851
 1111TIP3   OH224891   5.567   0.263   0.544
 1111TIP3    H124892   5.587   0.216   0.625
 1111TIP3    H224893   5.473   0.281   0.549
 1112TIP3   OH224894   0.443   0.608   1.967
 1112TIP3    H124895   0.522   0.650   2.002
 1112TIP3    H224896   0.475   0.526   1.929
 1113TIP3   OH224897   0.115   5.874   0.738
 1113TIP3    H124898   0.027   5.847   0.763
 1113TIP3    H224899   0.164   5.792   0.730
 1114TIP3   OH224900   3.232   6.248   1.691
 1114TIP3    H124901   3.162   6.256   1.625
 1114TIP3    H224902   3.204   6.306   1.762
 1115TIP3   OH224903   6.712   3.322   6.806
 1115TIP3    H124904   6.724   3.366   6.722
 1115TIP3    H224905   6.800   3.314   6.842
 1116TIP3   OH224906   2.667   6.367   7.137
 1116TIP3    H124907   2.658   6.397   7.046
 1116TIP3    H224908   2.702   6.279   7.131
 1117TIP3   OH224909   4.825   6.696   7.588
 1117TIP3    H124910   4.778   6.649   7.519
 1117TIP3    H224911   4.916   6.698   7.558
 1118TIP3   OH224912   1.598   4.791   1.833
 1118TIP3    H124913   1.674   4.846   1.817
 1118TIP3    H224914   1.611   4.757   1.922
 1119TIP3   OH224915   3.536   0.159   0.658
 1119TIP3    H124916   3.491   0.121   0.734
 1119TIP3    H224917   3.474   0.223   0.623
 1120TIP3   OH224918   6.415   3.640   0.260
 1120TIP3    H124919   6.484   3.698   0.230
 1120TIP3    H224920   6.340   3.698   0.276
 1121TIP3   OH224921   1.146   1.905   8.420
 1121TIP3    H124922   1.112   1.994   8.424
 1121TIP3    H224923   1.176   1.895   8.330
 1122TIP3   OH224924   5.300   1.211   8.799
 1122TIP3    H124925   5.380   1.205   8.849
 1122TIP3    H224926   5.278   1.121   8.776
 1123TIP3   OH224927   3.075   6.610   1.491
 1123TIP3    H124928   3.141   6.597   1.423
 1123TIP3    H224929   3.030   6.526   1.498
 1124TIP3   OH224930   4.088   2.834   0.293
 1124TIP3    H124931   3.996   2.825   0.319
 1124TIP3    H224932   4.094   2.922   0.255
 1125TIP3   OH224933   2.629   6.787   1.206
 1125TIP3    H124934   2.711   6.835   1.211
 1125TIP3    H224935   2.561   6.854   1.212
 1126TIP3   OH224936   4.174   1.127   8.414
 1126TIP3    H124937   4.140   1.196   8.471
 1126TIP3    H224938   4.097   1.091   8.370
 1127TIP3   OH224939   0.348   5.982   0.968
 1127TIP3    H124940   0.419   5.932   1.010
 1127TIP3    H224941   0.371   5.982   0.875
 1128TIP3   OH224942   1.842   5.044   8.500
 1128TIP3    H124943   1.792   5.048   8.581
 1128TIP3    H224944   1.779   5.012   8.435
 1129TIP3   OH224945   4.940   4.317   8.001
 1129TIP3    H124946   4.862   4.264   8.017
 1129TIP3    H224947   4.951   4.316   7.906
 1130TIP3   OH224948   3.452   0.676   1.398
 1130TIP3    H124949   3.458   0.705   1.307
 1130TIP3    H224950   3.461   0.756   1.450
 1131TIP3   OH224951   4.106   2.713   7.158
 1131TIP3    H124952   4.121   2.638   7.101
 1131TIP3    H224953   4.030   2.688   7.211
 1132TIP3   OH224954   6.652   0.766   0.126
 1132TIP3    H124955   6.727   0.823   0.109
 1132TIP3    H224956   6.670   0.687   0.075
 1133TIP3   OH224957   0.389   1.015   1.302
 1133TIP3    H124958   0.347   0.992   1.385
 1133TIP3    H224959   0.482   0.998   1.316
 1134TIP3   OH224960   4.860   5.686   0.697
 1134TIP3    H124961   4.841   5.718   0.785
 1134TIP3    H224962   4.955   5.691   0.688
 1135TIP3   OH224963   1.411   2.443   0.250
 1135TIP3    H124964   1.368   2.452   0.335
 1135TIP3    H224965   1.428   2.533   0.222
 1136TIP3   OH224966   2.289   6.129   7.961
 1136TIP3    H124967   2.347   6.132   7.886
 1136TIP3    H224968   2.317   6.203   8.016
 1137TIP3   OH224969   6.584   5.843   8.663
 1137TIP3    H124970   6.516   5.794   8.708
 1137TIP3    H224971   6.557   5.844   8.571
 1138TIP3   OH224972   0.549   5.811   6.619
 1138TIP3    H124973   0.614   5.881   6.607
 1138TIP3    H224974   0.597   5.730   6.601
 1139TIP3   OH224975   4.758   1.411   1.815
 1139TIP3    H124976   4.768   1.452   1.901
 1139TIP3    H224977   4.786   1.479   1.753
 1140TIP3   OH224978   2.625   1.432   7.052
 1140TIP3    H124979   2.635   1.337   7.059
 1140TIP3    H224980   2.703   1.468   7.096
 1141TIP3   OH224981   5.159   1.892   8.673
 1141TIP3    H124982   5.089   1.956   8.672
 1141TIP3    H224983   5.188   1.890   8.764
 1142TIP3   OH224984   4.787   2.689   6.576
 1142TIP3    H124985   4.701   2.685   6.618
 1142TIP3    H224986   4.827   2.769   6.609
 1143TIP3   OH224987   6.413   2.350   8.758
 1143TIP3    H124988   6.391   2.383   8.844
 1143TIP3    H224989   6.462   2.269   8.776
 1144TIP3   OH224990   4.687   4.602   1.725
 1144TIP3    H124991   4.691   4.660   1.650
 1144TIP3    H224992   4.598   4.611   1.758
 1145TIP3   OH224993   5.505   3.963   7.640
 1145TIP3    H124994   5.545   3.878   7.662
 1145TIP3    H224995   5.414   3.942   7.620
 1146TIP3   OH224996   3.872   4.950   8.125
 1146TIP3    H124997   3.884   4.855   8.130
 1146TIP3    H224998   3.892   4.980   8.214
 1147TIP3   OH224999   3.481   5.874   1.607
 1147TIP3    H125000   3.387   5.857   1.597
 1147TIP3    H225001   3.505   5.827   1.687
 1148TIP3   OH225002   0.610   5.925   8.584
 1148TIP3    H125003   0.571   5.914   8.670
 1148TIP3    H225004   0.568   6.003   8.548
 1149TIP3   OH225005   5.274   3.877   7.556
 1149TIP3    H125006   5.236   3.825   7.626
 1149TIP3    H225007   5.201   3.894   7.496
 1150TIP3   OH225008   1.636   4.915   8.320
 1150TIP3    H125009   1.563   4.932   8.259
 1150TIP3    H225010   1.595   4.876   8.397
 1151TIP3   OH225011   2.521   5.105   6.763
 1151TIP3    H125012   2.511   5.061   6.848
 1151TIP3    H225013   2.567   5.186   6.783
 1152TIP3   OH225014   1.801   3.207   7.326
 1152TIP3    H125015   1.818   3.282   7.269
 1152TIP3    H225016   1.710   3.183   7.307
 1153TIP3   OH225017   3.852   5.112   7.026
 1153TIP3    H125018   3.884   5.125   7.115
 1153TIP3    H225019   3.926   5.131   6.969
 1154TIP3   OH225020   0.105   0.985   0.082
 1154TIP3    H125021   0.140   1.010  -0.004
 1154TIP3    H225022   0.139   0.897   0.097
 1155TIP3   OH225023   1.975   2.228   7.615
 1155TIP3    H125024   1.949   2.233   7.707
 1155TIP3    H225025   2.068   2.253   7.615
 1156TIP3   OH225026   5.071   1.438   7.821
 1156TIP3    H125027   5.015   1.514   7.804
 1156TIP3    H225028   5.062   1.383   7.743
 1157TIP3   OH225029   6.368   4.794   0.060
 1157TIP3    H125030   6.298   4.766   0.118
 1157TIP3    H225031   6.373   4.889   0.072
 1158TIP3   OH225032   1.693   1.893   6.882
 1158TIP3    H125033   1.737   1.976   6.902
 1158TIP3    H225034   1.764   1.828   6.885
 1159TIP3   OH225035   6.303   3.133   8.284
 1159TIP3    H125036   6.390   3.118   8.322
 1159TIP3    H225037   6.270   3.045   8.265
 1160TIP3   OH225038   6.622   0.119   1.827
 1160TIP3    H125039   6.682   0.159   1.890
 1160TIP3    H225040   6.621   0.026   1.851
 1161TIP3   OH225041   1.774   3.133   1.288
 1161TIP3    H125042   1.689   3.091   1.272
 1161TIP3    H225043   1.753   3.226   1.294
 1162TIP3   OH225044   0.113   1.958   7.743
 1162TIP3    H125045   0.162   1.880   7.716
 1162TIP3    H225046   0.145   1.978   7.831
 1163TIP3   OH225047   0.757   5.552   8.780
 1163TIP3    H125048   0.731   5.480   8.837
 1163TIP3    H225049   0.674   5.591   8.751
 1164TIP3   OH225050   6.364   2.688   8.615
 1164TIP3    H125051   6.431   2.728   8.671
 1164TIP3    H225052   6.412   2.656   8.539
 1165TIP3   OH225053   4.704   4.857   7.208
 1165TIP3    H125054   4.768   4.786   7.206
 1165TIP3    H225055   4.654   4.846   7.127
 1166TIP3   OH225056   2.957   0.937   0.816
 1166TIP3    H125057   2.864   0.942   0.834
 1166TIP3    H225058   2.967   0.972   0.727
 1167TIP3   OH225059   3.691   3.124   6.460
 1167TIP3    H125060   3.754   3.066   6.504
 1167TIP3    H225061   3.633   3.065   6.411
 1168TIP3   OH225062   1.473   1.711   0.937
 1168TIP3    H125063   1.563   1.711   0.903
 1168TIP3    H225064   1.423   1.663   0.870
 1169TIP3   OH225065   5.416   5.261   1.250
 1169TIP3    H125066   5.360   5.336   1.269
 1169TIP3    H225067   5.490   5.270   1.310
 1170TIP3   OH225068   4.832   6.755   0.396
 1170TIP3    H125069   4.757   6.756   0.455
 1170TIP3    H225070   4.888   6.826   0.427
 1171TIP3   OH225071   1.758   3.241   6.675
 1171TIP3    H125072   1.825   3.292   6.630
 1171TIP3    H225073   1.707   3.201   6.605
 1172TIP3   OH225074   1.325   1.723   6.755
 1172TIP3    H125075   1.230   1.720   6.764
 1172TIP3    H225076   1.358   1.731   6.844
 1173TIP3   OH225077   6.233   0.807   2.475
 1173TIP3    H125078   6.192   0.764   2.399
 1173TIP3    H225079   6.269   0.735   2.526
 1174TIP3   OH225080   5.043   0.184   7.983
 1174TIP3    H125081   5.044   0.152   7.892
 1174TIP3    H225082   4.951   0.206   7.999
 1175TIP3   OH225083   0.904   2.887   0.561
 1175TIP3    H125084   0.958   2.807   0.566
 1175TIP3    H225085   0.814   2.856   0.574
 1176TIP3   OH225086   0.241   3.914   8.149
 1176TIP3    H125087   0.194   3.834   8.127
 1176TIP3    H225088   0.236   3.919   8.245
 1177TIP3   OH225089   4.678   1.540   6.968
 1177TIP3    H125090   4.612   1.471   6.962
 1177TIP3    H225091   4.761   1.494   6.957
 1178TIP3   OH225092   2.266   2.631   7.640
 1178TIP3    H125093   2.263   2.585   7.556
 1178TIP3    H225094   2.268   2.724   7.615
 1179TIP3   OH225095   1.881   5.728   1.313
 1179TIP3    H125096   1.958   5.777   1.343
 1179TIP3    H225097   1.910   5.686   1.232
 1180TIP3   OH225098   5.098   5.972   8.615
 1180TIP3    H125099   5.038   5.979   8.541
 1180TIP3    H225100   5.049   5.925   8.682
 1181TIP3   OH225101   5.901   2.880   7.576
 1181TIP3    H125102   5.812   2.846   7.572
 1181TIP3    H225103   5.954   2.807   7.606
 1182TIP3   OH225104   3.256   4.552   0.250
 1182TIP3    H125105   3.237   4.635   0.294
 1182TIP3    H225106   3.283   4.577   0.162
 1183TIP3   OH225107   2.272   6.694   1.907
 1183TIP3    H125108   2.320   6.647   1.975
 1183TIP3    H225109   2.330   6.765   1.881
 1184TIP3   OH225110   4.353   4.272   6.713
 1184TIP3    H125111   4.389   4.319   6.788
 1184TIP3    H225112   4.324   4.341   6.653
 1185TIP3   OH225113   0.246   1.119   6.310
 1185TIP3    H125114   0.193   1.198   6.298
 1185TIP3    H225115   0.336   1.151   6.308
 1186TIP3   OH225116   6.093   5.478   1.683
 1186TIP3    H125117   6.013   5.512   1.723
 1186TIP3    H225118   6.151   5.554   1.678
 1187TIP3   OH225119   4.030   0.605   8.467
 1187TIP3    H125120   3.959   0.641   8.414
 1187TIP3    H225121   4.020   0.510   8.460
 1188TIP3   OH225122   1.754   0.847   6.691
 1188TIP3    H125123   1.773   0.894   6.610
 1188TIP3    H225124   1.743   0.756   6.665
 1189TIP3   OH225125   3.561   2.642   0.126
 1189TIP3    H125126   3.607   2.723   0.103
 1189TIP3    H225127   3.470   2.669   0.140
 1190TIP3   OH225128   0.903   5.411   6.659
 1190TIP3    H125129   0.976   5.429   6.600
 1190TIP3    H225130   0.874   5.323   6.636
 1191TIP3   OH225131   0.019   2.694   0.967
 1191TIP3    H125132  -0.007   2.683   0.875
 1191TIP3    H225133  -0.041   2.637   1.016
 1192TIP3   OH225134   5.613   0.082   6.843
 1192TIP3    H125135   5.695   0.033   6.838
 1192TIP3    H225136   5.570   0.047   6.921
 1193TIP3   OH225137   2.074   1.700   0.673
 1193TIP3    H125138   2.121   1.653   0.604
 1193TIP3    H225139   2.125   1.780   0.686
 1194TIP3   OH225140   1.391   6.300   2.124
 1194TIP3    H125141   1.483   6.326   2.123
 1194TIP3    H225142   1.390   6.218   2.174
 1195TIP3   OH225143   0.456   5.041   7.030
 1195TIP3    H125144   0.405   5.085   6.963
 1195TIP3    H225145   0.547   5.053   7.003
 1196TIP3   OH225146   2.558   4.016   1.159
 1196TIP3    H125147   2.581   4.034   1.250
 1196TIP3    H225148   2.481   3.959   1.166
 1197TIP3   OH225149   6.112   4.668   7.442
 1197TIP3    H125150   6.052   4.647   7.514
 1197TIP3    H225151   6.097   4.761   7.424
 1198TIP3   OH225152   4.149   6.044   7.889
 1198TIP3    H125153   4.241   6.027   7.869
 1198TIP3    H225154   4.114   6.084   7.809
 1199TIP3   OH225155   1.627   4.399   0.203
 1199TIP3    H125156   1.721   4.384   0.193
 1199TIP3    H225157   1.614   4.489   0.174
 1200TIP3   OH225158   2.451   1.590   0.580
 1200TIP3    H125159   2.488   1.670   0.541
 1200TIP3    H225160   2.402   1.622   0.656
 1201TIP3   OH225161   0.032   5.305   2.184
 1201TIP3    H125162   0.065   5.221   2.153
 1201TIP3    H225163  -0.008   5.286   2.268
 1202TIP3   OH225164   2.596   6.425   6.855
 1202TIP3    H125165   2.545   6.358   6.810
 1202TIP3    H225166   2.564   6.508   6.818
 1203TIP3   OH225167   4.534   0.088   6.629
 1203TIP3    H125168   4.630   0.095   6.623
 1203TIP3    H225169   4.502   0.116   6.544
 1204TIP3   OH225170   6.210   1.572   7.099
 1204TIP3    H125171   6.250   1.605   7.180
 1204TIP3    H225172   6.116   1.584   7.112
 1205TIP3   OH225173   5.845   5.120   7.397
 1205TIP3    H125174   5.910   5.163   7.453
 1205TIP3    H225175   5.835   5.178   7.323
 1206TIP3   OH225176   2.613   5.309   0.669
 1206TIP3    H125177   2.656   5.303   0.583
 1206TIP3    H225178   2.611   5.219   0.701
 1207TIP3   OH225179   0.610   0.760   7.289
 1207TIP3    H125180   0.572   0.770   7.202
 1207TIP3    H225181   0.681   0.698   7.278
 1208TIP3   OH225182   2.559   0.666   7.511
 1208TIP3    H125183   2.549   0.760   7.524
 1208TIP3    H225184   2.470   0.632   7.516
 1209TIP3   OH225185   0.842   5.484   0.982
 1209TIP3    H125186   0.762   5.533   0.964
 1209TIP3    H225187   0.870   5.515   1.069
 1210TIP3   OH225188   5.785   0.237   8.373
 1210TIP3    H125189   5.692   0.219   8.387
 1210TIP3    H225190   5.788   0.280   8.288
 1211TIP3   OH225191   5.712   6.587   6.997
 1211TIP3    H125192   5.754   6.504   7.021
 1211TIP3    H225193   5.698   6.581   6.903
 1212TIP3   OH225194   0.868   4.734   7.376
 1212TIP3    H125195   0.818   4.759   7.298
 1212TIP3    H225196   0.960   4.746   7.351
 1213TIP3   OH225197   4.737   0.866   1.573
 1213TIP3    H125198   4.723   0.934   1.638
 1213TIP3    H225199   4.650   0.828   1.560
 1214TIP3   OH225200   4.261   2.326   7.037
 1214TIP3    H125201   4.269   2.331   7.132
 1214TIP3    H225202   4.300   2.242   7.013
 1215TIP3   OH225203   5.594   0.821   7.941
 1215TIP3    H125204   5.687   0.814   7.919
 1215TIP3    H225205   5.593   0.847   8.033
 1216TIP3   OH225206   4.355   1.198   1.337
 1216TIP3    H125207   4.331   1.183   1.429
 1216TIP3    H225208   4.430   1.141   1.323
 1217TIP3   OH225209   1.467   6.377   7.964
 1217TIP3    H125210   1.374   6.400   7.959
 1217TIP3    H225211   1.512   6.451   7.922
 1218TIP3   OH225212   6.237   6.480   6.623
 1218TIP3    H125213   6.163   6.503   6.679
 1218TIP3    H225214   6.220   6.390   6.597
 1219TIP3   OH225215   5.466   3.543   1.307
 1219TIP3    H125216   5.550   3.580   1.280
 1219TIP3    H225217   5.407   3.618   1.312
 1220TIP3   OH225218   4.590   1.539   0.636
 1220TIP3    H125219   4.644   1.517   0.560
 1220TIP3    H225220   4.602   1.633   0.649
 1221TIP3   OH225221   1.790   2.918   1.525
 1221TIP3    H125222   1.800   2.978   1.598
 1221TIP3    H225223   1.708   2.872   1.543
 1222TIP3   OH225224   3.343   2.037   1.510
 1222TIP3    H125225   3.256   2.079   1.506
 1222TIP3    H225226   3.361   2.028   1.603
 1223TIP3   OH225227   3.988   6.695   7.264
 1223TIP3    H125228   3.972   6.696   7.358
 1223TIP3    H225229   4.048   6.621   7.251
 1224TIP3   OH225230   5.312   0.697   2.189
 1224TIP3    H125231   5.310   0.752   2.111
 1224TIP3    H225232   5.227   0.653   2.190
 1225TIP3   OH225233   3.828   3.041   1.669
 1225TIP3    H125234   3.840   2.949   1.693
 1225TIP3    H225235   3.914   3.081   1.685
 1226TIP3   OH225236   3.900   5.265   1.251
 1226TIP3    H125237   3.944   5.193   1.295
 1226TIP3    H225238   3.806   5.249   1.267
 1227TIP3   OH225239   2.603   5.100   7.849
 1227TIP3    H125240   2.663   5.026   7.860
 1227TIP3    H225241   2.523   5.062   7.813
 1228TIP3   OH225242   2.317   4.981   7.871
 1228TIP3    H125243   2.258   4.910   7.844
 1228TIP3    H225244   2.270   5.025   7.941
 1229TIP3   OH225245   5.017   4.609   2.205
 1229TIP3    H125246   4.960   4.661   2.148
 1229TIP3    H225247   5.076   4.673   2.245
 1230TIP3   OH225248   0.015   5.476   1.968
 1230TIP3    H125249  -0.057   5.442   1.915
 1230TIP3    H225250   0.012   5.423   2.048
 1231TIP3   OH225251   2.777   2.258   8.534
 1231TIP3    H125252   2.855   2.239   8.480
 1231TIP3    H225253   2.706   2.265   8.471
 1232TIP3   OH225254   4.088   0.307   0.526
 1232TIP3    H125255   4.019   0.359   0.567
 1232TIP3    H225256   4.169   0.340   0.566
 1233TIP3   OH225257   5.319   6.694   0.507
 1233TIP3    H125258   5.264   6.701   0.428
 1233TIP3    H225259   5.407   6.678   0.473
 1234TIP3   OH225260   1.171   4.802   7.205
 1234TIP3    H125261   1.106   4.856   7.159
 1234TIP3    H225262   1.200   4.856   7.278
 1235TIP3   OH225263   3.134   2.883   1.340
 1235TIP3    H125264   3.195   2.939   1.389
 1235TIP3    H225265   3.066   2.943   1.309
 1236TIP3   OH225266   1.438   4.319   0.397
 1236TIP3    H125267   1.514   4.338   0.343
 1236TIP3    H225268   1.464   4.344   0.485
 1237TIP3   OH225269   0.231   5.936   8.244
 1237TIP3    H125270   0.185   5.883   8.180
 1237TIP3    H225271   0.318   5.949   8.207
 1238TIP3   OH225272   5.782   3.147   1.218
 1238TIP3    H125273   5.766   3.180   1.306
 1238TIP3    H225274   5.733   3.207   1.161
 1239TIP3   OH225275   4.832   3.605   1.942
 1239TIP3    H125276   4.790   3.625   2.026
 1239TIP3    H225277   4.926   3.607   1.962
 1240TIP3   OH225278   3.133   0.753   8.661
 1240TIP3    H125279   3.188   0.726   8.734
 1240TIP3    H225280   3.093   0.835   8.690
 1241TIP3   OH225281   6.760   6.523   0.129
 1241TIP3    H125282   6.750   6.436   0.089
 1241TIP3    H225283   6.686   6.573   0.094
 1242TIP3   OH225284   0.693   2.145   0.663
 1242TIP3    H125285   0.598   2.133   0.664
 1242TIP3    H225286   0.714   2.171   0.753
 1243TIP3   OH225287   4.724   3.247   7.046
 1243TIP3    H125288   4.784   3.187   7.090
 1243TIP3    H225289   4.703   3.203   6.963
 1244TIP3   OH225290   1.406   3.981   7.242
 1244TIP3    H125291   1.420   4.040   7.168
 1244TIP3    H225292   1.312   3.967   7.244
 1245TIP3   OH225293   0.836   3.546   8.284
 1245TIP3    H125294   0.771   3.477   8.266
 1245TIP3    H225295   0.826   3.608   8.212
 1246TIP3   OH225296   1.470   0.404   6.525
 1246TIP3    H125297   1.512   0.372   6.446
 1246TIP3    H225298   1.452   0.326   6.577
 1247TIP3   OH225299   1.986   4.214   6.429
 1247TIP3    H125300   2.005   4.206   6.335
 1247TIP3    H225301   2.070   4.193   6.471
 1248TIP3   OH225302   3.362   4.094   8.685
 1248TIP3    H125303   3.368   4.008   8.727
 1248TIP3    H225304   3.272   4.098   8.651
 1249TIP3   OH225305   6.571   5.585   0.592
 1249TIP3    H125306   6.639   5.588   0.660
 1249TIP3    H225307   6.610   5.533   0.522
 1250TIP3   OH225308   5.904   6.601   0.734
 1250TIP3    H125309   5.857   6.656   0.796
 1250TIP3    H225310   5.899   6.513   0.772
 1251TIP3   OH225311   4.465   4.786   8.254
 1251TIP3    H125312   4.496   4.695   8.250
 1251TIP3    H225313   4.430   4.803   8.167
 1252TIP3   OH225314   6.411   5.836   7.423
 1252TIP3    H125315   6.379   5.922   7.394
 1252TIP3    H225316   6.333   5.793   7.458
 1253TIP3   OH225317   0.947   5.767   0.458
 1253TIP3    H125318   0.992   5.687   0.431
 1253TIP3    H225319   1.016   5.823   0.493
 1254TIP3   OH225320   5.948   1.712   8.761
 1254TIP3    H125321   5.944   1.806   8.780
 1254TIP3    H225322   5.858   1.689   8.736
 1255TIP3   OH225323   0.774   0.359   0.744
 1255TIP3    H125324   0.788   0.309   0.664
 1255TIP3    H225325   0.747   0.446   0.714
 1256TIP3   OH225326   1.446   3.818   7.780
 1256TIP3    H125327   1.539   3.806   7.800
 1256TIP3    H225328   1.406   3.734   7.803
 1257TIP3   OH225329   0.378   5.290   6.710
 1257TIP3    H125330   0.404   5.367   6.762
 1257TIP3    H225331   0.332   5.327   6.634
 1258TIP3   OH225332   3.925   6.551   0.076
 1258TIP3    H125333   3.959   6.464   0.099
 1258TIP3    H225334   3.963   6.569  -0.011
 1259TIP3   OH225335   5.334   2.739   2.132
 1259TIP3    H125336   5.372   2.817   2.171
 1259TIP3    H225337   5.239   2.754   2.136
 1260TIP3   OH225338   0.178   3.123   7.460
 1260TIP3    H125339   0.265   3.150   7.490
 1260TIP3    H225340   0.131   3.099   7.539
 1261TIP3   OH225341   4.692   5.338   7.543
 1261TIP3    H125342   4.624   5.340   7.476
 1261TIP3    H225343   4.756   5.404   7.515
 1262TIP3   OH225344   4.815   1.643   6.162
 1262TIP3    H125345   4.758   1.709   6.123
 1262TIP3    H225346   4.824   1.669   6.254
 1263TIP3   OH225347   5.610   3.704   7.313
 1263TIP3    H125348   5.528   3.672   7.350
 1263TIP3    H225349   5.675   3.688   7.382
 1264TIP3   OH225350   3.210   1.717   7.206
 1264TIP3    H125351   3.211   1.805   7.243
 1264TIP3    H225352   3.210   1.731   7.111
 1265TIP3   OH225353   4.702   0.499   8.381
 1265TIP3    H125354   4.685   0.526   8.291
 1265TIP3    H225355   4.791   0.528   8.399
 1266TIP3   OH225356   5.805   2.084   8.465
 1266TIP3    H125357   5.877   2.147   8.471
 1266TIP3    H225358   5.757   2.109   8.386
 1267TIP3   OH225359   1.866   5.402   2.314
 1267TIP3    H125360   1.919   5.373   2.389
 1267TIP3    H225361   1.926   5.400   2.240
 1268TIP3   OH225362   0.670   2.181   8.302
 1268TIP3    H125363   0.715   2.129   8.368
 1268TIP3    H225364   0.583   2.198   8.340
 1269TIP3   OH225365   1.224   6.790   0.699
 1269TIP3    H125366   1.161   6.718   0.708
 1269TIP3    H225367   1.297   6.752   0.650
 1270TIP3   OH225368   4.071   1.756   7.273
 1270TIP3    H125369   4.160   1.738   7.242
 1270TIP3    H225370   4.056   1.848   7.250
 1271TIP3   OH225371   4.746   0.606   1.675
 1271TIP3    H125372   4.741   0.685   1.620
 1271TIP3    H225373   4.711   0.633   1.759
 1272TIP3   OH225374   4.599   6.035   2.062
 1272TIP3    H125375   4.668   5.978   2.029
 1272TIP3    H225376   4.526   5.977   2.081
 1273TIP3   OH225377   2.813   2.623   0.872
 1273TIP3    H125378   2.866   2.627   0.792
 1273TIP3    H225379   2.773   2.710   0.879
 1274TIP3   OH225380   3.117   6.615   6.430
 1274TIP3    H125381   3.184   6.681   6.415
 1274TIP3    H225382   3.165   6.532   6.433
 1275TIP3   OH225383   1.680   4.403   0.895
 1275TIP3    H125384   1.746   4.466   0.866
 1275TIP3    H225385   1.722   4.318   0.883
 1276TIP3   OH225386   0.471   2.666   7.847
 1276TIP3    H125387   0.379   2.647   7.833
 1276TIP3    H225388   0.485   2.650   7.941
 1277TIP3   OH225389   1.408   3.150   8.292
 1277TIP3    H125390   1.432   3.059   8.313
 1277TIP3    H225391   1.459   3.170   8.213
 1278TIP3   OH225392   0.017   2.062   0.963
 1278TIP3    H125393   0.051   2.035   1.048
 1278TIP3    H225394   0.049   2.151   0.952
 1279TIP3   OH225395   6.596   2.870   0.928
 1279TIP3    H125396   6.646   2.793   0.900
 1279TIP3    H225397   6.661   2.935   0.950
 1280TIP3   OH225398   4.118   1.569   8.395
 1280TIP3    H125399   4.082   1.507   8.458
 1280TIP3    H225400   4.152   1.640   8.448
 1281TIP3   OH225401   5.513   4.596   1.765
 1281TIP3    H125402   5.507   4.642   1.849
 1281TIP3    H225403   5.607   4.584   1.752
 1282TIP3   OH225404   4.999   2.652   7.526
 1282TIP3    H125405   5.021   2.735   7.484
 1282TIP3    H225406   5.042   2.585   7.473
 1283TIP3   OH225407   5.504   5.559   0.532
 1283TIP3    H125408   5.485   5.515   0.449
 1283TIP3    H225409   5.422   5.552   0.581
 1284TIP3   OH225410   4.278   2.210   1.358
 1284TIP3    H125411   4.339   2.157   1.409
 1284TIP3    H225412   4.198   2.211   1.411
 1285TIP3   OH225413   6.384   4.587   7.446
 1285TIP3    H125414   6.386   4.667   7.394
 1285TIP3    H225415   6.292   4.577   7.471
 1286TIP3   OH225416   0.925   2.274   1.156
 1286TIP3    H125417   0.860   2.299   1.222
 1286TIP3    H225418   0.962   2.192   1.189
 1287TIP3   OH225419   5.658   2.534   0.382
 1287TIP3    H125420   5.664   2.577   0.467
 1287TIP3    H225421   5.733   2.566   0.333
 1288TIP3   OH225422   2.148   2.169   6.873
 1288TIP3    H125423   2.208   2.227   6.919
 1288TIP3    H225424   2.138   2.093   6.931
 1289TIP3   OH225425   0.658   3.541   0.419
 1289TIP3    H125426   0.700   3.626   0.426
 1289TIP3    H225427   0.657   3.507   0.508
 1290TIP3   OH225428   4.533   0.939   2.131
 1290TIP3    H125429   4.544   0.860   2.184
 1290TIP3    H225430   4.524   0.906   2.042
 1291TIP3   OH225431   1.319   5.174   1.317
 1291TIP3    H125432   1.270   5.130   1.248
 1291TIP3    H225433   1.352   5.103   1.372
 1292TIP3   OH225434   3.315   0.224   7.616
 1292TIP3    H125435   3.399   0.268   7.598
 1292TIP3    H225436   3.301   0.237   7.710
 1293TIP3   OH225437   1.122   4.290   6.522
 1293TIP3    H125438   1.193   4.354   6.514
 1293TIP3    H225439   1.046   4.342   6.550
 1294TIP3   OH225440   6.648   4.016   7.022
 1294TIP3    H125441   6.611   4.093   6.979
 1294TIP3    H225442   6.581   3.989   7.084
 1295TIP3   OH225443   4.613   2.551   1.811
 1295TIP3    H125444   4.553   2.521   1.742
 1295TIP3    H225445   4.563   2.615   1.860
 1296TIP3   OH225446   4.319   3.591   1.869
 1296TIP3    H125447   4.316   3.683   1.894
 1296TIP3    H225448   4.254   3.583   1.799
 1297TIP3   OH225449   5.511   6.632   1.788
 1297TIP3    H125450   5.446   6.604   1.852
 1297TIP3    H225451   5.555   6.707   1.829
 1298TIP3   OH225452   3.279   1.884   2.071
 1298TIP3    H125453   3.269   1.969   2.028
 1298TIP3    H225454   3.283   1.905   2.164
 1299TIP3   OH225455   4.816   5.060   1.259
 1299TIP3    H125456   4.779   5.047   1.172
 1299TIP3    H225457   4.765   5.003   1.316
 1300TIP3   OH225458   4.270   6.780   7.549
 1300TIP3    H125459   4.319   6.699   7.535
 1300TIP3    H225460   4.329   6.836   7.599
 1301TIP3   OH225461   5.582   2.645   2.130
 1301TIP3    H125462   5.488   2.656   2.144
 1301TIP3    H225463   5.620   2.728   2.157
 1302TIP3   OH225464   0.295   1.409   1.884
 1302TIP3    H125465   0.353   1.371   1.819
 1302TIP3    H225466   0.211   1.421   1.839
 1303TIP3   OH225467   4.393   1.399   7.966
 1303TIP3    H125468   4.359   1.383   8.054
 1303TIP3    H225469   4.316   1.396   7.910
 1304TIP3   OH225470   1.124   5.933   8.618
 1304TIP3    H125471   1.176   5.932   8.538
 1304TIP3    H225472   1.077   5.849   8.616
 1305TIP3   OH225473   1.342   3.170   7.270
 1305TIP3    H125474   1.252   3.179   7.298
 1305TIP3    H225475   1.336   3.137   7.180
 1306TIP3   OH225476   0.272   0.542   1.274
 1306TIP3    H125477   0.359   0.528   1.310
 1306TIP3    H225478   0.282   0.616   1.214
 1307TIP3   OH225479   4.584   6.414   0.589
 1307TIP3    H125480   4.653   6.465   0.631
 1307TIP3    H225481   4.594   6.432   0.496
 1308TIP3   OH225482   4.595   1.247   7.016
 1308TIP3    H125483   4.520   1.188   7.017
 1308TIP3    H225484   4.664   1.200   7.062
 1309TIP3   OH225485   3.025   3.592   1.951
 1309TIP3    H125486   3.012   3.685   1.935
 1309TIP3    H225487   2.993   3.578   2.041
 1310TIP3   OH225488   0.210   6.501   7.878
 1310TIP3    H125489   0.124   6.536   7.854
 1310TIP3    H225490   0.207   6.495   7.973
 1311TIP3   OH225491   1.688   0.837   6.012
 1311TIP3    H125492   1.615   0.888   5.977
 1311TIP3    H225493   1.707   0.773   5.943
 1312TIP3   OH225494   3.288   3.754   7.492
 1312TIP3    H125495   3.293   3.841   7.531
 1312TIP3    H225496   3.367   3.746   7.440
 1313TIP3   OH225497   5.771   2.172   0.289
 1313TIP3    H125498   5.752   2.263   0.313
 1313TIP3    H225499   5.816   2.178   0.205
 1314TIP3   OH225500   6.305   0.292   6.978
 1314TIP3    H125501   6.223   0.300   6.929
 1314TIP3    H225502   6.313   0.376   7.024
 1315TIP3   OH225503   2.094   4.523   0.920
 1315TIP3    H125504   2.157   4.559   0.983
 1315TIP3    H225505   2.074   4.596   0.862
 1316TIP3   OH225506   1.133   3.544   6.047
 1316TIP3    H125507   1.225   3.560   6.029
 1316TIP3    H225508   1.100   3.628   6.081
 1317TIP3   OH225509   0.609   5.753   2.108
 1317TIP3    H125510   0.637   5.678   2.161
 1317TIP3    H225511   0.649   5.738   2.023
 1318TIP3   OH225512   3.997   6.120   0.675
 1318TIP3    H125513   3.916   6.122   0.727
 1318TIP3    H225514   3.980   6.056   0.607
 1319TIP3   OH225515   4.547   2.787   8.751
 1319TIP3    H125516   4.552   2.803   8.656
 1319TIP3    H225517   4.455   2.801   8.772
 1320TIP3   OH225518   3.397   2.784   8.397
 1320TIP3    H125519   3.416   2.790   8.490
 1320TIP3    H225520   3.456   2.717   8.364
 1321TIP3   OH225521   3.594   0.993   6.653
 1321TIP3    H125522   3.538   0.984   6.576
 1321TIP3    H225523   3.645   1.073   6.636
 1322TIP3   OH225524   6.202   2.251   1.200
 1322TIP3    H125525   6.116   2.282   1.171
 1322TIP3    H225526   6.211   2.165   1.158
 1323TIP3   OH225527   2.510   0.233   1.259
 1323TIP3    H125528   2.491   0.260   1.169
 1323TIP3    H225529   2.554   0.308   1.299
 1324TIP3   OH225530   1.534   5.781   1.750
 1324TIP3    H125531   1.625   5.761   1.728
 1324TIP3    H225532   1.485   5.754   1.673
 1325TIP3   OH225533   0.782   4.558   7.891
 1325TIP3    H125534   0.721   4.540   7.962
 1325TIP3    H225535   0.727   4.567   7.813
 1326TIP3   OH225536   2.900   5.041   1.776
 1326TIP3    H125537   2.839   5.001   1.837
 1326TIP3    H225538   2.977   5.062   1.829
 1327TIP3   OH225539   4.043   4.097   1.420
 1327TIP3    H125540   4.020   4.126   1.508
 1327TIP3    H225541   4.037   4.176   1.366
 1328TIP3   OH225542   4.664   1.838   7.380
 1328TIP3    H125543   4.656   1.863   7.472
 1328TIP3    H225544   4.598   1.769   7.368
 1329TIP3   OH225545   2.678   5.921   8.003
 1329TIP3    H125546   2.736   5.864   7.952
 1329TIP3    H225547   2.607   5.943   7.943
 1330TIP3   OH225548   1.895   6.245   2.208
 1330TIP3    H125549   1.845   6.226   2.287
 1330TIP3    H225550   1.832   6.283   2.148
 1331TIP3   OH225551   0.819   2.491   6.920
 1331TIP3    H125552   0.902   2.539   6.912
 1331TIP3    H225553   0.825   2.422   6.854
 1332TIP3   OH225554   4.078   4.258   1.972
 1332TIP3    H125555   3.988   4.287   1.960
 1332TIP3    H225556   4.123   4.283   1.891
 1333TIP3   OH225557   1.225   3.431   7.513
 1333TIP3    H125558   1.296   3.401   7.569
 1333TIP3    H225559   1.269   3.463   7.434
 1334TIP3   OH225560   5.085   2.699   0.039
 1334TIP3    H125561   5.068   2.787   0.005
 1334TIP3    H225562   5.180   2.690   0.038
 1335TIP3   OH225563   5.459   2.556   8.646
 1335TIP3    H125564   5.458   2.589   8.556
 1335TIP3    H225565   5.407   2.475   8.643
 1336TIP3   OH225566   5.421   0.109   1.083
 1336TIP3    H125567   5.354   0.060   1.035
 1336TIP3    H225568   5.372   0.175   1.131
 1337TIP3   OH225569   3.890   5.016   6.350
 1337TIP3    H125570   3.798   5.037   6.332
 1337TIP3    H225571   3.918   5.086   6.410
 1338TIP3   OH225572   0.878   3.165   0.551
 1338TIP3    H125573   0.964   3.184   0.512
 1338TIP3    H225574   0.877   3.070   0.561
 1339TIP3   OH225575   4.020   2.944   7.007
 1339TIP3    H125576   3.938   2.983   7.038
 1339TIP3    H225577   4.054   2.897   7.084
 1340TIP3   OH225578   5.236   0.875   0.551
 1340TIP3    H125579   5.201   0.803   0.499
 1340TIP3    H225580   5.265   0.939   0.487
 1341TIP3   OH225581   5.504   2.139   0.880
 1341TIP3    H125582   5.433   2.198   0.901
 1341TIP3    H225583   5.510   2.080   0.955
 1342TIP3   OH225584   5.143   4.342   0.760
 1342TIP3    H125585   5.069   4.324   0.817
 1342TIP3    H225586   5.149   4.266   0.703
 1343TIP3   OH225587   6.652   1.882   7.670
 1343TIP3    H125588   6.631   1.972   7.645
 1343TIP3    H225589   6.738   1.888   7.711
 1344TIP3   OH225590   3.017   4.545   0.655
 1344TIP3    H125591   3.027   4.517   0.746
 1344TIP3    H225592   3.014   4.463   0.606
 1345TIP3   OH225593   3.564   0.071   1.148
 1345TIP3    H125594   3.614   0.135   1.098
 1345TIP3    H225595   3.534   0.119   1.225
 1346TIP3   OH225596   5.231   2.041   7.704
 1346TIP3    H125597   5.165   1.977   7.679
 1346TIP3    H225598   5.314   1.992   7.702
 1347TIP3   OH225599   1.462   6.291   8.621
 1347TIP3    H125600   1.425   6.204   8.633
 1347TIP3    H225601   1.556   6.277   8.610
 1348TIP3   OH225602   4.264   1.010   1.601
 1348TIP3    H125603   4.217   1.089   1.629
 1348TIP3    H225604   4.204   0.938   1.619
 1349TIP3   OH225605   2.418   1.357   7.628
 1349TIP3    H125606   2.422   1.392   7.717
 1349TIP3    H225607   2.376   1.272   7.637
 1350TIP3   OH225608   1.767   5.218   1.256
 1350TIP3    H125609   1.677   5.247   1.273
 1350TIP3    H225610   1.808   5.293   1.213
 1351TIP3   OH225611   6.459   3.063   6.999
 1351TIP3    H125612   6.509   3.121   7.057
 1351TIP3    H225613   6.390   3.028   7.055
 1352TIP3   OH225614   0.222   3.454   1.581
 1352TIP3    H125615   0.294   3.400   1.613
 1352TIP3    H225616   0.144   3.416   1.620
 1353TIP3   OH225617   2.110   4.125   7.057
 1353TIP3    H125618   2.156   4.042   7.040
 1353TIP3    H225619   2.163   4.191   7.014
 1354TIP3   OH225620   1.282   6.433   8.825
 1354TIP3    H125621   1.274   6.349   8.779
 1354TIP3    H225622   1.327   6.490   8.764
 1355TIP3   OH225623   4.711   0.724   8.755
 1355TIP3    H125624   4.725   0.694   8.844
 1355TIP3    H225625   4.794   0.766   8.730
 1356TIP3   OH225626   3.916   5.920   6.497
 1356TIP3    H125627   3.970   5.982   6.448
 1356TIP3    H225628   3.963   5.837   6.492
 1357TIP3   OH225629   5.802   1.800   8.453
 1357TIP3    H125630   5.801   1.895   8.457
 1357TIP3    H225631   5.776   1.771   8.540
 1358TIP3   OH225632   0.781   2.168   0.943
 1358TIP3    H125633   0.822   2.195   1.025
 1358TIP3    H225634   0.693   2.142   0.968
 1359TIP3   OH225635   5.683   3.877   0.223
 1359TIP3    H125636   5.594   3.911   0.234
 1359TIP3    H225637   5.737   3.956   0.212
 1360TIP3   OH225638   2.192   5.993   6.520
 1360TIP3    H125639   2.271   6.033   6.558
 1360TIP3    H225640   2.124   6.059   6.531
 1361TIP3   OH225641   5.936   0.025   7.449
 1361TIP3    H125642   5.951  -0.056   7.401
 1361TIP3    H225643   5.893  -0.003   7.530
 1362TIP3   OH225644   5.208   6.773   0.247
 1362TIP3    H125645   5.233   6.806   0.160
 1362TIP3    H225646   5.129   6.823   0.269
 1363TIP3   OH225647   1.600   5.416   0.740
 1363TIP3    H125648   1.606   5.387   0.831
 1363TIP3    H225649   1.623   5.509   0.744
 1364TIP3   OH225650   1.339   1.285   7.230
 1364TIP3    H125651   1.418   1.233   7.214
 1364TIP3    H225652   1.366   1.351   7.293
 1365TIP3   OH225653   6.549   6.010   0.814
 1365TIP3    H125654   6.469   6.040   0.770
 1365TIP3    H225655   6.613   6.079   0.796
 1366TIP3   OH225656   0.479   5.904   8.132
 1366TIP3    H125657   0.569   5.879   8.155
 1366TIP3    H225658   0.483   5.925   8.038
 1367TIP3   OH225659   0.461   3.294   1.961
 1367TIP3    H125660   0.520   3.221   1.945
 1367TIP3    H225661   0.435   3.324   1.874
 1368TIP3   OH225662   6.693   0.851   2.132
 1368TIP3    H125663   6.724   0.932   2.172
 1368TIP3    H225664   6.635   0.812   2.197
 1369TIP3   OH225665   4.179   3.102   8.090
 1369TIP3    H125666   4.228   3.119   8.170
 1369TIP3    H225667   4.088   3.094   8.120
 1370TIP3   OH225668   0.400   0.263   8.425
 1370TIP3    H125669   0.373   0.327   8.490
 1370TIP3    H225670   0.467   0.308   8.374
 1371TIP3   OH225671   1.413   5.221   8.261
 1371TIP3    H125672   1.402   5.133   8.297
 1371TIP3    H225673   1.469   5.266   8.324
 1372TIP3   OH225674   3.052   1.166   1.198
 1372TIP3    H125675   3.054   1.073   1.221
 1372TIP3    H225676   3.079   1.210   1.278
 1373TIP3   OH225677   2.903   3.345   7.304
 1373TIP3    H125678   2.915   3.410   7.374
 1373TIP3    H225679   2.808   3.343   7.290
 1374TIP3   OH225680   6.519   3.587   7.928
 1374TIP3    H125681   6.495   3.676   7.956
 1374TIP3    H225682   6.586   3.559   7.991
 1375TIP3   OH225683   2.164   2.077   1.298
 1375TIP3    H125684   2.121   2.133   1.362
 1375TIP3    H225685   2.144   2.118   1.213
 1376TIP3   OH225686   4.948   5.810   8.828
 1376TIP3    H125687   4.888   5.826   8.901
 1376TIP3    H225688   4.894   5.766   8.761
 1377TIP3   OH225689   2.638   0.986   7.295
 1377TIP3    H125690   2.606   0.942   7.374
 1377TIP3    H225691   2.728   1.011   7.316
 1378TIP3   OH225692   5.207   2.296   7.581
 1378TIP3    H125693   5.117   2.270   7.603
 1378TIP3    H225694   5.262   2.226   7.617
 1379TIP3   OH225695   3.235   4.022   7.581
 1379TIP3    H125696   3.199   4.071   7.655
 1379TIP3    H225697   3.291   4.084   7.535
 1380TIP3   OH225698   4.678   6.781   1.296
 1380TIP3    H125699   4.757   6.826   1.326
 1380TIP3    H225700   4.610   6.848   1.296
 1381TIP3   OH225701   5.520   2.779   7.160
 1381TIP3    H125702   5.480   2.801   7.076
 1381TIP3    H225703   5.452   2.730   7.206
 1382TIP3   OH225704   1.246   1.870   8.168
 1382TIP3    H125705   1.338   1.852   8.184
 1382TIP3    H225706   1.210   1.787   8.137
 1383TIP3   OH225707   1.776   5.997   1.579
 1383TIP3    H125708   1.709   5.932   1.560
 1383TIP3    H225709   1.834   5.954   1.642
 1384TIP3   OH225710   3.211   6.515   2.134
 1384TIP3    H125711   3.263   6.462   2.194
 1384TIP3    H225712   3.249   6.603   2.139
 1385TIP3   OH225713   3.081   1.038   0.574
 1385TIP3    H125714   3.052   1.115   0.524
 1385TIP3    H225715   3.169   1.061   0.605
 1386TIP3   OH225716   4.927   3.493   1.466
 1386TIP3    H125717   4.979   3.535   1.398
 1386TIP3    H225718   4.958   3.533   1.548
 1387TIP3   OH225719   3.076   5.073   6.833
 1387TIP3    H125720   3.126   5.094   6.911
 1387TIP3    H225721   3.132   5.013   6.783
 1388TIP3   OH225722   5.102   2.854   7.275
 1388TIP3    H125723   5.139   2.942   7.266
 1388TIP3    H225724   5.012   2.868   7.304
 1389TIP3   OH225725   5.953   3.428   7.462
 1389TIP3    H125726   5.904   3.486   7.404
 1389TIP3    H225727   5.902   3.346   7.463
 1390TIP3   OH225728   1.698   4.051   1.528
 1390TIP3    H125729   1.751   4.001   1.465
 1390TIP3    H225730   1.731   4.025   1.613
 1391TIP3   OH225731   3.674   4.172   7.872
 1391TIP3    H125732   3.689   4.231   7.798
 1391TIP3    H225733   3.726   4.094   7.852
 1392TIP3   OH225734   5.468   5.357   7.936
 1392TIP3    H125735   5.524   5.409   7.993
 1392TIP3    H225736   5.518   5.276   7.921
 1393TIP3   OH225737   0.538   6.706   6.429
 1393TIP3    H125738   0.538   6.683   6.336
 1393TIP3    H225739   0.630   6.723   6.449
 1394TIP3   OH225740   3.277   4.526   7.202
 1394TIP3    H125741   3.310   4.563   7.120
 1394TIP3    H225742   3.287   4.597   7.266
 1395TIP3   OH225743   1.806   3.416   2.100
 1395TIP3    H125744   1.846   3.423   2.186
 1395TIP3    H225745   1.714   3.439   2.114
 1396TIP3   OH225746   5.626   2.835   1.481
 1396TIP3    H125747   5.639   2.804   1.571
 1396TIP3    H225748   5.575   2.915   1.491
 1397TIP3   OH225749   5.941   3.257   7.838
 1397TIP3    H125750   5.955   3.224   7.927
 1397TIP3    H225751   6.016   3.223   7.789
 1398TIP3   OH225752   1.023   4.735   8.402
 1398TIP3    H125753   1.030   4.717   8.496
 1398TIP3    H225754   1.075   4.814   8.389
 1399TIP3   OH225755   6.325   6.471   7.222
 1399TIP3    H125756   6.348   6.542   7.163
 1399TIP3    H225757   6.408   6.439   7.256
 1400TIP3   OH225758   3.034   3.502   8.388
 1400TIP3    H125759   3.079   3.498   8.303
 1400TIP3    H225760   2.989   3.417   8.395
 1401TIP3   OH225761   6.686   3.894   8.014
 1401TIP3    H125762   6.607   3.912   8.066
 1401TIP3    H225763   6.709   3.979   7.976
 1402TIP3   OH225764   4.951   3.535   0.274
 1402TIP3    H125765   4.938   3.626   0.245
 1402TIP3    H225766   4.891   3.526   0.349
 1403TIP3   OH225767   2.237   5.423   1.224
 1403TIP3    H125768   2.180   5.423   1.301
 1403TIP3    H225769   2.322   5.451   1.257
 1404TIP3   OH225770   2.037   0.668   0.006
 1404TIP3    H125771   1.969   0.607   0.035
 1404TIP3    H225772   1.991   0.751  -0.006
 1405TIP3   OH225773   5.665   6.310   0.030
 1405TIP3    H125774   5.759   6.298   0.013
 1405TIP3    H225775   5.630   6.221   0.033
 1406TIP3   OH225776   4.666   0.507   1.196
 1406TIP3    H125777   4.593   0.510   1.258
 1406TIP3    H225778   4.743   0.526   1.249
 1407TIP3   OH225779   5.013   2.937   7.784
 1407TIP3    H125780   5.020   3.026   7.818
 1407TIP3    H225781   5.047   2.942   7.695
 1408TIP3   OH225782   4.630   2.232   1.279
 1408TIP3    H125783   4.678   2.167   1.226
 1408TIP3    H225784   4.576   2.179   1.337
 1409TIP3   OH225785   6.800   1.351   1.916
 1409TIP3    H125786   6.722   1.404   1.935
 1409TIP3    H225787   6.835   1.328   2.002
 1410TIP3   OH225788   5.846   1.244   1.459
 1410TIP3    H125789   5.886   1.218   1.542
 1410TIP3    H225790   5.763   1.196   1.457
 1411TIP3   OH225791   1.427   1.508   1.140
 1411TIP3    H125792   1.459   1.561   1.067
 1411TIP3    H225793   1.349   1.554   1.171
 1412TIP3   OH225794   1.022   3.753   1.831
 1412TIP3    H125795   0.964   3.786   1.763
 1412TIP3    H225796   0.964   3.725   1.901
 1413TIP3   OH225797   0.864   1.063   0.717
 1413TIP3    H125798   0.778   1.102   0.731
 1413TIP3    H225799   0.862   1.033   0.626
 1414TIP3   OH225800   6.628   0.897   7.984
 1414TIP3    H125801   6.599   0.807   7.997
 1414TIP3    H225802   6.653   0.927   8.071
 1415TIP3   OH225803   3.570   4.369   1.273
 1415TIP3    H125804   3.637   4.363   1.340
 1415TIP3    H225805   3.583   4.455   1.233
 1416TIP3   OH225806   5.344   4.477   6.912
 1416TIP3    H125807   5.421   4.430   6.879
 1416TIP3    H225808   5.375   4.567   6.923
 1417TIP3   OH225809   2.754   1.227   0.639
 1417TIP3    H125810   2.688   1.189   0.580
 1417TIP3    H225811   2.759   1.165   0.712
 1418TIP3   OH225812   2.283   2.238   6.595
 1418TIP3    H125813   2.188   2.229   6.591
 1418TIP3    H225814   2.313   2.158   6.639
 1419TIP3   OH225815   1.785   0.631   0.458
 1419TIP3    H125816   1.830   0.643   0.542
 1419TIP3    H225817   1.847   0.661   0.392
 1420TIP3   OH225818   5.366   2.988   8.727
 1420TIP3    H125819   5.448   3.023   8.761
 1420TIP3    H225820   5.360   2.900   8.765
 1421TIP3   OH225821   1.748   0.694   0.095
 1421TIP3    H125822   1.719   0.770   0.044
 1421TIP3    H225823   1.769   0.729   0.181
 1422TIP3   OH225824   6.368   0.823   1.301
 1422TIP3    H125825   6.313   0.883   1.252
 1422TIP3    H225826   6.369   0.742   1.249
 1423TIP3   OH225827   5.826   2.862   1.301
 1423TIP3    H125828   5.790   2.951   1.306
 1423TIP3    H225829   5.760   2.807   1.345
 1424TIP3   OH225830   1.030   0.359   8.099
 1424TIP3    H125831   0.939   0.332   8.113
 1424TIP3    H225832   1.050   0.331   8.009
 1425TIP3   OH225833   1.763   5.997   1.238
 1425TIP3    H125834   1.763   5.921   1.297
 1425TIP3    H225835   1.839   6.048   1.265
 1426TIP3   OH225836   5.037   6.316   0.829
 1426TIP3    H125837   5.053   6.393   0.773
 1426TIP3    H225838   5.107   6.255   0.806
 1427TIP3   OH225839   6.331   4.274   8.102
 1427TIP3    H125840   6.375   4.321   8.173
 1427TIP3    H225841   6.243   4.258   8.134
 1428TIP3   OH225842   6.164   3.933   0.803
 1428TIP3    H125843   6.238   3.874   0.788
 1428TIP3    H225844   6.145   3.971   0.717
 1429TIP3   OH225845   1.420   5.010   1.852
 1429TIP3    H125846   1.498   5.065   1.865
 1429TIP3    H225847   1.455   4.924   1.828
 1430TIP3   OH225848   0.740   6.195   0.657
 1430TIP3    H125849   0.763   6.214   0.748
 1430TIP3    H225850   0.823   6.168   0.617
 1431TIP3   OH225851   4.168   3.302   8.576
 1431TIP3    H125852   4.192   3.379   8.524
 1431TIP3    H225853   4.250   3.255   8.589
 1432TIP3   OH225854   3.249   3.625   5.946
 1432TIP3    H125855   3.283   3.659   6.028
 1432TIP3    H225856   3.179   3.565   5.972
 1433TIP3   OH225857   5.576   5.603   8.075
 1433TIP3    H125858   5.495   5.648   8.099
 1433TIP3    H225859   5.600   5.640   7.990
 1434TIP3   OH225860   0.286   0.677   0.546
 1434TIP3    H125861   0.299   0.611   0.478
 1434TIP3    H225862   0.218   0.735   0.511
 1435TIP3   OH225863   1.931   2.464   6.818
 1435TIP3    H125864   1.918   2.551   6.854
 1435TIP3    H225865   2.007   2.429   6.866
 1436TIP3   OH225866   5.947   0.140   0.601
 1436TIP3    H125867   5.899   0.103   0.675
 1436TIP3    H225868   5.882   0.144   0.531
 1437TIP3   OH225869   6.621   3.587   8.193
 1437TIP3    H125870   6.674   3.578   8.273
 1437TIP3    H225871   6.571   3.668   8.206
 1438TIP3   OH225872   5.841   2.507   7.271
 1438TIP3    H125873   5.849   2.598   7.298
 1438TIP3    H225874   5.819   2.511   7.178
 1439TIP3   OH225875   1.601   1.911   1.917
 1439TIP3    H125876   1.659   1.976   1.875
 1439TIP3    H225877   1.608   1.931   2.010
 1440TIP3   OH225878   0.891   1.119   1.441
 1440TIP3    H125879   0.931   1.096   1.525
 1440TIP3    H225880   0.913   1.046   1.384
 1441TIP3   OH225881   3.377   5.858   0.677
 1441TIP3    H125882   3.403   5.927   0.738
 1441TIP3    H225883   3.442   5.789   0.691
 1442TIP3   OH225884   2.043   5.210   8.216
 1442TIP3    H125885   2.125   5.170   8.247
 1442TIP3    H225886   2.022   5.276   8.282
 1443TIP3   OH225887   0.445   4.442   6.194
 1443TIP3    H125888   0.528   4.487   6.207
 1443TIP3    H225889   0.457   4.393   6.113
 1444TIP3   OH225890   6.195   3.148   0.915
 1444TIP3    H125891   6.255   3.205   0.964
 1444TIP3    H225892   6.220   3.161   0.823
 1445TIP3   OH225893   3.942   2.313   8.720
 1445TIP3    H125894   3.910   2.356   8.641
 1445TIP3    H225895   3.992   2.238   8.689
 1446TIP3   OH225896   0.361   3.835   6.774
 1446TIP3    H125897   0.348   3.742   6.791
 1446TIP3    H225898   0.447   3.854   6.812
 1447TIP3   OH225899   5.829   3.493   0.270
 1447TIP3    H125900   5.842   3.420   0.330
 1447TIP3    H225901   5.781   3.558   0.322
 1448TIP3   OH225902   2.877   4.982   8.682
 1448TIP3    H125903   2.918   4.911   8.632
 1448TIP3    H225904   2.950   5.028   8.723
 1449TIP3   OH225905   0.265   4.654   8.278
 1449TIP3    H125906   0.237   4.572   8.318
 1449TIP3    H225907   0.210   4.663   8.200
 1450TIP3   OH225908   5.980   2.721   0.878
 1450TIP3    H125909   5.987   2.751   0.787
 1450TIP3    H225910   6.030   2.639   0.880
 1451TIP3   OH225911   5.885   6.356   0.566
 1451TIP3    H125912   5.863   6.294   0.497
 1451TIP3    H225913   5.890   6.302   0.645
 1452TIP3   OH225914   6.470   5.077   1.685
 1452TIP3    H125915   6.477   5.158   1.736
 1452TIP3    H225916   6.526   5.015   1.730
 1453TIP3   OH225917   2.706   5.180   0.320
 1453TIP3    H125918   2.660   5.214   0.242
 1453TIP3    H225919   2.781   5.133   0.284
 1454TIP3   OH225920   2.831   5.572   0.979
 1454TIP3    H125921   2.839   5.581   1.074
 1454TIP3    H225922   2.830   5.662   0.946
 1455TIP3   OH225923   1.942   4.552   2.478
 1455TIP3    H125924   2.019   4.536   2.423
 1455TIP3    H225925   1.901   4.466   2.487
 1456TIP3   OH225926   4.345   0.048   1.617
 1456TIP3    H125927   4.369   0.009   1.533
 1456TIP3    H225928   4.272   0.107   1.597
 1457TIP3   OH225929   0.542   3.484   0.048
 1457TIP3    H125930   0.565   3.537  -0.029
 1457TIP3    H225931   0.503   3.546   0.109
 1458TIP3   OH225932   6.515   0.019   0.271
 1458TIP3    H125933   6.510  -0.063   0.221
 1458TIP3    H225934   6.433   0.023   0.320
 1459TIP3   OH225935   3.040   1.000   8.729
 1459TIP3    H125936   3.086   1.018   8.811
 1459TIP3    H225937   2.975   1.070   8.723
 1460TIP3   OH225938   5.919   0.904   1.536
 1460TIP3    H125939   5.876   0.819   1.547
 1460TIP3    H225940   5.961   0.899   1.450
 1461TIP3   OH225941   5.093   5.093   0.094
 1461TIP3    H125942   5.015   5.117   0.044
 1461TIP3    H225943   5.063   5.088   0.185
 1462TIP3   OH225944   6.770   1.638   8.675
 1462TIP3    H125945   6.692   1.675   8.632
 1462TIP3    H225946   6.735   1.574   8.736
 1463TIP3   OH225947   4.476   2.161   7.462
 1463TIP3    H125948   4.435   2.078   7.483
 1463TIP3    H225949   4.523   2.145   7.380
 1464TIP3   OH225950   1.839   5.043   7.980
 1464TIP3    H125951   1.824   5.100   8.054
 1464TIP3    H225952   1.891   5.095   7.918
 1465TIP3   OH225953   3.245   4.429   1.399
 1465TIP3    H125954   3.307   4.357   1.406
 1465TIP3    H225955   3.163   4.388   1.372
 1466TIP3   OH225956   6.793   0.154   7.432
 1466TIP3    H125957   6.700   0.174   7.421
 1466TIP3    H225958   6.820   0.116   7.348
 1467TIP3   OH225959   1.616   0.305   8.048
 1467TIP3    H125960   1.646   0.287   8.137
 1467TIP3    H225961   1.525   0.332   8.058
 1468TIP3   OH225962   5.999   5.245   2.225
 1468TIP3    H125963   5.946   5.179   2.269
 1468TIP3    H225964   6.085   5.238   2.266
 1469TIP3   OH225965   2.352   5.336   8.378
 1469TIP3    H125966   2.408   5.362   8.305
 1469TIP3    H225967   2.325   5.247   8.357
 1470TIP3   OH225968   3.705   0.938   0.140
 1470TIP3    H125969   3.754   1.017   0.118
 1470TIP3    H225970   3.771   0.877   0.174
 1471TIP3   OH225971   5.558   0.932   1.868
 1471TIP3    H125972   5.572   0.841   1.844
 1471TIP3    H225973   5.646   0.967   1.883
 1472TIP3   OH225974   3.824   0.164   8.214
 1472TIP3    H125975   3.772   0.154   8.294
 1472TIP3    H225976   3.876   0.083   8.209
 1473TIP3   OH225977   1.709   1.844   0.217
 1473TIP3    H125978   1.675   1.773   0.163
 1473TIP3    H225979   1.679   1.924   0.174
 1474TIP3   OH225980   2.412   5.448   6.940
 1474TIP3    H125981   2.407   5.543   6.927
 1474TIP3    H225982   2.329   5.426   6.982
 1475TIP3   OH225983   4.192   1.103   1.149
 1475TIP3    H125984   4.243   1.026   1.123
 1475TIP3    H225985   4.252   1.155   1.201
 1476TIP3   OH225986   6.544   0.028   1.350
 1476TIP3    H125987   6.578   0.116   1.331
 1476TIP3    H225988   6.603  -0.007   1.416
 1477TIP3   OH225989   0.971   1.907   7.627
 1477TIP3    H125990   0.990   1.994   7.662
 1477TIP3    H225991   1.049   1.856   7.646
 1478TIP3   OH225992   6.513   6.609   0.077
 1478TIP3    H125993   6.427   6.569   0.087
 1478TIP3    H225994   6.508   6.655  -0.007
 1479TIP3   OH225995   3.454   3.497   1.163
 1479TIP3    H125996   3.404   3.557   1.107
 1479TIP3    H225997   3.524   3.552   1.199
 1480TIP3   OH225998   2.005   2.941   8.662
 1480TIP3    H125999   2.057   3.007   8.616
 1480TIP3    H226000   2.055   2.922   8.741
 1481TIP3   OH226001   6.220   1.759   7.966
 1481TIP3    H126002   6.277   1.818   7.916
 1481TIP3    H226003   6.279   1.696   8.006
 1482TIP3   OH226004   5.963   2.486   1.657
 1482TIP3    H126005   5.910   2.420   1.700
 1482TIP3    H226006   6.047   2.443   1.641
 1483TIP3   OH226007   2.000   3.291   8.240
 1483TIP3    H126008   1.933   3.240   8.285
 1483TIP3    H226009   2.040   3.229   8.179
 1484TIP3   OH226010   3.488   6.009   8.260
 1484TIP3    H126011   3.406   6.011   8.211
 1484TIP3    H226012   3.552   6.050   8.202
 1485TIP3   OH226013   3.137   1.477   1.741
 1485TIP3    H126014   3.134   1.541   1.812
 1485TIP3    H226015   3.073   1.410   1.766
 1486TIP3   OH226016   5.966   0.594   6.515
 1486TIP3    H126017   5.982   0.597   6.421
 1486TIP3    H226018   6.020   0.664   6.552
 1487TIP3   OH226019   4.523   3.464   2.069
 1487TIP3    H126020   4.503   3.532   2.133
 1487TIP3    H226021   4.478   3.493   1.989
 1488TIP3   OH226022   3.778   3.248   0.223
 1488TIP3    H126023   3.720   3.245   0.298
 1488TIP3    H226024   3.802   3.156   0.208
 1489TIP3   OH226025   1.103   4.617   8.638
 1489TIP3    H126026   1.165   4.576   8.699
 1489TIP3    H226027   1.121   4.576   8.554
 1490TIP3   OH226028   4.511   5.052   1.644
 1490TIP3    H126029   4.493   5.057   1.738
 1490TIP3    H226030   4.424   5.058   1.603
 1491TIP3   OH226031   3.173   1.971   7.821
 1491TIP3    H126032   3.092   1.931   7.854
 1491TIP3    H226033   3.181   1.938   7.731
 1492TIP3   OH226034   0.081   3.267   8.305
 1492TIP3    H126035   0.169   3.244   8.337
 1492TIP3    H226036   0.065   3.355   8.341
 1493TIP3   OH226037   5.285   6.763   0.882
 1493TIP3    H126038   5.273   6.835   0.820
 1493TIP3    H226039   5.336   6.698   0.834
 1494TIP3   OH226040   4.518   2.055   0.086
 1494TIP3    H126041   4.464   2.046   0.164
 1494TIP3    H226042   4.603   2.085   0.119
 1495TIP3   OH226043   3.880   2.511   6.969
 1495TIP3    H126044   3.957   2.502   6.913
 1495TIP3    H226045   3.908   2.567   7.040
 1496TIP3   OH226046   2.943   2.903   0.437
 1496TIP3    H126047   3.009   2.935   0.375
 1496TIP3    H226048   2.944   2.808   0.425
 1497TIP3   OH226049   1.442   2.203   0.392
 1497TIP3    H126050   1.402   2.145   0.327
 1497TIP3    H226051   1.431   2.291   0.356
 1498TIP3   OH226052   1.772   2.728   7.566
 1498TIP3    H126053   1.753   2.676   7.489
 1498TIP3    H226054   1.835   2.676   7.616
 1499TIP3   OH226055   0.241   4.873   8.097
 1499TIP3    H126056   0.150   4.850   8.079
 1499TIP3    H226057   0.245   4.885   8.192
 1500TIP3   OH226058   5.033   4.898   7.792
 1500TIP3    H126059   5.074   4.938   7.869
 1500TIP3    H226060   4.944   4.933   7.791
 1501TIP3   OH226061   2.048   3.103   8.030
 1501TIP3    H126062   2.142   3.118   8.018
 1501TIP3    H226063   2.012   3.106   7.941
 1502TIP3   OH226064   1.616   4.654   7.055
 1502TIP3    H126065   1.564   4.723   7.096
 1502TIP3    H226066   1.699   4.696   7.034
 1503TIP3   OH226067   1.958   2.760   1.350
 1503TIP3    H126068   1.908   2.817   1.409
 1503TIP3    H226069   1.901   2.748   1.274
 1504TIP3   OH226070   4.010   4.719   0.364
 1504TIP3    H126071   3.974   4.687   0.281
 1504TIP3    H226072   4.099   4.746   0.342
 1505TIP3   OH226073   2.861   6.069   7.485
 1505TIP3    H126074   2.858   6.024   7.400
 1505TIP3    H226075   2.944   6.041   7.523
 1506TIP3   OH226076   5.334   1.468   0.133
 1506TIP3    H126077   5.249   1.511   0.138
 1506TIP3    H226078   5.318   1.387   0.086
 1507TIP3   OH226079   3.720   1.856   0.571
 1507TIP3    H126080   3.748   1.940   0.534
 1507TIP3    H226081   3.666   1.881   0.646
 1508TIP3   OH226082   2.618   3.168   1.107
 1508TIP3    H126083   2.637   3.088   1.157
 1508TIP3    H226084   2.589   3.137   1.021
 1509TIP3   OH226085   0.828   1.939   0.538
 1509TIP3    H126086   0.786   1.989   0.608
 1509TIP3    H226087   0.776   1.859   0.532
 1510TIP3   OH226088   4.800   1.743   8.611
 1510TIP3    H126089   4.813   1.665   8.557
 1510TIP3    H226090   4.845   1.813   8.563
 1511TIP3   OH226091   6.050   4.768   8.205
 1511TIP3    H126092   6.145   4.783   8.209
 1511TIP3    H226093   6.042   4.680   8.169
 1512TIP3   OH226094   6.435   1.783   0.437
 1512TIP3    H126095   6.455   1.876   0.440
 1512TIP3    H226096   6.510   1.741   0.479
 1513TIP3   OH226097   3.089   4.522   0.926
 1513TIP3    H126098   3.137   4.597   0.961
 1513TIP3    H226099   3.124   4.447   0.974
 1514TIP3   OH226100   2.668   0.126   0.665
 1514TIP3    H126101   2.670   0.182   0.588
 1514TIP3    H226102   2.761   0.109   0.685
 1515TIP3   OH226103   3.675   3.699   1.470
 1515TIP3    H126104   3.588   3.730   1.444
 1515TIP3    H226105   3.686   3.733   1.559
 1516TIP3   OH226106   2.316   2.702   0.011
 1516TIP3    H126107   2.288   2.778  -0.040
 1516TIP3    H226108   2.254   2.633  -0.012
 1517TIP3   OH226109   2.496   3.579   0.965
 1517TIP3    H126110   2.415   3.618   0.932
 1517TIP3    H226111   2.536   3.648   1.017
 1518TIP3   OH226112   4.483   2.337   2.287
 1518TIP3    H126113   4.486   2.249   2.250
 1518TIP3    H226114   4.573   2.355   2.313
 1519TIP3   OH226115   6.568   0.899   0.488
 1519TIP3    H126116   6.542   0.824   0.541
 1519TIP3    H226117   6.485   0.940   0.464
 1520TIP3   OH226118   0.792   2.575   8.359
 1520TIP3    H126119   0.845   2.553   8.282
 1520TIP3    H226120   0.703   2.586   8.324
 1521TIP3   OH226121   3.233   2.270   1.091
 1521TIP3    H126122   3.188   2.346   1.054
 1521TIP3    H226123   3.285   2.235   1.019
 1522TIP3   OH226124   2.350   5.219   7.661
 1522TIP3    H126125   2.286   5.243   7.728
 1522TIP3    H226126   2.354   5.123   7.665
 1523TIP3   OH226127   4.746   1.616   7.773
 1523TIP3    H126128   4.767   1.610   7.866
 1523TIP3    H226129   4.676   1.551   7.760
 1524TIP3   OH226130   1.362   5.723   0.555
 1524TIP3    H126131   1.423   5.786   0.593
 1524TIP3    H226132   1.303   5.776   0.501
 1525TIP3   OH226133   4.488   0.772   8.439
 1525TIP3    H126134   4.495   0.770   8.535
 1525TIP3    H226135   4.446   0.689   8.417
 1526TIP3   OH226136   2.944   5.479   7.473
 1526TIP3    H126137   2.916   5.503   7.385
 1526TIP3    H226138   2.891   5.401   7.494
 1527TIP3   OH226139   1.855   5.916   1.976
 1527TIP3    H126140   1.784   5.979   1.992
 1527TIP3    H226141   1.920   5.938   2.042
 1528TIP3   OH226142   4.020   5.652   6.996
 1528TIP3    H126143   4.090   5.653   6.931
 1528TIP3    H226144   4.017   5.742   7.030
 1529TIP3   OH226145   3.780   4.338   8.085
 1529TIP3    H126146   3.731   4.274   8.035
 1529TIP3    H226147   3.714   4.397   8.121
 1530TIP3   OH226148   0.656   1.355   0.082
 1530TIP3    H126149   0.662   1.428   0.020
 1530TIP3    H226150   0.578   1.307   0.055
 1531TIP3   OH226151   1.662   6.080   2.074
 1531TIP3    H126152   1.611   6.057   2.152
 1531TIP3    H226153   1.639   6.171   2.057
 1532TIP3   OH226154   4.567   3.490   1.076
 1532TIP3    H126155   4.591   3.543   1.000
 1532TIP3    H226156   4.551   3.403   1.040
 1533TIP3   OH226157   3.625   4.570   8.067
 1533TIP3    H126158   3.613   4.564   7.972
 1533TIP3    H226159   3.702   4.625   8.078
 1534TIP3   OH226160   4.094   1.342   8.576
 1534TIP3    H126161   4.002   1.335   8.603
 1534TIP3    H226162   4.143   1.343   8.658
 1535TIP3   OH226163   2.172   1.596   1.017
 1535TIP3    H126164   2.149   1.688   1.004
 1535TIP3    H226165   2.194   1.564   0.929
 1536TIP3   OH226166   5.142   4.174   6.495
 1536TIP3    H126167   5.195   4.171   6.574
 1536TIP3    H226168   5.084   4.098   6.502
 1537TIP3   OH226169   0.788   1.085   7.606
 1537TIP3    H126170   0.842   1.156   7.638
 1537TIP3    H226171   0.836   1.005   7.630
 1538TIP3   OH226172   0.983   6.183   6.932
 1538TIP3    H126173   1.017   6.113   6.877
 1538TIP3    H226174   0.901   6.148   6.967
 1539TIP3   OH226175   4.817   3.912   7.879
 1539TIP3    H126176   4.806   4.003   7.851
 1539TIP3    H226177   4.727   3.879   7.886
 1540TIP3   OH226178   4.177   1.587   1.612
 1540TIP3    H126179   4.174   1.518   1.679
 1540TIP3    H226180   4.169   1.540   1.529
 1541TIP3   OH226181   2.710   4.323   0.871
 1541TIP3    H126182   2.621   4.355   0.888
 1541TIP3    H226183   2.767   4.389   0.911
 1542TIP3   OH226184   0.901   4.877   1.643
 1542TIP3    H126185   0.924   4.829   1.722
 1542TIP3    H226186   0.825   4.929   1.668
 1543TIP3   OH226187   3.331   2.742   0.416
 1543TIP3    H126188   3.308   2.695   0.336
 1543TIP3    H226189   3.402   2.691   0.455
 1544TIP3   OH226190   1.128   1.807   6.532
 1544TIP3    H126191   1.153   1.900   6.537
 1544TIP3    H226192   1.130   1.787   6.438
 1545TIP3   OH226193   4.997   3.503   8.623
 1545TIP3    H126194   4.994   3.420   8.672
 1545TIP3    H226195   5.081   3.541   8.647
 1546TIP3   OH226196   0.442   0.988   0.181
 1546TIP3    H126197   0.528   0.948   0.191
 1546TIP3    H226198   0.384   0.936   0.237
 1547TIP3   OH226199   3.402   2.323   8.650
 1547TIP3    H126200   3.317   2.340   8.691
 1547TIP3    H226201   3.381   2.279   8.568
 1548TIP3   OH226202   4.403   3.620   0.029
 1548TIP3    H126203   4.321   3.572   0.021
 1548TIP3    H226204   4.436   3.627  -0.061
 1549TIP3   OH226205   0.770   3.281   7.632
 1549TIP3    H126206   0.865   3.287   7.632
 1549TIP3    H226207   0.746   3.266   7.541
 1550TIP3   OH226208   6.521   4.736   0.490
 1550TIP3    H126209   6.549   4.708   0.403
 1550TIP3    H226210   6.426   4.749   0.482
 1551TIP3   OH226211   2.456   6.507   0.342
 1551TIP3    H126212   2.413   6.585   0.378
 1551TIP3    H226213   2.458   6.522   0.248
 1552TIP3   OH226214   3.299   3.060   6.712
 1552TIP3    H126215   3.216   3.015   6.696
 1552TIP3    H226216   3.333   3.079   6.625
 1553TIP3   OH226217   1.937   3.060   6.766
 1553TIP3    H126218   1.860   3.114   6.743
 1553TIP3    H226219   1.989   3.057   6.686
 1554TIP3   OH226220   3.438   1.434   6.361
 1554TIP3    H126221   3.531   1.431   6.337
 1554TIP3    H226222   3.393   1.447   6.278
 1555TIP3   OH226223   1.670   2.071   5.989
 1555TIP3    H126224   1.619   2.142   6.028
 1555TIP3    H226225   1.606   2.016   5.945
 1556TIP3   OH226226   5.540   6.568   8.191
 1556TIP3    H126227   5.574   6.506   8.127
 1556TIP3    H226228   5.617   6.602   8.235
 1557TIP3   OH226229   6.566   3.038   0.252
 1557TIP3    H126230   6.635   3.092   0.214
 1557TIP3    H226231   6.563   2.960   0.196
 1558TIP3   OH226232   0.388   3.609   2.050
 1558TIP3    H126233   0.481   3.628   2.042
 1558TIP3    H226234   0.351   3.685   2.094
 1559TIP3   OH226235   5.860   6.244   8.388
 1559TIP3    H126236   5.868   6.335   8.359
 1559TIP3    H226237   5.950   6.220   8.413
 1560TIP3   OH226238   2.963   0.464   7.362
 1560TIP3    H126239   2.871   0.488   7.358
 1560TIP3    H226240   3.003   0.506   7.286
 1561TIP3   OH226241   5.508   6.033   8.655
 1561TIP3    H126242   5.435   6.085   8.624
 1561TIP3    H226243   5.575   6.042   8.588
 1562TIP3   OH226244   5.082   2.653   0.960
 1562TIP3    H126245   5.050   2.705   0.886
 1562TIP3    H226246   5.092   2.716   1.031
 1563TIP3   OH226247   6.186   5.380   0.228
 1563TIP3    H126248   6.173   5.296   0.184
 1563TIP3    H226249   6.105   5.428   0.212
 1564TIP3   OH226250   2.235   1.037   7.151
 1564TIP3    H126251   2.248   1.132   7.141
 1564TIP3    H226252   2.284   0.998   7.078
 1565TIP3   OH226253   2.382   4.249   8.748
 1565TIP3    H126254   2.299   4.210   8.776
 1565TIP3    H226255   2.423   4.182   8.693
 1566TIP3   OH226256   0.985   2.096   7.173
 1566TIP3    H126257   0.974   2.115   7.080
 1566TIP3    H226258   1.075   2.123   7.192
 1567TIP3   OH226259   2.667   1.800   8.161
 1567TIP3    H126260   2.587   1.833   8.119
 1567TIP3    H226261   2.721   1.878   8.173
 1568TIP3   OH226262   6.784   1.092   8.545
 1568TIP3    H126263   6.765   1.031   8.474
 1568TIP3    H226264   6.698   1.129   8.568
 1569TIP3   OH226265   5.694   2.925   0.086
 1569TIP3    H126266   5.694   3.000   0.025
 1569TIP3    H226267   5.688   2.848   0.029
 1570TIP3   OH226268   5.782   1.423   0.979
 1570TIP3    H126269   5.746   1.468   1.055
 1570TIP3    H226270   5.791   1.491   0.912
 1571TIP3   OH226271   4.085   3.620   1.707
 1571TIP3    H126272   4.043   3.686   1.762
 1571TIP3    H226273   4.020   3.551   1.698
 1572TIP3   OH226274   3.491   4.365   0.293
 1572TIP3    H126275   3.548   4.435   0.262
 1572TIP3    H226276   3.410   4.409   0.319
 1573TIP3   OH226277   2.181   6.156   7.641
 1573TIP3    H126278   2.263   6.193   7.608
 1573TIP3    H226279   2.207   6.075   7.684
 1574TIP3   OH226280   0.749   6.207   2.247
 1574TIP3    H126281   0.804   6.238   2.319
 1574TIP3    H226282   0.754   6.112   2.252
 1575TIP3   OH226283   1.457   0.969   8.680
 1575TIP3    H126284   1.472   0.943   8.772
 1575TIP3    H226285   1.377   1.021   8.682
 1576TIP3   OH226286   4.351   1.676   7.828
 1576TIP3    H126287   4.256   1.661   7.825
 1576TIP3    H226288   4.388   1.592   7.854
 1577TIP3   OH226289   5.552   1.905   1.098
 1577TIP3    H126290   5.647   1.905   1.088
 1577TIP3    H226291   5.534   1.830   1.155
 1578TIP3   OH226292   1.411   5.312   0.565
 1578TIP3    H126293   1.424   5.359   0.483
 1578TIP3    H226294   1.494   5.321   0.612
 1579TIP3   OH226295   1.347   2.157   0.670
 1579TIP3    H126296   1.377   2.066   0.671
 1579TIP3    H226297   1.373   2.190   0.583
 1580TIP3   OH226298   5.436   4.107   2.230
 1580TIP3    H126299   5.407   4.165   2.159
 1580TIP3    H226300   5.417   4.157   2.310
 1581TIP3   OH226301   5.749   5.130   0.688
 1581TIP3    H126302   5.680   5.196   0.690
 1581TIP3    H226303   5.703   5.047   0.684
 1582TIP3   OH226304   2.637   4.073   1.458
 1582TIP3    H126305   2.635   4.027   1.542
 1582TIP3    H226306   2.587   4.154   1.474
 1583TIP3   OH226307   3.618   5.181   6.303
 1583TIP3    H126308   3.662   5.211   6.383
 1583TIP3    H226309   3.532   5.222   6.307
 1584TIP3   OH226310   3.186   0.243   8.680
 1584TIP3    H126311   3.251   0.173   8.677
 1584TIP3    H226312   3.102   0.199   8.665
 1585TIP3   OH226313   5.578   3.669   0.839
 1585TIP3    H126314   5.593   3.710   0.754
 1585TIP3    H226315   5.590   3.576   0.824
 1586TIP3   OH226316   0.970   2.926   7.044
 1586TIP3    H126317   0.980   3.004   7.100
 1586TIP3    H226318   1.005   2.855   7.097
 1587TIP3   OH226319   3.762   3.752   0.869
 1587TIP3    H126320   3.764   3.824   0.931
 1587TIP3    H226321   3.782   3.792   0.784
 1588TIP3   OH226322   0.157   1.640   0.483
 1588TIP3    H126323   0.120   1.666   0.399
 1588TIP3    H226324   0.119   1.554   0.501
 1589TIP3   OH226325   3.716   1.186   1.771
 1589TIP3    H126326   3.677   1.106   1.735
 1589TIP3    H226327   3.789   1.155   1.825
 1590TIP3   OH226328   6.193   1.148   0.132
 1590TIP3    H126329   6.169   1.060   0.162
 1590TIP3    H226330   6.277   1.136   0.087
 1591TIP3   OH226331   0.520   3.594   7.335
 1591TIP3    H126332   0.567   3.663   7.288
 1591TIP3    H226333   0.480   3.542   7.266
 1592TIP3   OH226334   5.684   3.706   6.442
 1592TIP3    H126335   5.640   3.791   6.448
 1592TIP3    H226336   5.704   3.696   6.348
 1593TIP3   OH226337   0.501   2.588   7.562
 1593TIP3    H126338   0.445   2.516   7.590
 1593TIP3    H226339   0.448   2.667   7.574
 1594TIP3   OH226340   2.302   0.914   0.175
 1594TIP3    H126341   2.267   0.825   0.176
 1594TIP3    H226342   2.386   0.906   0.128
 1595TIP3   OH226343   2.865   2.940   1.258
 1595TIP3    H126344   2.824   2.867   1.212
 1595TIP3    H226345   2.808   2.957   1.332
 1596TIP3   OH226346   4.608   5.368   8.027
 1596TIP3    H126347   4.583   5.291   8.077
 1596TIP3    H226348   4.525   5.411   8.006
 1597TIP3   OH226349   4.296   5.389   2.334
 1597TIP3    H126350   4.335   5.331   2.269
 1597TIP3    H226351   4.309   5.344   2.417
 1598TIP3   OH226352   6.723   1.441   0.048
 1598TIP3    H126353   6.631   1.414   0.053
 1598TIP3    H226354   6.772   1.361   0.066
 1599TIP3   OH226355   3.265   1.045   1.703
 1599TIP3    H126356   3.320   1.064   1.627
 1599TIP3    H226357   3.286   0.954   1.725
 1600TIP3   OH226358   3.125   1.471   7.585
 1600TIP3    H126359   3.125   1.480   7.489
 1600TIP3    H226360   3.072   1.394   7.602
 1601TIP3   OH226361   4.401   0.377   1.769
 1601TIP3    H126362   4.497   0.379   1.779
 1601TIP3    H226363   4.387   0.345   1.680
 1602TIP3   OH226364   5.757   3.265   1.486
 1602TIP3    H126365   5.712   3.347   1.507
 1602TIP3    H226366   5.754   3.214   1.567
 1603TIP3   OH226367   5.917   0.298   7.375
 1603TIP3    H126368   5.851   0.342   7.429
 1603TIP3    H226369   5.893   0.205   7.380
 1604TIP3   OH226370   1.328   0.843   7.576
 1604TIP3    H126371   1.276   0.822   7.499
 1604TIP3    H226372   1.267   0.888   7.635
 1605TIP3   OH226373   6.573   3.569   0.494
 1605TIP3    H126374   6.665   3.579   0.468
 1605TIP3    H226375   6.523   3.605   0.421
 1606TIP3   OH226376   1.433   4.498   8.426
 1606TIP3    H126377   1.521   4.483   8.394
 1606TIP3    H226378   1.411   4.586   8.396
 1607TIP3   OH226379   4.610   5.302   6.807
 1607TIP3    H126380   4.676   5.369   6.821
 1607TIP3    H226381   4.609   5.289   6.712
 1608TIP3   OH226382   5.523   6.274   7.853
 1608TIP3    H126383   5.521   6.301   7.761
 1608TIP3    H226384   5.431   6.264   7.877
 1609TIP3   OH226385   0.731   4.548   1.008
 1609TIP3    H126386   0.776   4.611   0.952
 1609TIP3    H226387   0.756   4.463   0.973
 1610TIP3   OH226388   2.103   3.709   7.412
 1610TIP3    H126389   2.049   3.713   7.333
 1610TIP3    H226390   2.182   3.758   7.389
 1611TIP3   OH226391   5.040   6.403   7.032
 1611TIP3    H126392   5.016   6.311   7.038
 1611TIP3    H226393   4.986   6.437   6.961
 1612TIP3   OH226394   4.374   5.485   7.450
 1612TIP3    H126395   4.416   5.422   7.392
 1612TIP3    H226396   4.384   5.570   7.406
 1613TIP3   OH226397   5.256   3.750   7.806
 1613TIP3    H126398   5.177   3.700   7.782
 1613TIP3    H226399   5.246   3.767   7.900
 1614TIP3   OH226400   3.753   1.821   7.158
 1614TIP3    H126401   3.808   1.890   7.196
 1614TIP3    H226402   3.804   1.787   7.085
 1615TIP3   OH226403   6.778   5.713   8.126
 1615TIP3    H126404   6.823   5.695   8.208
 1615TIP3    H226405   6.698   5.660   8.130
 1616TIP3   OH226406   5.231   5.886   7.030
 1616TIP3    H126407   5.196   5.905   7.116
 1616TIP3    H226408   5.154   5.864   6.977
 1617TIP3   OH226409   3.760   0.486   8.816
 1617TIP3    H126410   3.693   0.523   8.874
 1617TIP3    H226411   3.831   0.550   8.817
 1618TIP3   OH226412   2.209   6.578   1.195
 1618TIP3    H126413   2.169   6.625   1.121
 1618TIP3    H226414   2.222   6.646   1.261
 1619TIP3   OH226415   1.538   0.721   8.366
 1619TIP3    H126416   1.506   0.640   8.327
 1619TIP3    H226417   1.568   0.774   8.292
 1620TIP3   OH226418   5.714   5.819   2.107
 1620TIP3    H126419   5.706   5.732   2.068
 1620TIP3    H226420   5.636   5.829   2.161
 1621TIP3   OH226421   6.372   6.210   8.525
 1621TIP3    H126422   6.311   6.283   8.515
 1621TIP3    H226423   6.421   6.207   8.442
 1622TIP3   OH226424   5.163   6.668   1.115
 1622TIP3    H126425   5.229   6.693   1.051
 1622TIP3    H226426   5.086   6.720   1.092
 1623TIP3   OH226427   4.999   4.512   8.198
 1623TIP3    H126428   5.001   4.488   8.105
 1623TIP3    H226429   4.959   4.436   8.241
 1624TIP3   OH226430   4.112   5.861   0.986
 1624TIP3    H126431   4.026   5.827   1.012
 1624TIP3    H226432   4.170   5.785   0.988
 1625TIP3   OH226433   1.993   4.375   1.340
 1625TIP3    H126434   2.022   4.296   1.294
 1625TIP3    H226435   1.916   4.347   1.389
 1626TIP3   OH226436   1.809   3.711   8.377
 1626TIP3    H126437   1.758   3.784   8.343
 1626TIP3    H226438   1.756   3.633   8.356
 1627TIP3   OH226439   2.525   3.654   7.080
 1627TIP3    H126440   2.521   3.570   7.035
 1627TIP3    H226441   2.589   3.642   7.149
 1628TIP3   OH226442   4.788   5.301   1.364
 1628TIP3    H126443   4.818   5.303   1.455
 1628TIP3    H226444   4.809   5.213   1.333
 1629TIP3   OH226445   6.770   0.507   8.808
 1629TIP3    H126446   6.807   0.444   8.747
 1629TIP3    H226447   6.739   0.579   8.752
 1630TIP3   OH226448   0.584   4.218   7.130
 1630TIP3    H126449   0.590   4.217   7.034
 1630TIP3    H226450   0.497   4.182   7.148
 1631TIP3   OH226451   2.297   2.721   8.463
 1631TIP3    H126452   2.384   2.728   8.503
 1631TIP3    H226453   2.307   2.760   8.376
 1632TIP3   OH226454   5.152   1.009   7.634
 1632TIP3    H126455   5.186   0.919   7.630
 1632TIP3    H226456   5.214   1.055   7.690
 1633TIP3   OH226457   1.520   3.046   6.660
 1633TIP3    H126458   1.491   3.129   6.697
 1633TIP3    H226459   1.579   3.010   6.726
 1634TIP3   OH226460   1.494   2.374   7.545
 1634TIP3    H126461   1.501   2.377   7.450
 1634TIP3    H226462   1.469   2.284   7.565
 1635TIP3   OH226463   3.832   1.162   7.852
 1635TIP3    H126464   3.797   1.073   7.852
 1635TIP3    H226465   3.886   1.167   7.931
 1636TIP3   OH226466   5.831   2.019   8.721
 1636TIP3    H126467   5.818   2.049   8.631
 1636TIP3    H226468   5.744   2.029   8.761
 1637TIP3   OH226469   4.977   3.244   8.738
 1637TIP3    H126470   4.953   3.268   8.828
 1637TIP3    H226471   4.899   3.200   8.704
 1638TIP3   OH226472   0.630   5.539   6.534
 1638TIP3    H126473   0.704   5.478   6.532
 1638TIP3    H226474   0.576   5.513   6.459
 1639TIP3   OH226475   0.289   0.074   2.114
 1639TIP3    H126476   0.307   0.104   2.203
 1639TIP3    H226477   0.368   0.094   2.065
 1640TIP3   OH226478   0.600   2.666   1.347
 1640TIP3    H126479   0.569   2.665   1.437
 1640TIP3    H226480   0.539   2.723   1.301
 1641TIP3   OH226481   1.068   1.418   0.683
 1641TIP3    H126482   1.028   1.503   0.700
 1641TIP3    H226483   1.051   1.367   0.762
 1642TIP3   OH226484   5.594   1.337   7.270
 1642TIP3    H126485   5.568   1.276   7.338
 1642TIP3    H226486   5.636   1.409   7.316
 1643TIP3   OH226487   2.080   4.317   0.507
 1643TIP3    H126488   2.133   4.248   0.468
 1643TIP3    H226489   2.118   4.398   0.475
 1644TIP3   OH226490   4.880   5.288   7.116
 1644TIP3    H126491   4.858   5.380   7.134
 1644TIP3    H226492   4.801   5.239   7.139
 1645TIP3   OH226493   0.522   0.636   2.499
 1645TIP3    H126494   0.498   0.688   2.422
 1645TIP3    H226495   0.567   0.699   2.557
 1646TIP3   OH226496   6.222   6.191   0.881
 1646TIP3    H126497   6.183   6.117   0.928
 1646TIP3    H226498   6.257   6.152   0.800
 1647TIP3   OH226499   0.723   6.032   6.358
 1647TIP3    H126500   0.745   6.075   6.441
 1647TIP3    H226501   0.677   6.099   6.308
 1648TIP3   OH226502   3.080   5.129   8.792
 1648TIP3    H126503   3.164   5.087   8.810
 1648TIP3    H226504   3.100   5.193   8.723
 1649TIP3   OH226505   0.827   4.194   8.296
 1649TIP3    H126506   0.756   4.131   8.309
 1649TIP3    H226507   0.858   4.178   8.207
 1650TIP3   OH226508   2.917   5.787   0.134
 1650TIP3    H126509   2.981   5.854   0.112
 1650TIP3    H226510   2.833   5.832   0.133
 1651TIP3   OH226511   3.510   3.097   0.121
 1651TIP3    H126512   3.545   3.183   0.145
 1651TIP3    H226513   3.453   3.113   0.046
 1652TIP3   OH226514   2.463   2.779   1.730
 1652TIP3    H126515   2.491   2.831   1.805
 1652TIP3    H226516   2.518   2.700   1.734
 1653TIP3   OH226517   0.259   0.827   7.751
 1653TIP3    H126518   0.345   0.851   7.785
 1653TIP3    H226519   0.197   0.874   7.807
 1654TIP3   OH226520   1.412   6.631   0.938
 1654TIP3    H126521   1.498   6.634   0.981
 1654TIP3    H226522   1.412   6.707   0.880
 1655TIP3   OH226523   3.177   1.519   8.490
 1655TIP3    H126524   3.147   1.597   8.442
 1655TIP3    H226525   3.215   1.463   8.422
 1656TIP3   OH226526   2.751   4.626   0.649
 1656TIP3    H126527   2.745   4.674   0.732
 1656TIP3    H226528   2.843   4.600   0.643
 1657TIP3   OH226529   2.548   3.574   0.331
 1657TIP3    H126530   2.561   3.487   0.369
 1657TIP3    H226531   2.584   3.634   0.396
 1658TIP3   OH226532   0.290   5.686   7.397
 1658TIP3    H126533   0.368   5.733   7.369
 1658TIP3    H226534   0.322   5.608   7.442
 1659TIP3   OH226535   2.892   0.895   8.071
 1659TIP3    H126536   2.914   0.847   7.991
 1659TIP3    H226537   2.798   0.882   8.082
 1660TIP3   OH226538   0.821   4.365   0.416
 1660TIP3    H126539   0.871   4.295   0.457
 1660TIP3    H226540   0.874   4.444   0.429
 1661TIP3   OH226541   5.462   4.198   0.401
 1661TIP3    H126542   5.406   4.181   0.325
 1661TIP3    H226543   5.411   4.168   0.476
 1662TIP3   OH226544   5.340   2.242   7.209
 1662TIP3    H126545   5.357   2.291   7.128
 1662TIP3    H226546   5.401   2.279   7.273
 1663TIP3   OH226547   4.160   2.600   8.644
 1663TIP3    H126548   4.132   2.532   8.583
 1663TIP3    H226549   4.249   2.574   8.669
 1664TIP3   OH226550   0.028   3.880   1.959
 1664TIP3    H126551   0.072   3.927   2.029
 1664TIP3    H226552   0.092   3.815   1.930
 1665TIP3   OH226553   3.801   4.566   6.170
 1665TIP3    H126554   3.863   4.601   6.234
 1665TIP3    H226555   3.738   4.637   6.156
 1666TIP3   OH226556   4.951   0.232   0.400
 1666TIP3    H126557   5.011   0.300   0.369
 1666TIP3    H226558   4.880   0.232   0.335
 1667TIP3   OH226559   3.282   5.043   0.268
 1667TIP3    H126560   3.306   4.951   0.283
 1667TIP3    H226561   3.310   5.061   0.179
 1668TIP3   OH226562   0.932   3.992   6.545
 1668TIP3    H126563   1.008   4.038   6.580
 1668TIP3    H226564   0.967   3.937   6.475
 1669TIP3   OH226565   0.952   1.029   1.717
 1669TIP3    H126566   0.867   1.044   1.757
 1669TIP3    H226567   1.010   1.010   1.790
 1670TIP3   OH226568   0.541   6.330   2.102
 1670TIP3    H126569   0.607   6.303   2.165
 1670TIP3    H226570   0.492   6.251   2.081
 1671TIP3   OH226571   2.955   2.465   6.047
 1671TIP3    H126572   2.968   2.526   5.975
 1671TIP3    H226573   2.875   2.495   6.089
 1672TIP3   OH226574   1.693   1.638   7.371
 1672TIP3    H126575   1.688   1.669   7.462
 1672TIP3    H226576   1.765   1.575   7.372
 1673TIP3   OH226577   5.659   1.469   6.330
 1673TIP3    H126578   5.736   1.525   6.344
 1673TIP3    H226579   5.616   1.506   6.253
 1674TIP3   OH226580   2.159   4.744   7.782
 1674TIP3    H126581   2.160   4.797   7.702
 1674TIP3    H226582   2.067   4.719   7.793
 1675TIP3   OH226583   5.658   5.545   2.008
 1675TIP3    H126584   5.689   5.480   2.071
 1675TIP3    H226585   5.566   5.559   2.031
 1676TIP3   OH226586   4.516   1.706   2.544
 1676TIP3    H126587   4.456   1.718   2.617
 1676TIP3    H226588   4.509   1.788   2.494
 1677TIP3   OH226589   1.548   6.662   6.965
 1677TIP3    H126590   1.606   6.592   6.937
 1677TIP3    H226591   1.465   6.644   6.921
 1678TIP3   OH226592   3.346   6.153   1.257
 1678TIP3    H126593   3.414   6.154   1.324
 1678TIP3    H226594   3.281   6.217   1.287
 1679TIP3   OH226595   6.278   4.913   1.322
 1679TIP3    H126596   6.296   4.819   1.328
 1679TIP3    H226597   6.310   4.948   1.406
 1680TIP3   OH226598   4.804   4.000   7.300
 1680TIP3    H126599   4.718   4.018   7.263
 1680TIP3    H226600   4.814   3.905   7.294
 1681TIP3   OH226601   5.544   3.667   1.755
 1681TIP3    H126602   5.502   3.582   1.767
 1681TIP3    H226603   5.475   3.723   1.719
 1682TIP3   OH226604   6.670   5.532   1.320
 1682TIP3    H126605   6.751   5.489   1.348
 1682TIP3    H226606   6.669   5.614   1.368
 1683TIP3   OH226607   0.860   1.854   7.946
 1683TIP3    H126608   0.859   1.944   7.980
 1683TIP3    H226609   0.797   1.855   7.874
 1684TIP3   OH226610   0.929   1.164   8.486
 1684TIP3    H126611   0.863   1.214   8.438
 1684TIP3    H226612   0.932   1.205   8.572
 1685TIP3   OH226613   0.709   1.992   7.091
 1685TIP3    H126614   0.670   1.992   7.003
 1685TIP3    H226615   0.779   2.057   7.086
 1686TIP3   OH226616   2.856   5.556   7.893
 1686TIP3    H126617   2.876   5.550   7.987
 1686TIP3    H226618   2.815   5.472   7.872
 1687TIP3   OH226619   1.695   1.159   0.053
 1687TIP3    H126620   1.780   1.144   0.094
 1687TIP3    H226621   1.641   1.085   0.082
 1688TIP3   OH226622   4.840   0.305   8.127
 1688TIP3    H126623   4.906   0.283   8.193
 1688TIP3    H226624   4.762   0.324   8.178
 1689TIP3   OH226625   3.802   5.423   8.611
 1689TIP3    H126626   3.756   5.347   8.647
 1689TIP3    H226627   3.798   5.410   8.516
 1690TIP3   OH226628   2.418   1.565   0.231
 1690TIP3    H126629   2.365   1.510   0.289
 1690TIP3    H226630   2.382   1.549   0.144
 1691TIP3   OH226631   2.212   6.395   0.386
 1691TIP3    H126632   2.164   6.478   0.381
 1691TIP3    H226633   2.304   6.420   0.376
 1692TIP3   OH226634   4.109   4.468   1.573
 1692TIP3    H126635   4.021   4.474   1.608
 1692TIP3    H226636   4.157   4.415   1.637
 1693TIP3   OH226637   4.002   0.772   2.648
 1693TIP3    H126638   3.987   0.834   2.577
 1693TIP3    H226639   4.066   0.816   2.704
 1694TIP3   OH226640   2.641   3.993   6.113
 1694TIP3    H126641   2.723   3.945   6.116
 1694TIP3    H226642   2.617   4.006   6.205
 1695TIP3   OH226643   5.662   4.027   8.067
 1695TIP3    H126644   5.587   4.019   8.126
 1695TIP3    H226645   5.727   4.077   8.117
 1696TIP3   OH226646   4.051   4.053   8.189
 1696TIP3    H126647   4.116   4.023   8.252
 1696TIP3    H226648   4.024   3.974   8.142
 1697TIP3   OH226649   2.287   4.316   8.372
 1697TIP3    H126650   2.316   4.387   8.429
 1697TIP3    H226651   2.354   4.310   8.305
 1698TIP3   OH226652   3.288   1.474   7.835
 1698TIP3    H126653   3.327   1.540   7.893
 1698TIP3    H226654   3.200   1.460   7.869
 1699TIP3   OH226655   0.789   4.022   1.010
 1699TIP3    H126656   0.788   4.099   0.954
 1699TIP3    H226657   0.732   4.045   1.084
 1700TIP3   OH226658   2.280   2.414   0.376
 1700TIP3    H126659   2.251   2.324   0.363
 1700TIP3    H226660   2.273   2.429   0.470
 1701TIP3   OH226661   4.867   4.900   8.105
 1701TIP3    H126662   4.959   4.899   8.131
 1701TIP3    H226663   4.826   4.965   8.162
 1702TIP3   OH226664   5.811   5.429   7.455
 1702TIP3    H126665   5.833   5.521   7.437
 1702TIP3    H226666   5.895   5.388   7.476
 1703TIP3   OH226667   5.877   2.914   7.852
 1703TIP3    H126668   5.897   2.934   7.760
 1703TIP3    H226669   5.866   2.819   7.854
 1704TIP3   OH226670   2.353   2.769   0.290
 1704TIP3    H126671   2.396   2.684   0.276
 1704TIP3    H226672   2.317   2.792   0.204
 1705TIP3   OH226673   0.287   3.053   1.890
 1705TIP3    H126674   0.353   3.035   1.823
 1705TIP3    H226675   0.291   2.978   1.949
 1706TIP3   OH226676   5.071   5.386   8.513
 1706TIP3    H126677   5.078   5.309   8.458
 1706TIP3    H226678   5.162   5.415   8.526
 1707TIP3   OH226679   1.130   5.975   1.468
 1707TIP3    H126680   1.121   5.922   1.547
 1707TIP3    H226681   1.096   5.918   1.398
 1708TIP3   OH226682   6.211   1.800   1.294
 1708TIP3    H126683   6.210   1.867   1.225
 1708TIP3    H226684   6.296   1.757   1.285
 1709TIP3   OH226685   6.253   1.382   1.178
 1709TIP3    H126686   6.222   1.343   1.260
 1709TIP3    H226687   6.347   1.396   1.192
 1710TIP3   OH226688   2.981   5.091   0.197
 1710TIP3    H126689   3.005   5.095   0.104
 1710TIP3    H226690   3.047   5.033   0.236
 1711TIP3   OH226691   1.450   2.364   0.832
 1711TIP3    H126692   1.494   2.318   0.761
 1711TIP3    H226693   1.358   2.340   0.823
 1712TIP3   OH226694   1.202   5.129   0.547
 1712TIP3    H126695   1.118   5.173   0.547
 1712TIP3    H226696   1.266   5.199   0.555
 1713TIP3   OH226697   0.028   2.727   7.161
 1713TIP3    H126698   0.120   2.755   7.158
 1713TIP3    H226699  -0.017   2.800   7.205
 1714TIP3   OH226700   4.504   1.599   2.084
 1714TIP3    H126701   4.488   1.684   2.124
 1714TIP3    H226702   4.459   1.603   2.000
 1715TIP3   OH226703   2.706   4.245   8.351
 1715TIP3    H126704   2.708   4.210   8.262
 1715TIP3    H226705   2.689   4.339   8.339
 1716TIP3   OH226706   5.878   0.669   1.877
 1716TIP3    H126707   5.933   0.686   1.800
 1716TIP3    H226708   5.926   0.604   1.927
 1717TIP3   OH226709   3.586   5.453   6.502
 1717TIP3    H126710   3.658   5.389   6.501
 1717TIP3    H226711   3.626   5.533   6.468
 1718TIP3   OH226712   5.654   0.365   7.859
 1718TIP3    H126713   5.628   0.327   7.943
 1718TIP3    H226714   5.603   0.445   7.851
 1719TIP3   OH226715   3.883   5.378   7.545
 1719TIP3    H126716   3.827   5.422   7.609
 1719TIP3    H226717   3.972   5.387   7.581
 1720TIP3   OH226718   3.806   3.128   7.079
 1720TIP3    H126719   3.819   3.134   7.174
 1720TIP3    H226720   3.762   3.210   7.057
 1721TIP3   OH226721   6.020   0.251   7.685
 1721TIP3    H126722   5.988   0.162   7.696
 1721TIP3    H226723   5.999   0.273   7.594
 1722TIP3   OH226724   2.242   4.605   8.144
 1722TIP3    H126725   2.280   4.585   8.058
 1722TIP3    H226726   2.179   4.534   8.159
 1723TIP3   OH226727   0.844   5.870   7.995
 1723TIP3    H126728   0.779   5.801   7.982
 1723TIP3    H226729   0.915   5.848   7.935
 1724TIP3   OH226730   3.221   0.961   0.826
 1724TIP3    H126731   3.136   0.935   0.791
 1724TIP3    H226732   3.246   1.037   0.773
 1725TIP3   OH226733   5.463   1.065   8.121
 1725TIP3    H126734   5.372   1.037   8.113
 1725TIP3    H226735   5.494   1.023   8.201
 1726TIP3   OH226736   3.294   2.753   7.374
 1726TIP3    H126737   3.296   2.722   7.284
 1726TIP3    H226738   3.207   2.728   7.406
 1727TIP3   OH226739   6.597   2.297   1.978
 1727TIP3    H126740   6.614   2.374   2.032
 1727TIP3    H226741   6.521   2.255   2.019
 1728TIP3   OH226742   2.727   5.326   1.259
 1728TIP3    H126743   2.754   5.331   1.167
 1728TIP3    H226744   2.717   5.233   1.275
 1729TIP3   OH226745   5.621   5.821   7.401
 1729TIP3    H126746   5.591   5.906   7.433
 1729TIP3    H226747   5.665   5.781   7.476
 1730TIP3   OH226748   6.031   1.518   0.833
 1730TIP3    H126749   6.014   1.425   0.818
 1730TIP3    H226750   6.112   1.520   0.883
 1731TIP3   OH226751   2.458   4.431   6.735
 1731TIP3    H126752   2.554   4.423   6.730
 1731TIP3    H226753   2.429   4.435   6.644
 1732TIP3   OH226754   6.677   1.185   6.614
 1732TIP3    H126755   6.728   1.134   6.551
 1732TIP3    H226756   6.669   1.127   6.690
 1733TIP3   OH226757   5.760   0.984   0.153
 1733TIP3    H126758   5.811   0.935   0.088
 1733TIP3    H226759   5.699   1.036   0.102
 1734TIP3   OH226760   3.850   6.613   0.402
 1734TIP3    H126761   3.903   6.658   0.336
 1734TIP3    H226762   3.769   6.590   0.356
 1735TIP3   OH226763   3.730   1.605   8.558
 1735TIP3    H126764   3.669   1.540   8.524
 1735TIP3    H226765   3.675   1.670   8.601
 1736TIP3   OH226766   6.167   4.104   7.150
 1736TIP3    H126767   6.212   4.136   7.072
 1736TIP3    H226768   6.228   4.124   7.221
 1737TIP3   OH226769   4.083   6.399   1.568
 1737TIP3    H126770   4.098   6.385   1.475
 1737TIP3    H226771   4.171   6.399   1.607
 1738TIP3   OH226772   2.515   4.866   0.623
 1738TIP3    H126773   2.514   4.917   0.704
 1738TIP3    H226774   2.428   4.825   0.619
 1739TIP3   OH226775   3.088   5.735   7.976
 1739TIP3    H126776   3.168   5.788   7.973
 1739TIP3    H226777   3.099   5.671   7.906
 1740TIP3   OH226778   2.751   1.520   0.025
 1740TIP3    H126779   2.725   1.570  -0.053
 1740TIP3    H226780   2.827   1.568   0.059
 1741TIP3   OH226781   3.948   4.444   7.588
 1741TIP3    H126782   4.042   4.458   7.595
 1741TIP3    H226783   3.932   4.433   7.494
 1742TIP3   OH226784   1.829   6.628   0.951
 1742TIP3    H126785   1.752   6.618   1.007
 1742TIP3    H226786   1.798   6.608   0.863
 1743TIP3   OH226787   5.431   3.252   7.913
 1743TIP3    H126788   5.435   3.320   7.980
 1743TIP3    H226789   5.408   3.172   7.962
 1744TIP3   OH226790   4.819   1.248   7.693
 1744TIP3    H126791   4.830   1.154   7.679
 1744TIP3    H226792   4.725   1.259   7.708
 1745TIP3   OH226793   6.421   4.644   1.827
 1745TIP3    H126794   6.512   4.618   1.814
 1745TIP3    H226795   6.400   4.615   1.916
 1746TIP3   OH226796   3.775   5.661   7.644
 1746TIP3    H126797   3.728   5.605   7.581
 1746TIP3    H226798   3.708   5.720   7.678
 1747TIP3   OH226799   0.539   5.059   6.738
 1747TIP3    H126800   0.527   5.146   6.699
 1747TIP3    H226801   0.460   5.011   6.714
 1748TIP3   OH226802   0.259   5.121   7.750
 1748TIP3    H126803   0.178   5.173   7.752
 1748TIP3    H226804   0.287   5.117   7.841
 1749TIP3   OH226805   1.557   0.012   1.717
 1749TIP3    H126806   1.463   0.020   1.732
 1749TIP3    H226807   1.590  -0.035   1.795
 1750TIP3   OH226808   3.492   4.134   1.139
 1750TIP3    H126809   3.520   4.165   1.053
 1750TIP3    H226810   3.535   4.194   1.201
 1751TIP3   OH226811   2.967   0.639   2.480
 1751TIP3    H126812   3.035   0.611   2.540
 1751TIP3    H226813   2.967   0.735   2.485
 1752TIP3   OH226814   3.866   3.072   7.351
 1752TIP3    H126815   3.848   2.978   7.350
 1752TIP3    H226816   3.804   3.108   7.414
 1753TIP3   OH226817   1.748   3.317   8.656
 1753TIP3    H126818   1.754   3.366   8.738
 1753TIP3    H226819   1.693   3.370   8.600
 1754TIP3   OH226820   4.379   2.422   2.001
 1754TIP3    H126821   4.406   2.398   2.090
 1754TIP3    H226822   4.415   2.510   1.988
 1755TIP3   OH226823   5.826   1.978   6.412
 1755TIP3    H126824   5.894   2.044   6.415
 1755TIP3    H226825   5.859   1.912   6.351
 1756TIP3   OH226826   5.089   4.279   6.829
 1756TIP3    H126827   5.138   4.219   6.773
 1756TIP3    H226828   5.156   4.323   6.881
 1757TIP3   OH226829   5.831   0.940   7.460
 1757TIP3    H126830   5.909   0.959   7.512
 1757TIP3    H226831   5.843   0.849   7.433
 1758TIP3   OH226832   2.455   4.623   1.508
 1758TIP3    H126833   2.375   4.647   1.462
 1758TIP3    H226834   2.431   4.620   1.600
 1759TIP3   OH226835   6.380   2.682   1.611
 1759TIP3    H126836   6.322   2.754   1.587
 1759TIP3    H226837   6.336   2.637   1.683
 1760TIP3   OH226838   2.530   5.693   0.541
 1760TIP3    H126839   2.524   5.772   0.487
 1760TIP3    H226840   2.494   5.624   0.485
 1761TIP3   OH226841   0.279   2.572   0.102
 1761TIP3    H126842   0.246   2.640   0.161
 1761TIP3    H226843   0.323   2.510   0.160
 1762TIP3   OH226844   6.515   5.274   0.686
 1762TIP3    H126845   6.498   5.359   0.644
 1762TIP3    H226846   6.593   5.288   0.739
 1763TIP3   OH226847   0.246   2.838   7.031
 1763TIP3    H126848   0.272   2.909   7.090
 1763TIP3    H226849   0.172   2.873   6.982
 1764TIP3   OH226850   3.415   3.688   0.218
 1764TIP3    H126851   3.486   3.753   0.221
 1764TIP3    H226852   3.337   3.739   0.195
 1765TIP3   OH226853   3.098   0.566   1.101
 1765TIP3    H126854   3.036   0.592   1.033
 1765TIP3    H226855   3.183   0.568   1.058
 1766TIP3   OH226856   1.286   3.079   2.028
 1766TIP3    H126857   1.312   2.997   2.070
 1766TIP3    H226858   1.346   3.088   1.954
 1767TIP3   OH226859   5.693   2.231   6.551
 1767TIP3    H126860   5.716   2.150   6.505
 1767TIP3    H226861   5.696   2.299   6.483
 1768TIP3   OH226862   0.686   1.259   0.731
 1768TIP3    H126863   0.720   1.316   0.664
 1768TIP3    H226864   0.591   1.275   0.731
 1769TIP3   OH226865   2.474   6.508   2.016
 1769TIP3    H126866   2.547   6.568   2.029
 1769TIP3    H226867   2.514   6.421   2.024
 1770TIP3   OH226868   3.087   0.164   6.613
 1770TIP3    H126869   3.042   0.223   6.674
 1770TIP3    H226870   3.130   0.222   6.550
 1771TIP3   OH226871   2.107   0.477   7.635
 1771TIP3    H126872   2.138   0.544   7.695
 1771TIP3    H226873   2.186   0.438   7.598
 1772TIP3   OH226874   3.308   4.774   2.159
 1772TIP3    H126875   3.262   4.856   2.175
 1772TIP3    H226876   3.240   4.707   2.169
 1773TIP3   OH226877   0.052   5.867   7.339
 1773TIP3    H126878   0.123   5.813   7.374
 1773TIP3    H226879   0.073   5.874   7.245
 1774TIP3   OH226880   6.700   5.704   0.827
 1774TIP3    H126881   6.761   5.649   0.875
 1774TIP3    H226882   6.642   5.740   0.894
 1775TIP3   OH226883   1.415   5.501   1.633
 1775TIP3    H126884   1.476   5.434   1.604
 1775TIP3    H226885   1.357   5.515   1.558
 1776TIP3   OH226886   1.748   0.371   7.038
 1776TIP3    H126887   1.823   0.319   7.067
 1776TIP3    H226888   1.696   0.385   7.117
 1777TIP3   OH226889   5.748   4.235   8.819
 1777TIP3    H126890   5.677   4.178   8.792
 1777TIP3    H226891   5.811   4.232   8.747
 1778TIP3   OH226892   5.120   3.305   1.387
 1778TIP3    H126893   5.025   3.306   1.402
 1778TIP3    H226894   5.128   3.295   1.292
 1779TIP3   OH226895   3.879   4.641   1.226
 1779TIP3    H126896   3.871   4.661   1.319
 1779TIP3    H226897   3.973   4.624   1.214
 1780TIP3   OH226898   6.129   0.367   8.711
 1780TIP3    H126899   6.058   0.335   8.655
 1780TIP3    H226900   6.084   0.416   8.780
 1781TIP3   OH226901   0.753   5.026   6.937
 1781TIP3    H126902   0.671   5.016   6.889
 1781TIP3    H226903   0.819   5.036   6.869
 1782TIP3   OH226904   3.975   5.916   0.494
 1782TIP3    H126905   4.005   5.831   0.525
 1782TIP3    H226906   4.023   5.930   0.412
 1783TIP3   OH226907   2.603   5.583   1.633
 1783TIP3    H126908   2.543   5.657   1.635
 1783TIP3    H226909   2.560   5.516   1.688
 1784TIP3   OH226910   6.421   5.435   8.839
 1784TIP3    H126911   6.355   5.365   8.843
 1784TIP3    H226912   6.380   5.503   8.786
 1785TIP3   OH226913   6.404   2.459   0.551
 1785TIP3    H126914   6.499   2.456   0.535
 1785TIP3    H226915   6.368   2.395   0.490
 1786TIP3   OH226916   5.476   5.184   6.856
 1786TIP3    H126917   5.385   5.181   6.885
 1786TIP3    H226918   5.512   5.261   6.900
 1787TIP3   OH226919   5.533   6.035   0.072
 1787TIP3    H126920   5.463   6.036   0.138
 1787TIP3    H226921   5.487   6.042  -0.012
 1788TIP3   OH226922   3.672   3.347   2.424
 1788TIP3    H126923   3.717   3.284   2.368
 1788TIP3    H226924   3.582   3.349   2.390
 1789TIP3   OH226925   4.396   2.879   1.040
 1789TIP3    H126926   4.485   2.914   1.045
 1789TIP3    H226927   4.368   2.871   1.132
 1790TIP3   OH226928   5.404   2.130   1.203
 1790TIP3    H126929   5.324   2.120   1.255
 1790TIP3    H226930   5.427   2.041   1.177
 1791TIP3   OH226931   0.718   4.579   6.938
 1791TIP3    H126932   0.719   4.611   6.847
 1791TIP3    H226933   0.630   4.602   6.970
 1792TIP3   OH226934   6.551   2.432   1.664
 1792TIP3    H126935   6.602   2.503   1.626
 1792TIP3    H226936   6.503   2.395   1.589
 1793TIP3   OH226937   3.366   1.158   7.302
 1793TIP3    H126938   3.306   1.089   7.274
 1793TIP3    H226939   3.356   1.161   7.398
 1794TIP3   OH226940   0.081   2.109   0.635
 1794TIP3    H126941   0.135   2.037   0.601
 1794TIP3    H226942   0.038   2.072   0.712
 1795TIP3   OH226943   4.084   4.288   8.018
 1795TIP3    H126944   3.993   4.312   8.005
 1795TIP3    H226945   4.081   4.210   8.073
 1796TIP3   OH226946   2.678   0.010   8.730
 1796TIP3    H126947   2.651  -0.062   8.788
 1796TIP3    H226948   2.621   0.002   8.654
 1797TIP3   OH226949   1.626   1.848   7.181
 1797TIP3    H126950   1.552   1.837   7.120
 1797TIP3    H226951   1.627   1.768   7.232
 1798TIP3   OH226952   2.011   1.273   5.995
 1798TIP3    H126953   1.939   1.334   6.010
 1798TIP3    H226954   1.975   1.187   6.016
 1799TIP3   OH226955   4.323   0.958   7.280
 1799TIP3    H126956   4.403   0.907   7.295
 1799TIP3    H226957   4.254   0.907   7.322
 1800TIP3   OH226958   2.660   2.188   0.862
 1800TIP3    H126959   2.654   2.279   0.833
 1800TIP3    H226960   2.617   2.188   0.948
 1801TIP3   OH226961   5.708   3.251   7.667
 1801TIP3    H126962   5.699   3.340   7.633
 1801TIP3    H226963   5.766   3.260   7.743
 1802TIP3   OH226964   1.040   5.980   0.057
 1802TIP3    H126965   0.968   5.988  -0.004
 1802TIP3    H226966   1.076   5.892   0.041
 1803TIP3   OH226967   2.757   1.066   8.604
 1803TIP3    H126968   2.678   1.028   8.642
 1803TIP3    H226969   2.764   1.025   8.518
 1804TIP3   OH226970   0.334   3.020   0.067
 1804TIP3    H126971   0.301   3.100   0.026
 1804TIP3    H226972   0.280   2.950   0.030
 1805TIP3   OH226973   2.716   1.968   0.648
 1805TIP3    H126974   2.676   2.049   0.680
 1805TIP3    H226975   2.714   1.910   0.724
 1806TIP3   OH226976   1.140   1.528   7.863
 1806TIP3    H126977   1.178   1.471   7.796
 1806TIP3    H226978   1.165   1.486   7.946
 1807TIP3   OH226979   5.625   4.488   7.517
 1807TIP3    H126980   5.551   4.427   7.507
 1807TIP3    H226981   5.672   4.483   7.434
 1808TIP3   OH226982   0.490   4.054   2.093
 1808TIP3    H126983   0.441   4.128   2.058
 1808TIP3    H226984   0.573   4.093   2.123
 1809TIP3   OH226985   5.170   0.798   7.982
 1809TIP3    H126986   5.203   0.711   8.000
 1809TIP3    H226987   5.183   0.847   8.063
 1810TIP3   OH226988   2.315   5.871   8.048
 1810TIP3    H126989   2.318   5.966   8.041
 1810TIP3    H226990   2.266   5.842   7.971
 1811TIP3   OH226991   2.849   4.978   7.313
 1811TIP3    H126992   2.862   4.884   7.300
 1811TIP3    H226993   2.754   4.989   7.316
 1812TIP3   OH226994   1.732   0.610   6.546
 1812TIP3    H126995   1.746   0.518   6.525
 1812TIP3    H226996   1.804   0.656   6.503
 1813TIP3   OH226997   5.616   4.796   0.072
 1813TIP3    H126998   5.560   4.783  -0.004
 1813TIP3    H226999   5.672   4.869   0.048
 1814TIP3   OH227000   2.057   4.371   8.223
 1814TIP3    H127001   2.133   4.360   8.279
 1814TIP3    H227002   2.005   4.438   8.267
 1815TIP3   OH227003   5.604   1.218   6.934
 1815TIP3    H127004   5.540   1.213   7.005
 1815TIP3    H227005   5.560   1.270   6.866
 1816TIP3   OH227006   3.385   5.313   0.019
 1816TIP3    H127007   3.457   5.329   0.081
 1816TIP3    H227008   3.355   5.400  -0.006
 1817TIP3   OH227009   1.081   3.640   7.712
 1817TIP3    H127010   0.993   3.613   7.739
 1817TIP3    H227011   1.113   3.568   7.658
 1818TIP3   OH227012   2.579   6.642   8.037
 1818TIP3    H127013   2.562   6.735   8.046
 1818TIP3    H227014   2.674   6.636   8.024
 1819TIP3   OH227015   4.482   6.165   0.623
 1819TIP3    H127016   4.530   6.246   0.640
 1819TIP3    H227017   4.453   6.136   0.709
 1820TIP3   OH227018   2.442   4.924   7.614
 1820TIP3    H127019   2.369   4.927   7.553
 1820TIP3    H227020   2.418   4.855   7.676
 1821TIP3   OH227021   5.636   4.414   0.392
 1821TIP3    H127022   5.564   4.353   0.412
 1821TIP3    H227023   5.599   4.473   0.326
 1822TIP3   OH227024   2.508   6.481   7.371
 1822TIP3    H127025   2.453   6.560   7.376
 1822TIP3    H227026   2.578   6.504   7.310
 1823TIP3   OH227027   2.515   4.797   7.979
 1823TIP3    H127028   2.457   4.870   7.955
 1823TIP3    H227029   2.532   4.810   8.072
 1824TIP3   OH227030   2.659   3.998   2.015
 1824TIP3    H127031   2.744   3.982   2.055
 1824TIP3    H227032   2.660   4.092   1.993
 1825TIP3   OH227033   3.063   0.046   8.462
 1825TIP3    H127034   3.126  -0.026   8.457
 1825TIP3    H227035   2.995   0.024   8.400
 1826TIP3   OH227036   2.997   1.863   2.037
 1826TIP3    H127037   2.950   1.937   2.076
 1826TIP3    H227038   3.087   1.873   2.068
 1827TIP3   OH227039   3.173   2.725   7.760
 1827TIP3    H127040   3.123   2.768   7.830
 1827TIP3    H227041   3.151   2.633   7.768
 1828TIP3   OH227042   5.460   1.514   0.968
 1828TIP3    H127043   5.495   1.584   1.024
 1828TIP3    H227044   5.376   1.548   0.938
 1829TIP3   OH227045   3.070   5.220   0.746
 1829TIP3    H127046   3.027   5.156   0.690
 1829TIP3    H227047   3.003   5.288   0.760
 1830TIP3   OH227048   3.433   3.100   7.615
 1830TIP3    H127049   3.357   3.045   7.594
 1830TIP3    H227050   3.507   3.054   7.576
 1831TIP3   OH227051   0.658   1.747   6.141
 1831TIP3    H127052   0.602   1.708   6.074
 1831TIP3    H227053   0.643   1.841   6.133
 1832TIP3   OH227054   6.287   4.941   8.207
 1832TIP3    H127055   6.358   4.881   8.228
 1832TIP3    H227056   6.307   5.020   8.259
 1833TIP3   OH227057   0.054   1.821   6.901
 1833TIP3    H127058   0.102   1.815   6.983
 1833TIP3    H227059  -0.027   1.772   6.916
 1834TIP3   OH227060   4.954   0.045   0.995
 1834TIP3    H127061   4.944   0.138   0.976
 1834TIP3    H227062   4.866   0.009   0.983
 1835TIP3   OH227063   5.068   3.649   7.377
 1835TIP3    H127064   5.060   3.700   7.297
 1835TIP3    H227065   5.013   3.572   7.362
 1836TIP3   OH227066   4.004   4.607   7.342
 1836TIP3    H127067   3.974   4.652   7.263
 1836TIP3    H227068   4.041   4.525   7.311
 1837TIP3   OH227069   5.634   6.294   7.241
 1837TIP3    H127070   5.632   6.369   7.301
 1837TIP3    H227071   5.682   6.326   7.165
 1838TIP3   OH227072   4.746   4.878   8.680
 1838TIP3    H127073   4.726   4.792   8.716
 1838TIP3    H227074   4.744   4.865   8.585
 1839TIP3   OH227075   4.690   4.349   0.015
 1839TIP3    H127076   4.700   4.444   0.013
 1839TIP3    H227077   4.779   4.315   0.008
 1840TIP3   OH227078   4.673   4.771   0.270
 1840TIP3    H127079   4.598   4.715   0.251
 1840TIP3    H227080   4.649   4.856   0.232
 1841TIP3   OH227081   0.755   3.357   1.229
 1841TIP3    H127082   0.732   3.433   1.282
 1841TIP3    H227083   0.708   3.285   1.270
 1842TIP3   OH227084   2.478   2.536   7.209
 1842TIP3    H127085   2.566   2.567   7.187
 1842TIP3    H227086   2.470   2.454   7.161
 1843TIP3   OH227087   0.076   2.370   0.350
 1843TIP3    H127088   0.130   2.291   0.359
 1843TIP3    H227089   0.129   2.440   0.389
 1844TIP3   OH227090   4.179   6.023   1.189
 1844TIP3    H127091   4.136   5.985   1.112
 1844TIP3    H227092   4.260   6.060   1.154
 1845TIP3   OH227093   1.231   4.067   8.306
 1845TIP3    H127094   1.180   4.044   8.384
 1845TIP3    H227095   1.194   4.012   8.236
 1846TIP3   OH227096   5.438   2.036   1.914
 1846TIP3    H127097   5.380   2.108   1.893
 1846TIP3    H227098   5.509   2.075   1.966
 1847TIP3   OH227099   2.814   1.969   7.936
 1847TIP3    H127100   2.814   2.026   8.013
 1847TIP3    H227101   2.829   2.028   7.862
 1848TIP3   OH227102   0.254   0.370   8.788
 1848TIP3    H127103   0.197   0.326   8.726
 1848TIP3    H227104   0.304   0.432   8.735
 1849TIP3   OH227105   4.067   2.203   0.599
 1849TIP3    H127106   4.041   2.270   0.535
 1849TIP3    H227107   4.001   2.208   0.668
 1850TIP3   OH227108   2.511   2.357   0.509
 1850TIP3    H127109   2.438   2.362   0.448
 1850TIP3    H227110   2.489   2.420   0.578
 1851TIP3   OH227111   1.999   4.581   8.397
 1851TIP3    H127112   2.057   4.654   8.422
 1851TIP3    H227113   1.929   4.583   8.462
 1852TIP3   OH227114   3.070   3.346   6.878
 1852TIP3    H127115   2.996   3.382   6.829
 1852TIP3    H227116   3.147   3.384   6.836
 1853TIP3   OH227117   4.477   0.807   0.992
 1853TIP3    H127118   4.405   0.814   0.930
 1853TIP3    H227119   4.498   0.714   0.994
 1854TIP3   OH227120   5.790   1.172   8.343
 1854TIP3    H127121   5.787   1.184   8.248
 1854TIP3    H227122   5.846   1.096   8.356
 1855TIP3   OH227123   5.867   6.514   8.317
 1855TIP3    H127124   5.911   6.479   8.240
 1855TIP3    H227125   5.843   6.603   8.293
 1856TIP3   OH227126   0.655   5.012   1.753
 1856TIP3    H127127   0.656   4.933   1.806
 1856TIP3    H227128   0.568   5.012   1.712
 1857TIP3   OH227129   0.364   4.674   0.454
 1857TIP3    H127130   0.427   4.605   0.473
 1857TIP3    H227131   0.307   4.677   0.531
 1858TIP3   OH227132   0.319   5.124   7.996
 1858TIP3    H127133   0.246   5.182   8.018
 1858TIP3    H227134   0.292   5.038   8.027
 1859TIP3   OH227135   0.939   1.675   0.709
 1859TIP3    H127136   0.865   1.674   0.648
 1859TIP3    H227137   0.909   1.728   0.782
 1860TIP3   OH227138   2.616   5.571   7.150
 1860TIP3    H127139   2.645   5.559   7.060
 1860TIP3    H227140   2.695   5.560   7.202
 1861TIP3   OH227141   4.345   0.497   7.279
 1861TIP3    H127142   4.419   0.452   7.237
 1861TIP3    H227143   4.347   0.466   7.370
 1862TIP3   OH227144   1.428   3.184   7.517
 1862TIP3    H127145   1.473   3.262   7.486
 1862TIP3    H227146   1.393   3.143   7.437
 1863TIP3   OH227147   1.435   6.474   7.302
 1863TIP3    H127148   1.346   6.465   7.268
 1863TIP3    H227149   1.480   6.395   7.273
 1864TIP3   OH227150   6.045   4.919   2.228
 1864TIP3    H127151   5.987   4.865   2.283
 1864TIP3    H227152   6.105   4.960   2.291
 1865TIP3   OH227153   4.991   2.667   8.375
 1865TIP3    H127154   4.900   2.672   8.347
 1865TIP3    H227155   4.995   2.721   8.455
 1866TIP3   OH227156   1.908   1.816   7.124
 1866TIP3    H127157   1.911   1.859   7.038
 1866TIP3    H227158   1.823   1.841   7.160
 1867TIP3   OH227159   5.810   5.982   7.176
 1867TIP3    H127160   5.860   6.010   7.253
 1867TIP3    H227161   5.869   5.997   7.102
 1868TIP3   OH227162   0.659   3.152   1.402
 1868TIP3    H127163   0.655   3.141   1.497
 1868TIP3    H227164   0.574   3.190   1.378
 1869TIP3   OH227165   3.178   1.056   6.389
 1869TIP3    H127166   3.155   1.149   6.386
 1869TIP3    H227167   3.117   1.019   6.453
 1870TIP3   OH227168   0.406   1.667   1.628
 1870TIP3    H127169   0.442   1.740   1.678
 1870TIP3    H227170   0.314   1.663   1.653
 1871TIP3   OH227171   3.344   2.291   0.515
 1871TIP3    H127172   3.307   2.281   0.603
 1871TIP3    H227173   3.376   2.204   0.492
 1872TIP3   OH227174   5.677   5.560   0.222
 1872TIP3    H127175   5.606   5.511   0.264
 1872TIP3    H227176   5.659   5.652   0.243
 1873TIP3   OH227177   2.878   1.537   8.340
 1873TIP3    H127178   2.919   1.454   8.317
 1873TIP3    H227179   2.815   1.515   8.408
 1874TIP3   OH227180   0.856   2.191   7.697
 1874TIP3    H127181   0.849   2.197   7.602
 1874TIP3    H227182   0.950   2.199   7.715
 1875TIP3   OH227183   3.475   4.035   7.333
 1875TIP3    H127184   3.545   4.097   7.357
 1875TIP3    H227185   3.416   4.086   7.277
 1876TIP3   OH227186   6.208   3.850   8.143
 1876TIP3    H127187   6.205   3.759   8.174
 1876TIP3    H227188   6.207   3.843   8.048
 1877TIP3   OH227189   1.555   1.964   7.443
 1877TIP3    H127190   1.599   1.953   7.358
 1877TIP3    H227191   1.465   1.988   7.420
 1878TIP3   OH227192   0.138   4.987   7.222
 1878TIP3    H127193   0.169   5.070   7.187
 1878TIP3    H227194   0.054   5.007   7.263
 1879TIP3   OH227195   1.391   4.273   8.245
 1879TIP3    H127196   1.388   4.328   8.323
 1879TIP3    H227197   1.309   4.224   8.247
 1880TIP3   OH227198   2.422   2.244   1.524
 1880TIP3    H127199   2.445   2.281   1.610
 1880TIP3    H227200   2.487   2.175   1.510
 1881TIP3   OH227201   5.950   2.251   1.828
 1881TIP3    H127202   5.889   2.313   1.869
 1881TIP3    H227203   5.954   2.177   1.888
 1882TIP3   OH227204   4.912   3.436   7.421
 1882TIP3    H127205   4.856   3.359   7.422
 1882TIP3    H227206   4.853   3.509   7.439
 1883TIP3   OH227207   5.921   5.051   0.460
 1883TIP3    H127208   5.832   5.085   0.448
 1883TIP3    H227209   5.967   5.075   0.380
 1884TIP3   OH227210   3.010   5.948   0.415
 1884TIP3    H127211   3.045   5.986   0.495
 1884TIP3    H227212   2.956   6.017   0.376
 1885TIP3   OH227213   4.496   2.428   1.127
 1885TIP3    H127214   4.458   2.486   1.193
 1885TIP3    H227215   4.553   2.370   1.177
 1886TIP3   OH227216   4.837   4.587   6.902
 1886TIP3    H127217   4.926   4.618   6.882
 1886TIP3    H227218   4.784   4.618   6.829
 1887TIP3   OH227219   2.654   6.030   8.491
 1887TIP3    H127220   2.600   5.955   8.466
 1887TIP3    H227221   2.720   5.994   8.550
 1888TIP3   OH227222   6.496   3.885   8.803
 1888TIP3    H127223   6.409   3.925   8.809
 1888TIP3    H227224   6.480   3.791   8.800
 1889TIP3   OH227225   0.312   4.079   0.250
 1889TIP3    H127226   0.294   4.173   0.253
 1889TIP3    H227227   0.231   4.040   0.217
 1890TIP3   OH227228   1.204   1.100   8.690
 1890TIP3    H127229   1.136   1.062   8.635
 1890TIP3    H227230   1.163   1.108   8.776
 1891TIP3   OH227231   1.318   0.959   8.332
 1891TIP3    H127232   1.361   0.874   8.329
 1891TIP3    H227233   1.385   1.021   8.304
 1892TIP3   OH227234   6.190   3.199   7.684
 1892TIP3    H127235   6.195   3.229   7.593
 1892TIP3    H227236   6.255   3.129   7.690
 1893TIP3   OH227237   1.088   6.537   1.914
 1893TIP3    H127238   1.102   6.568   2.004
 1893TIP3    H227239   1.166   6.565   1.867
 1894TIP3   OH227240   6.563   5.663   1.938
 1894TIP3    H127241   6.557   5.646   2.032
 1894TIP3    H227242   6.656   5.668   1.921
 1895TIP3   OH227243   4.404   3.122   0.696
 1895TIP3    H127244   4.425   3.039   0.653
 1895TIP3    H227245   4.341   3.098   0.764
 1896TIP3   OH227246   0.436   1.215   8.188
 1896TIP3    H127247   0.447   1.173   8.103
 1896TIP3    H227248   0.525   1.225   8.222
 1897TIP3   OH227249   5.638   3.020   6.562
 1897TIP3    H127250   5.682   3.105   6.560
 1897TIP3    H227251   5.691   2.964   6.506
 1898TIP3   OH227252   1.708   2.466   1.217
 1898TIP3    H127253   1.662   2.508   1.289
 1898TIP3    H227254   1.783   2.422   1.258
 1899TIP3   OH227255   5.217   5.569   7.916
 1899TIP3    H127256   5.300   5.562   7.964
 1899TIP3    H227257   5.224   5.651   7.868
 1900TIP3   OH227258   5.132   0.965   6.332
 1900TIP3    H127259   5.211   0.994   6.287
 1900TIP3    H227260   5.145   0.872   6.347
 1901TIP3   OH227261   2.985   2.432   0.916
 1901TIP3    H127262   2.927   2.500   0.881
 1901TIP3    H227263   3.030   2.474   0.990
 1902TIP3   OH227264   6.686   1.615   1.540
 1902TIP3    H127265   6.666   1.708   1.546
 1902TIP3    H227266   6.601   1.574   1.522
 1903TIP3   OH227267   1.130   0.251   0.615
 1903TIP3    H127268   1.181   0.171   0.624
 1903TIP3    H227269   1.056   0.227   0.559
 1904TIP3   OH227270   2.960   3.887   8.555
 1904TIP3    H127271   3.028   3.943   8.520
 1904TIP3    H227272   2.886   3.899   8.496
 1905TIP3   OH227273   6.107   1.820   8.284
 1905TIP3    H127274   6.064   1.813   8.369
 1905TIP3    H227275   6.048   1.774   8.224
 1906TIP3   OH227276   2.582   1.858   7.156
 1906TIP3    H127277   2.631   1.889   7.232
 1906TIP3    H227278   2.630   1.892   7.081
 1907TIP3   OH227279   5.788   5.603   1.563
 1907TIP3    H127280   5.851   5.655   1.613
 1907TIP3    H227281   5.818   5.609   1.473
 1908TIP3   OH227282   2.789   5.095   8.130
 1908TIP3    H127283   2.697   5.118   8.145
 1908TIP3    H227284   2.808   5.028   8.196
 1909TIP3   OH227285   6.739   3.367   0.620
 1909TIP3    H127286   6.764   3.394   0.531
 1909TIP3    H227287   6.712   3.276   0.611
 1910TIP3   OH227288   1.641   0.574   0.726
 1910TIP3    H127289   1.677   0.659   0.752
 1910TIP3    H227290   1.580   0.594   0.655
 1911TIP3   OH227291   4.442   4.181   0.781
 1911TIP3    H127292   4.412   4.156   0.694
 1911TIP3    H227293   4.377   4.245   0.811
 1912TIP3   OH227294   6.448   2.462   6.398
 1912TIP3    H127295   6.362   2.469   6.358
 1912TIP3    H227296   6.499   2.411   6.334
 1913TIP3   OH227297   3.472   3.783   0.523
 1913TIP3    H127298   3.410   3.741   0.464
 1913TIP3    H227299   3.552   3.731   0.517
 1914TIP3   OH227300   5.130   4.832   1.773
 1914TIP3    H127301   5.179   4.832   1.855
 1914TIP3    H227302   5.081   4.750   1.773
 1915TIP3   OH227303   6.001   1.618   1.209
 1915TIP3    H127304   5.944   1.681   1.164
 1915TIP3    H227305   6.076   1.671   1.237
 1916TIP3   OH227306   5.393   5.192   7.145
 1916TIP3    H127307   5.377   5.245   7.222
 1916TIP3    H227308   5.312   5.196   7.095
 1917TIP3   OH227309   1.648   3.491   8.253
 1917TIP3    H127310   1.686   3.422   8.306
 1917TIP3    H227311   1.631   3.450   8.168
 1918TIP3   OH227312   2.563   6.612   0.963
 1918TIP3    H127313   2.598   6.646   1.045
 1918TIP3    H227314   2.637   6.566   0.922
 1919TIP3   OH227315   2.211   6.420   7.389
 1919TIP3    H127316   2.185   6.464   7.470
 1919TIP3    H227317   2.275   6.355   7.418
 1920TIP3   OH227318   5.250   5.809   0.397
 1920TIP3    H127319   5.193   5.777   0.326
 1920TIP3    H227320   5.275   5.730   0.445
 1921TIP3   OH227321   3.054   0.425   1.931
 1921TIP3    H127322   3.139   0.468   1.929
 1921TIP3    H227323   2.999   0.481   1.985
 1922TIP3   OH227324   1.634   2.253   6.849
 1922TIP3    H127325   1.728   2.245   6.862
 1922TIP3    H227326   1.625   2.306   6.770
 1923TIP3   OH227327   5.714   4.074   0.471
 1923TIP3    H127328   5.747   4.087   0.382
 1923TIP3    H227329   5.631   4.121   0.474
 1924TIP3   OH227330   4.513   6.376   1.252
 1924TIP3    H127331   4.490   6.283   1.250
 1924TIP3    H227332   4.479   6.407   1.336
 1925TIP3   OH227333   3.444   0.052   0.899
 1925TIP3    H127334   3.489   0.058   0.983
 1925TIP3    H227335   3.351   0.065   0.920
 1926TIP3   OH227336   2.951   1.229   7.950
 1926TIP3    H127337   2.937   1.161   7.884
 1926TIP3    H227338   2.885   1.211   8.017
 1927TIP3   OH227339   1.039   3.239   7.580
 1927TIP3    H127340   1.099   3.309   7.553
 1927TIP3    H227341   1.042   3.176   7.507
 1928TIP3   OH227342   1.833   2.129   1.439
 1928TIP3    H127343   1.857   2.047   1.398
 1928TIP3    H227344   1.891   2.194   1.399
 1929TIP3   OH227345   3.510   0.993   8.187
 1929TIP3    H127346   3.566   1.057   8.144
 1929TIP3    H227347   3.449   1.046   8.239
 1930TIP3   OH227348   0.993   6.550   8.536
 1930TIP3    H127349   0.983   6.460   8.569
 1930TIP3    H227350   0.944   6.604   8.598
 1931TIP3   OH227351   2.822   0.007   8.341
 1931TIP3    H127352   2.731  -0.003   8.369
 1931TIP3    H227353   2.831   0.101   8.324
 1932TIP3   OH227354   3.825   3.614   7.100
 1932TIP3    H127355   3.899   3.598   7.041
 1932TIP3    H227356   3.762   3.663   7.048
 1933TIP3   OH227357   3.696   5.848   0.536
 1933TIP3    H127358   3.657   5.929   0.502
 1933TIP3    H227359   3.788   5.869   0.547
 1934TIP3   OH227360   4.340   4.819   7.281
 1934TIP3    H127361   4.272   4.842   7.218
 1934TIP3    H227362   4.413   4.787   7.227
 1935TIP3   OH227363   5.628   6.005   7.947
 1935TIP3    H127364   5.583   5.980   8.028
 1935TIP3    H227365   5.647   6.098   7.957
 1936TIP3   OH227366   5.559   4.946   2.391
 1936TIP3    H127367   5.471   4.953   2.355
 1936TIP3    H227368   5.599   4.874   2.342
 1937TIP3   OH227369   5.703   3.087   6.142
 1937TIP3    H127370   5.679   3.010   6.092
 1937TIP3    H227371   5.620   3.121   6.175
 1938TIP3   OH227372   0.420   4.775   8.700
 1938TIP3    H127373   0.390   4.710   8.636
 1938TIP3    H227374   0.434   4.855   8.649
 1939TIP3   OH227375   2.078   0.090   0.971
 1939TIP3    H127376   2.031   0.074   1.053
 1939TIP3    H227377   2.113   0.178   0.980
 1940TIP3   OH227378   0.859   3.992   7.484
 1940TIP3    H127379   0.913   4.022   7.412
 1940TIP3    H227380   0.769   3.997   7.450
 1941TIP3   OH227381   4.781   5.766   1.297
 1941TIP3    H127382   4.815   5.681   1.268
 1941TIP3    H227383   4.842   5.830   1.262
 1942TIP3   OH227384   1.392   2.115   6.843
 1942TIP3    H127385   1.319   2.169   6.873
 1942TIP3    H227386   1.469   2.170   6.854
 1943TIP3   OH227387   3.570   2.588   8.361
 1943TIP3    H127388   3.650   2.538   8.373
 1943TIP3    H227389   3.545   2.615   8.449
 1944TIP3   OH227390   2.875   5.921   1.201
 1944TIP3    H127391   2.954   5.886   1.160
 1944TIP3    H227392   2.804   5.894   1.143
 1945TIP3   OH227393   0.238   5.290   7.131
 1945TIP3    H127394   0.321   5.277   7.084
 1945TIP3    H227395   0.171   5.278   7.065
 1946TIP3   OH227396   4.554   5.516   7.071
 1946TIP3    H127397   4.549   5.607   7.100
 1946TIP3    H227398   4.609   5.518   6.993
 1947TIP3   OH227399   6.789   1.035   0.721
 1947TIP3    H127400   6.863   1.072   0.673
 1947TIP3    H227401   6.718   1.031   0.658
 1948TIP3   OH227402   0.935   5.119   1.938
 1948TIP3    H127403   0.993   5.165   1.999
 1948TIP3    H227404   0.921   5.181   1.866
 1949TIP3   OH227405   4.833   4.308   6.938
 1949TIP3    H127406   4.820   4.394   6.979
 1949TIP3    H227407   4.924   4.311   6.907
 1950TIP3   OH227408   3.132   0.830   0.248
 1950TIP3    H127409   3.193   0.838   0.175
 1950TIP3    H227410   3.077   0.908   0.243
 1951TIP3   OH227411   1.560   3.092   0.959
 1951TIP3    H127412   1.547   3.183   0.931
 1951TIP3    H227413   1.552   3.095   1.054
 1952TIP3   OH227414   0.465   1.843   8.720
 1952TIP3    H127415   0.420   1.779   8.774
 1952TIP3    H227416   0.533   1.793   8.675
 1953TIP3   OH227417   4.316   0.340   1.047
 1953TIP3    H127418   4.228   0.342   1.085
 1953TIP3    H227419   4.338   0.247   1.042
 1954TIP3   OH227420   0.304   4.349   0.302
 1954TIP3    H127421   0.332   4.438   0.280
 1954TIP3    H227422   0.380   4.309   0.345
 1955TIP3   OH227423   4.227   3.692   1.450
 1955TIP3    H127424   4.290   3.760   1.475
 1955TIP3    H227425   4.198   3.654   1.533
 1956TIP3   OH227426   0.934   5.434   7.924
 1956TIP3    H127427   0.860   5.493   7.911
 1956TIP3    H227428   0.894   5.348   7.939
 1957TIP3   OH227429   4.418   1.053   8.659
 1957TIP3    H127430   4.351   1.021   8.719
 1957TIP3    H227431   4.494   1.070   8.715
 1958TIP3   OH227432   6.135   4.876   8.568
 1958TIP3    H127433   6.091   4.937   8.628
 1958TIP3    H227434   6.157   4.930   8.492
 1959TIP3   OH227435   4.814   6.660   8.083
 1959TIP3    H127436   4.766   6.635   8.162
 1959TIP3    H227437   4.899   6.689   8.115
 1960TIP3   OH227438   6.753   3.832   1.308
 1960TIP3    H127439   6.785   3.811   1.396
 1960TIP3    H227440   6.695   3.759   1.285
 1961TIP3   OH227441   5.987   1.729   1.660
 1961TIP3    H127442   6.030   1.785   1.725
 1961TIP3    H227443   5.936   1.790   1.606
 1962TIP3   OH227444   3.778   1.705   6.720
 1962TIP3    H127445   3.806   1.692   6.810
 1962TIP3    H227446   3.855   1.684   6.667
 1963TIP3   OH227447   1.328   4.932   0.690
 1963TIP3    H127448   1.289   5.006   0.644
 1963TIP3    H227449   1.272   4.857   0.667
 1964TIP3   OH227450   2.084   5.842   0.939
 1964TIP3    H127451   2.078   5.822   0.846
 1964TIP3    H227452   2.018   5.910   0.953
 1965TIP3   OH227453   2.199   1.445   0.762
 1965TIP3    H127454   2.275   1.406   0.717
 1965TIP3    H227455   2.159   1.371   0.808
 1966TIP3   OH227456   2.696   4.929   2.345
 1966TIP3    H127457   2.789   4.909   2.342
 1966TIP3    H227458   2.654   4.855   2.300
 1967TIP3   OH227459   2.116   3.381   7.003
 1967TIP3    H127460   2.184   3.436   7.042
 1967TIP3    H227461   2.091   3.428   6.923
 1968TIP3   OH227462   4.597   4.118   8.006
 1968TIP3    H127463   4.567   4.031   7.980
 1968TIP3    H227464   4.601   4.114   8.102
 1969TIP3   OH227465   6.324   1.135   6.815
 1969TIP3    H127466   6.263   1.184   6.870
 1969TIP3    H227467   6.378   1.202   6.773
 1970TIP3   OH227468   2.447   3.931   7.880
 1970TIP3    H127469   2.373   3.879   7.849
 1970TIP3    H227470   2.409   3.994   7.940
 1971TIP3   OH227471   2.832   2.807   6.797
 1971TIP3    H127472   2.786   2.803   6.713
 1971TIP3    H227473   2.818   2.898   6.826
 1972TIP3   OH227474   2.429   6.212   7.188
 1972TIP3    H127475   2.437   6.201   7.094
 1972TIP3    H227476   2.512   6.249   7.216
 1973TIP3   OH227477   1.140   4.100   6.702
 1973TIP3    H127478   1.111   4.189   6.681
 1973TIP3    H227479   1.236   4.106   6.706
 1974TIP3   OH227480   2.609   5.655   7.812
 1974TIP3    H127481   2.704   5.650   7.820
 1974TIP3    H227482   2.579   5.566   7.832
 1975TIP3   OH227483   1.253   2.061   0.912
 1975TIP3    H127484   1.298   2.107   0.841
 1975TIP3    H227485   1.162   2.054   0.882
 1976TIP3   OH227486   1.475   2.647   1.329
 1976TIP3    H127487   1.417   2.699   1.274
 1976TIP3    H227488   1.497   2.704   1.402
 1977TIP3   OH227489   0.050   2.960   0.162
 1977TIP3    H127490   0.070   3.052   0.173
 1977TIP3    H227491   0.090   2.935   0.079
 1978TIP3   OH227492   5.589   5.073   1.544
 1978TIP3    H127493   5.560   5.010   1.477
 1978TIP3    H227494   5.603   5.154   1.495
 1979TIP3   OH227495   5.567   2.103   8.787
 1979TIP3    H127496   5.497   2.087   8.724
 1979TIP3    H227497   5.549   2.042   8.858
 1980TIP3   OH227498   1.162   1.810   0.335
 1980TIP3    H127499   1.214   1.891   0.339
 1980TIP3    H227500   1.219   1.743   0.374
 1981TIP3   OH227501   1.658   4.580   7.659
 1981TIP3    H127502   1.696   4.663   7.688
 1981TIP3    H227503   1.664   4.523   7.736
 1982TIP3   OH227504   0.886   0.688   6.413
 1982TIP3    H127505   0.920   0.664   6.499
 1982TIP3    H227506   0.924   0.775   6.396
 1983TIP3   OH227507   5.519   1.574   8.038
 1983TIP3    H127508   5.536   1.481   8.023
 1983TIP3    H227509   5.552   1.591   8.126
 1984TIP3   OH227510   4.995   0.034   1.992
 1984TIP3    H127511   4.915   0.074   1.959
 1984TIP3    H227512   4.977  -0.060   1.992
 1985TIP3   OH227513   3.080   5.496   0.454
 1985TIP3    H127514   3.101   5.516   0.363
 1985TIP3    H227515   3.025   5.570   0.482
 1986TIP3   OH227516   6.534   6.216   0.484
 1986TIP3    H127517   6.459   6.195   0.541
 1986TIP3    H227518   6.530   6.150   0.415
 1987TIP3   OH227519   6.638   5.977   7.495
 1987TIP3    H127520   6.707   5.945   7.436
 1987TIP3    H227521   6.574   5.907   7.497
 1988TIP3   OH227522   2.116   1.656   7.233
 1988TIP3    H127523   2.065   1.713   7.175
 1988TIP3    H227524   2.188   1.624   7.177
 1989TIP3   OH227525   6.585   1.393   0.464
 1989TIP3    H127526   6.610   1.319   0.409
 1989TIP3    H227527   6.589   1.469   0.406
 1990TIP3   OH227528   3.077   3.155   0.551
 1990TIP3    H127529   3.102   3.067   0.523
 1990TIP3    H227530   3.096   3.157   0.645
 1991TIP3   OH227531   4.794   1.460   2.093
 1991TIP3    H127532   4.885   1.478   2.116
 1991TIP3    H227533   4.745   1.473   2.174
 1992TIP3   OH227534   1.042   5.336   8.406
 1992TIP3    H127535   0.947   5.332   8.394
 1992TIP3    H227536   1.077   5.346   8.317
 1993TIP3   OH227537   4.620   0.262   0.983
 1993TIP3    H127538   4.641   0.237   1.074
 1993TIP3    H227539   4.532   0.228   0.969
 1994TIP3   OH227540   6.314   4.476   7.916
 1994TIP3    H127541   6.320   4.387   7.951
 1994TIP3    H227542   6.256   4.469   7.840
 1995TIP3   OH227543   0.088   5.570   1.700
 1995TIP3    H127544   0.065   5.540   1.788
 1995TIP3    H227545   0.098   5.664   1.709
 1996TIP3   OH227546   5.177   0.453   1.350
 1996TIP3    H127547   5.168   0.492   1.437
 1996TIP3    H227548   5.154   0.524   1.289
 1997TIP3   OH227549   4.552   4.614   1.202
 1997TIP3    H127550   4.474   4.631   1.150
 1997TIP3    H227551   4.525   4.628   1.292
 1998TIP3   OH227552   5.944   3.202   0.717
 1998TIP3    H127553   6.023   3.194   0.663
 1998TIP3    H227554   5.951   3.130   0.779
 1999TIP3   OH227555   3.187   2.730   6.582
 1999TIP3    H127556   3.120   2.797   6.591
 1999TIP3    H227557   3.213   2.735   6.490
 2000TIP3   OH227558   2.780   0.643   7.297
 2000TIP3    H127559   2.756   0.689   7.217
 2000TIP3    H227560   2.703   0.650   7.353
 2001TIP3   OH227561   2.224   3.613   0.479
 2001TIP3    H127562   2.191   3.627   0.390
 2001TIP3    H227563   2.240   3.701   0.513
 2002TIP3   OH227564   2.344   1.105   2.270
 2002TIP3    H127565   2.396   1.037   2.314
 2002TIP3    H227566   2.259   1.064   2.256
 2003TIP3   OH227567   4.380   3.837   0.216
 2003TIP3    H127568   4.298   3.885   0.230
 2003TIP3    H227569   4.358   3.772   0.149
 2004TIP3   OH227570   4.319   6.016   6.498
 2004TIP3    H127571   4.254   6.075   6.460
 2004TIP3    H227572   4.278   5.980   6.576
 2005TIP3   OH227573   2.846   1.181   8.198
 2005TIP3    H127574   2.752   1.199   8.206
 2005TIP3    H227575   2.857   1.095   8.239
 2006TIP3   OH227576   2.134   4.050   1.461
 2006TIP3    H127577   2.222   4.017   1.445
 2006TIP3    H227578   2.107   4.087   1.377
 2007TIP3   OH227579   1.700   3.895   7.280
 2007TIP3    H127580   1.752   3.876   7.202
 2007TIP3    H227581   1.668   3.984   7.267
 2008TIP3   OH227582   5.220   6.292   7.507
 2008TIP3    H127583   5.175   6.321   7.586
 2008TIP3    H227584   5.212   6.366   7.447
 2009TIP3   OH227585   6.592   1.196   7.057
 2009TIP3    H127586   6.500   1.218   7.040
 2009TIP3    H227587   6.632   1.279   7.083
 2010TIP3   OH227588   2.900   4.325   1.955
 2010TIP3    H127589   2.813   4.288   1.939
 2010TIP3    H227590   2.887   4.420   1.945
 2011TIP3   OH227591   3.724   3.588   8.293
 2011TIP3    H127592   3.733   3.657   8.359
 2011TIP3    H227593   3.814   3.567   8.268
 2012TIP3   OH227594   5.539   5.280   0.686
 2012TIP3    H127595   5.523   5.251   0.597
 2012TIP3    H227596   5.554   5.375   0.678
 2013TIP3   OH227597   4.353   1.646   7.232
 2013TIP3    H127598   4.399   1.564   7.211
 2013TIP3    H227599   4.330   1.638   7.324
 2014TIP3   OH227600   1.511   0.727   0.301
 2014TIP3    H127601   1.489   0.717   0.394
 2014TIP3    H227602   1.441   0.682   0.255
 2015TIP3   OH227603   6.403   4.354   6.402
 2015TIP3    H127604   6.493   4.329   6.420
 2015TIP3    H227605   6.400   4.448   6.420
 2016TIP3   OH227606   6.669   4.543   1.668
 2016TIP3    H127607   6.732   4.511   1.734
 2016TIP3    H227608   6.704   4.627   1.640
 2017TIP3   OH227609   2.261   4.481   7.822
 2017TIP3    H127610   2.215   4.397   7.830
 2017TIP3    H227611   2.190   4.546   7.821
 2018TIP3   OH227612   1.718   2.687   1.985
 2018TIP3    H127613   1.646   2.651   2.037
 2018TIP3    H227614   1.682   2.768   1.948
 2019TIP3   OH227615   6.760   0.588   1.857
 2019TIP3    H127616   6.767   0.663   1.916
 2019TIP3    H227617   6.666   0.579   1.840
 2020TIP3   OH227618   2.650   2.943   6.436
 2020TIP3    H127619   2.735   2.975   6.408
 2020TIP3    H227620   2.649   2.851   6.411
 2021TIP3   OH227621   1.763   2.532   6.624
 2021TIP3    H127622   1.693   2.466   6.617
 2021TIP3    H227623   1.835   2.487   6.668
 2022TIP3   OH227624   2.338   1.568   8.808
 2022TIP3    H127625   2.254   1.590   8.768
 2022TIP3    H227626   2.355   1.478   8.780
 2023TIP3   OH227627   0.070   1.377   0.530
 2023TIP3    H127628  -0.019   1.374   0.497
 2023TIP3    H227629   0.121   1.328   0.466
 2024TIP3   OH227630   6.309   6.490   8.493
 2024TIP3    H127631   6.385   6.511   8.439
 2024TIP3    H227632   6.238   6.542   8.456
 2025TIP3   OH227633   3.271   4.948   7.657
 2025TIP3    H127634   3.322   4.887   7.710
 2025TIP3    H227635   3.183   4.909   7.654
 2026TIP3   OH227636   3.402   1.600   7.039
 2026TIP3    H127637   3.362   1.639   6.961
 2026TIP3    H227638   3.371   1.654   7.111
 2027TIP3   OH227639   0.629   6.395   1.356
 2027TIP3    H127640   0.603   6.432   1.272
 2027TIP3    H227641   0.696   6.330   1.334
 2028TIP3   OH227642   6.697   2.777   8.649
 2028TIP3    H127643   6.696   2.715   8.576
 2028TIP3    H227644   6.665   2.859   8.612
 2029TIP3   OH227645   2.897   3.949   6.211
 2029TIP3    H127646   2.889   4.040   6.181
 2029TIP3    H227647   2.963   3.952   6.280
 2030TIP3   OH227648   0.910   0.868   1.248
 2030TIP3    H127649   0.893   0.776   1.266
 2030TIP3    H227650   0.852   0.890   1.175
 2031TIP3   OH227651   3.012   1.683   8.656
 2031TIP3    H127652   3.004   1.687   8.752
 2031TIP3    H227653   3.076   1.613   8.640
 2032TIP3   OH227654   2.249   1.017   8.704
 2032TIP3    H127655   2.303   1.053   8.633
 2032TIP3    H227656   2.163   1.055   8.691
 2033TIP3   OH227657   6.149   0.300   8.187
 2033TIP3    H127658   6.065   0.339   8.212
 2033TIP3    H227659   6.212   0.371   8.196
 2034TIP3   OH227660   6.478   3.186   6.750
 2034TIP3    H127661   6.458   3.129   6.824
 2034TIP3    H227662   6.568   3.216   6.767
 2035TIP3   OH227663   4.755   3.073   7.842
 2035TIP3    H127664   4.729   3.092   7.752
 2035TIP3    H227665   4.827   3.011   7.834
 2036TIP3   OH227666   4.237   4.361   7.804
 2036TIP3    H127667   4.190   4.340   7.885
 2036TIP3    H227668   4.202   4.300   7.739
 2037TIP3   OH227669   5.387   1.610   1.310
 2037TIP3    H127670   5.467   1.562   1.290
 2037TIP3    H227671   5.356   1.572   1.393
 2038TIP3   OH227672   1.844   5.642   6.597
 2038TIP3    H127673   1.927   5.628   6.642
 2038TIP3    H227674   1.867   5.693   6.519
 2039TIP3   OH227675   4.982   2.854   0.765
 2039TIP3    H127676   4.944   2.939   0.743
 2039TIP3    H227677   4.935   2.791   0.710
 2040TIP3   OH227678   4.039   6.282   0.135
 2040TIP3    H127679   4.107   6.259   0.072
 2040TIP3    H227680   3.982   6.205   0.138
 2041TIP3   OH227681   3.795   0.388   8.032
 2041TIP3    H127682   3.741   0.460   8.065
 2041TIP3    H227683   3.805   0.329   8.107
 2042TIP3   OH227684   2.218   6.643   1.480
 2042TIP3    H127685   2.148   6.708   1.486
 2042TIP3    H227686   2.292   6.685   1.525
 2043TIP3   OH227687   5.216   5.502   0.435
 2043TIP3    H127688   5.138   5.453   0.410
 2043TIP3    H227689   5.287   5.461   0.386
 2044TIP3   OH227690   5.508   0.141   1.716
 2044TIP3    H127691   5.601   0.160   1.708
 2044TIP3    H227692   5.465   0.204   1.658
 2045TIP3   OH227693   2.483   1.086   1.205
 2045TIP3    H127694   2.568   1.053   1.175
 2045TIP3    H227695   2.462   1.033   1.281
 2046TIP3   OH227696   1.771   3.507   6.993
 2046TIP3    H127697   1.705   3.450   6.955
 2046TIP3    H227698   1.758   3.592   6.950
 2047TIP3   OH227699   4.283   5.767   6.986
 2047TIP3    H127700   4.335   5.697   6.947
 2047TIP3    H227701   4.245   5.729   7.065
 2048TIP3   OH227702   3.415   4.266   7.191
 2048TIP3    H127703   3.464   4.280   7.110
 2048TIP3    H227704   3.383   4.353   7.214
 2049TIP3   OH227705   5.495   6.038   7.164
 2049TIP3    H127706   5.422   6.047   7.226
 2049TIP3    H227707   5.551   6.113   7.183
 2050TIP3   OH227708   4.215   3.935   8.387
 2050TIP3    H127709   4.284   3.969   8.445
 2050TIP3    H227710   4.217   3.840   8.400
 2051TIP3   OH227711   2.369   0.746   8.176
 2051TIP3    H127712   2.329   0.672   8.132
 2051TIP3    H227713   2.357   0.729   8.269
 2052TIP3   OH227714   1.692   3.075   7.068
 2052TIP3    H127715   1.719   3.022   7.142
 2052TIP3    H227716   1.771   3.121   7.039
 2053TIP3   OH227717   2.344   3.080   8.015
 2053TIP3    H127718   2.384   3.165   8.033
 2053TIP3    H227719   2.352   3.069   7.920
 2054TIP3   OH227720   3.913   1.255   2.741
 2054TIP3    H127721   3.909   1.235   2.648
 2054TIP3    H227722   3.854   1.330   2.753
 2055TIP3   OH227723   3.039   3.703   7.142
 2055TIP3    H127724   2.994   3.787   7.140
 2055TIP3    H227725   3.042   3.681   7.235
 2056TIP3   OH227726   3.134   4.176   7.803
 2056TIP3    H127727   3.063   4.233   7.832
 2056TIP3    H227728   3.213   4.225   7.822
 2057TIP3   OH227729   6.097   0.669   1.440
 2057TIP3    H127730   6.193   0.672   1.435
 2057TIP3    H227731   6.071   0.607   1.372
 2058TIP3   OH227732   3.650   4.465   8.346
 2058TIP3    H127733   3.598   4.521   8.288
 2058TIP3    H227734   3.691   4.525   8.407
 2059TIP3   OH227735   1.087   4.451   7.458
 2059TIP3    H127736   1.132   4.402   7.389
 2059TIP3    H227737   1.115   4.542   7.444
 2060TIP3   OH227738   6.773   2.325   7.836
 2060TIP3    H127739   6.737   2.411   7.816
 2060TIP3    H227740   6.697   2.268   7.843
 2061TIP3   OH227741   0.564   0.206   0.326
 2061TIP3    H127742   0.517   0.188   0.408
 2061TIP3    H227743   0.500   0.189   0.257
 2062TIP3   OH227744   1.880   4.389   6.611
 2062TIP3    H127745   1.952   4.448   6.631
 2062TIP3    H227746   1.910   4.339   6.535
 2063TIP3   OH227747   5.310   0.189   0.722
 2063TIP3    H127748   5.274   0.193   0.634
 2063TIP3    H227749   5.256   0.249   0.773
 2064TIP3   OH227750   5.782   0.355   8.142
 2064TIP3    H127751   5.848   0.425   8.144
 2064TIP3    H227752   5.822   0.288   8.087
 2065TIP3   OH227753   2.300   2.418   0.945
 2065TIP3    H127754   2.233   2.482   0.971
 2065TIP3    H227755   2.363   2.418   1.016
 2066TIP3   OH227756   1.453   3.612   2.453
 2066TIP3    H127757   1.483   3.703   2.458
 2066TIP3    H227758   1.408   3.606   2.369
 2067TIP3   OH227759   2.291   2.605   7.370
 2067TIP3    H127760   2.346   2.584   7.295
 2067TIP3    H227761   2.306   2.698   7.385
 2068TIP3   OH227762   3.837   2.054   0.350
 2068TIP3    H127763   3.825   2.143   0.315
 2068TIP3    H227764   3.782   1.999   0.294
 2069TIP3   OH227765   5.530   2.337   7.032
 2069TIP3    H127766   5.572   2.251   7.039
 2069TIP3    H227767   5.602   2.399   7.036
 2070TIP3   OH227768   1.384   4.300   0.069
 2070TIP3    H127769   1.380   4.210   0.102
 2070TIP3    H227770   1.452   4.342   0.122
 2071TIP3   OH227771   2.969   2.784   2.152
 2071TIP3    H127772   3.008   2.711   2.200
 2071TIP3    H227773   3.016   2.861   2.185
 2072TIP3   OH227774   0.729   3.304   8.633
 2072TIP3    H127775   0.656   3.349   8.591
 2072TIP3    H227776   0.690   3.226   8.672
 2073TIP3   OH227777   0.013   0.647   1.351
 2073TIP3    H127778   0.086   0.617   1.299
 2073TIP3    H227779   0.040   0.733   1.383
 2074TIP3   OH227780   6.298   5.183   0.019
 2074TIP3    H127781   6.350   5.163   0.096
 2074TIP3    H227782   6.211   5.147   0.038
 2075TIP3   OH227783   5.116   5.658   0.138
 2075TIP3    H127784   5.069   5.736   0.109
 2075TIP3    H227785   5.194   5.655   0.083
 2076TIP3   OH227786   3.618   0.919   0.791
 2076TIP3    H127787   3.584   0.950   0.707
 2076TIP3    H227788   3.608   0.993   0.851
 2077TIP3   OH227789   2.994   5.174   7.477
 2077TIP3    H127790   2.901   5.199   7.484
 2077TIP3    H227791   3.001   5.134   7.390
 2078TIP3   OH227792   3.513   4.487   7.010
 2078TIP3    H127793   3.580   4.427   6.977
 2078TIP3    H227794   3.563   4.559   7.049
 2079TIP3   OH227795   3.366   0.261   0.439
 2079TIP3    H127796   3.384   0.216   0.357
 2079TIP3    H227797   3.385   0.353   0.422
 2080TIP3   OH227798   0.996   5.553   1.206
 2080TIP3    H127799   1.027   5.633   1.163
 2080TIP3    H227800   0.995   5.575   1.299
 2081TIP3   OH227801   4.644   4.649   8.806
 2081TIP3    H127802   4.583   4.616   8.740
 2081TIP3    H227803   4.596   4.641   8.889
 2082TIP3   OH227804   1.843   5.043   1.452
 2082TIP3    H127805   1.798   5.082   1.377
 2082TIP3    H227806   1.813   4.952   1.453
 2083TIP3   OH227807   2.401   2.134   0.653
 2083TIP3    H127808   2.467   2.191   0.613
 2083TIP3    H227809   2.320   2.184   0.650
 2084TIP3   OH227810   2.807   4.520   2.572
 2084TIP3    H127811   2.733   4.534   2.513
 2084TIP3    H227812   2.863   4.597   2.559
 2085TIP3   OH227813   3.247   4.731   1.012
 2085TIP3    H127814   3.337   4.697   1.012
 2085TIP3    H227815   3.244   4.792   1.085
 2086TIP3   OH227816   5.489   2.988   0.260
 2086TIP3    H127817   5.464   2.896   0.268
 2086TIP3    H227818   5.564   2.988   0.200
 2087TIP3   OH227819   5.861   5.456   7.794
 2087TIP3    H127820   5.953   5.465   7.818
 2087TIP3    H227821   5.841   5.537   7.745
 2088TIP3   OH227822   5.511   3.493   0.248
 2088TIP3    H127823   5.463   3.412   0.231
 2088TIP3    H227824   5.559   3.476   0.329
 2089TIP3   OH227825   3.858   2.488   8.222
 2089TIP3    H127826   3.874   2.419   8.157
 2089TIP3    H227827   3.834   2.565   8.170
 2090TIP3   OH227828   0.209   0.151   8.290
 2090TIP3    H127829   0.265   0.192   8.356
 2090TIP3    H227830   0.132   0.208   8.284
 2091TIP3   OH227831   0.117   3.253   6.947
 2091TIP3    H127832   0.104   3.324   7.010
 2091TIP3    H227833   0.190   3.282   6.893
 2092TIP3   OH227834   5.972   4.004   0.982
 2092TIP3    H127835   5.898   3.994   0.923
 2092TIP3    H227836   6.049   3.987   0.927
 2093TIP3   OH227837   5.755   5.880   0.134
 2093TIP3    H127838   5.687   5.933   0.091
 2093TIP3    H227839   5.708   5.832   0.202
 2094TIP3   OH227840   3.869   0.769   8.270
 2094TIP3    H127841   3.900   0.771   8.179
 2094TIP3    H227842   3.885   0.858   8.302
 2095TIP3   OH227843   6.161   3.669   0.522
 2095TIP3    H127844   6.073   3.700   0.501
 2095TIP3    H227845   6.217   3.746   0.511
 2096TIP3   OH227846   5.258   0.434   0.884
 2096TIP3    H127847   5.172   0.477   0.891
 2096TIP3    H227848   5.309   0.471   0.956
 2097TIP3   OH227849   5.199   1.594   0.809
 2097TIP3    H127850   5.201   1.544   0.891
 2097TIP3    H227851   5.106   1.607   0.791
 2098TIP3   OH227852   4.016   6.449   0.842
 2098TIP3    H127853   3.979   6.497   0.768
 2098TIP3    H227854   4.077   6.387   0.802
 2099TIP3   OH227855   1.003   0.791   7.388
 2099TIP3    H127856   1.094   0.797   7.357
 2099TIP3    H227857   0.951   0.787   7.307
 2100TIP3   OH227858   3.224   1.790   6.943
 2100TIP3    H127859   3.149   1.787   6.884
 2100TIP3    H227860   3.297   1.818   6.888
 2101TIP3   OH227861   3.158   6.537   8.370
 2101TIP3    H127862   3.208   6.467   8.329
 2101TIP3    H227863   3.077   6.543   8.318
 2102TIP3   OH227864   2.619   3.613   8.753
 2102TIP3    H127865   2.693   3.594   8.696
 2102TIP3    H227866   2.563   3.672   8.702
 2103TIP3   OH227867   4.255   6.650   1.772
 2103TIP3    H127868   4.281   6.740   1.753
 2103TIP3    H227869   4.272   6.602   1.690
 2104TIP3   OH227870   5.449   2.669   0.258
 2104TIP3    H127871   5.522   2.610   0.277
 2104TIP3    H227872   5.389   2.658   0.332
 2105TIP3   OH227873   6.158   4.398   0.432
 2105TIP3    H127874   6.175   4.444   0.350
 2105TIP3    H227875   6.069   4.365   0.423
 2106TIP3   OH227876   3.492   5.278   8.524
 2106TIP3    H127877   3.539   5.241   8.599
 2106TIP3    H227878   3.465   5.365   8.552
 2107TIP3   OH227879   2.448   1.352   6.229
 2107TIP3    H127880   2.494   1.436   6.238
 2107TIP3    H227881   2.414   1.353   6.140
 2108TIP3   OH227882   2.351   4.089   7.376
 2108TIP3    H127883   2.407   4.123   7.446
 2108TIP3    H227884   2.409   4.081   7.300
 2109TIP3   OH227885   6.141   4.223   1.857
 2109TIP3    H127886   6.126   4.129   1.844
 2109TIP3    H227887   6.157   4.256   1.769
 2110TIP3   OH227888   6.272   2.139   0.615
 2110TIP3    H127889   6.231   2.055   0.599
 2110TIP3    H227890   6.235   2.197   0.548
 2111TIP3   OH227891   0.327   4.433   7.866
 2111TIP3    H127892   0.307   4.498   7.933
 2111TIP3    H227893   0.244   4.391   7.847
 2112TIP3   OH227894   1.750   6.487   7.151
 2112TIP3    H127895   1.752   6.443   7.066
 2112TIP3    H227896   1.827   6.454   7.196
 2113TIP3   OH227897   4.140   5.599   8.318
 2113TIP3    H127898   4.162   5.635   8.404
 2113TIP3    H227899   4.088   5.521   8.337
 2114TIP3   OH227900   5.019   1.762   2.001
 2114TIP3    H127901   5.017   1.673   2.036
 2114TIP3    H227902   5.080   1.757   1.927
 2115TIP3   OH227903   0.767   1.284   8.279
 2115TIP3    H127904   0.749   1.225   8.206
 2115TIP3    H227905   0.841   1.337   8.250
 2116TIP3   OH227906   5.997   1.286   8.824
 2116TIP3    H127907   6.000   1.227   8.748
 2116TIP3    H227908   6.065   1.253   8.882
 2117TIP3   OH227909   0.993   6.280   8.329
 2117TIP3    H127910   1.031   6.252   8.246
 2117TIP3    H227911   1.067   6.311   8.381
 2118TIP3   OH227912   4.815   3.724   7.223
 2118TIP3    H127913   4.792   3.771   7.143
 2118TIP3    H227914   4.781   3.636   7.209
 2119TIP3   OH227915   1.952   3.159   7.024
 2119TIP3    H127916   1.984   3.124   6.941
 2119TIP3    H227917   1.996   3.244   7.033
 2120TIP3   OH227918   0.414   1.423   7.747
 2120TIP3    H127919   0.490   1.418   7.689
 2120TIP3    H227920   0.453   1.429   7.835
 2121TIP3   OH227921   0.329   3.105   0.976
 2121TIP3    H127922   0.285   3.095   1.061
 2121TIP3    H227923   0.265   3.150   0.921
 2122TIP3   OH227924   6.192   5.490   1.993
 2122TIP3    H127925   6.266   5.437   1.963
 2122TIP3    H227926   6.140   5.505   1.914
 2123TIP3   OH227927   4.579   1.812   0.665
 2123TIP3    H127928   4.630   1.858   0.598
 2123TIP3    H227929   4.572   1.874   0.737
 2124TIP3   OH227930   2.758   2.436   7.454
 2124TIP3    H127931   2.826   2.425   7.522
 2124TIP3    H227932   2.699   2.502   7.490
 2125TIP3   OH227933   2.612   5.533   8.738
 2125TIP3    H127934   2.700   5.496   8.731
 2125TIP3    H227935   2.616   5.614   8.689
 2126TIP3   OH227936   0.035   2.412   0.689
 2126TIP3    H127937  -0.001   2.361   0.617
 2126TIP3    H227938   0.127   2.424   0.666
 2127TIP3   OH227939   6.519   0.012   0.935
 2127TIP3    H127940   6.564  -0.028   0.860
 2127TIP3    H227941   6.589   0.053   0.986
 2128TIP3   OH227942   6.572   0.658   8.337
 2128TIP3    H127943   6.569   0.578   8.390
 2128TIP3    H227944   6.491   0.655   8.286
 2129TIP3   OH227945   4.772   5.641   1.732
 2129TIP3    H127946   4.686   5.616   1.699
 2129TIP3    H227947   4.833   5.587   1.682
 2130TIP3   OH227948   6.582   0.270   6.828
 2130TIP3    H127949   6.599   0.186   6.870
 2130TIP3    H227950   6.494   0.294   6.857
 2131TIP3   OH227951   2.545   2.160   1.137
 2131TIP3    H127952   2.499   2.209   1.205
 2131TIP3    H227953   2.486   2.088   1.115
 2132TIP3   OH227954   6.156   4.863   7.959
 2132TIP3    H127955   6.172   4.901   8.046
 2132TIP3    H227956   6.237   4.815   7.939
 2133TIP3   OH227957   0.560   4.615   7.675
 2133TIP3    H127958   0.503   4.664   7.734
 2133TIP3    H227959   0.611   4.682   7.629
 2134TIP3   OH227960   4.932   3.423   6.145
 2134TIP3    H127961   4.949   3.378   6.062
 2134TIP3    H227962   4.844   3.394   6.170
 2135TIP3   OH227963   5.365   5.459   1.867
 2135TIP3    H127964   5.273   5.442   1.888
 2135TIP3    H227965   5.394   5.521   1.935
 2136TIP3   OH227966   5.895   4.252   7.723
 2136TIP3    H127967   5.851   4.192   7.663
 2136TIP3    H227968   5.888   4.337   7.681
 2137TIP3   OH227969   5.770   6.109   1.794
 2137TIP3    H127970   5.701   6.156   1.842
 2137TIP3    H227971   5.821   6.178   1.753
 2138TIP3   OH227972   6.740   2.892   7.615
 2138TIP3    H127973   6.789   2.966   7.652
 2138TIP3    H227974   6.651   2.904   7.647
 2139TIP3   OH227975   2.792   1.915   0.382
 2139TIP3    H127976   2.767   1.944   0.470
 2139TIP3    H227977   2.830   1.993   0.341
 2140TIP3   OH227978   5.771   2.012   7.244
 2140TIP3    H127979   5.689   2.028   7.290
 2140TIP3    H227980   5.838   2.047   7.303
 2141TIP3   OH227981   3.179   1.091   7.630
 2141TIP3    H127982   3.098   1.096   7.681
 2141TIP3    H227983   3.199   1.182   7.608
 2142TIP3   OH227984   4.803   2.477   6.272
 2142TIP3    H127985   4.747   2.400   6.263
 2142TIP3    H227986   4.871   2.464   6.206
 2143TIP3   OH227987   6.771   4.604   8.725
 2143TIP3    H127988   6.777   4.569   8.814
 2143TIP3    H227989   6.832   4.550   8.674
 2144TIP3   OH227990   0.509   2.838   0.271
 2144TIP3    H127991   0.573   2.768   0.277
 2144TIP3    H227992   0.533   2.887   0.192
 2145TIP3   OH227993   4.056   4.824   8.432
 2145TIP3    H127994   4.136   4.773   8.447
 2145TIP3    H227995   4.031   4.855   8.519
 2146TIP3   OH227996   6.080   2.960   1.412
 2146TIP3    H127997   6.025   2.949   1.335
 2146TIP3    H227998   6.078   2.875   1.456
 2147TIP3   OH227999   1.610   1.436   0.134
 2147TIP3    H128000   1.636   1.357   0.086
 2147TIP3    H228001   1.680   1.450   0.198
 2148TIP3   OH228002   4.834   3.936   2.186
 2148TIP3    H128003   4.908   3.990   2.213
 2148TIP3    H228004   4.762   3.998   2.174
 2149TIP3   OH228005   3.411   5.971   7.510
 2149TIP3    H128006   3.377   5.958   7.421
 2149TIP3    H228007   3.392   5.888   7.555
 2150TIP3   OH228008   0.799   0.297   1.463
 2150TIP3    H128009   0.768   0.367   1.521
 2150TIP3    H228010   0.755   0.314   1.380
 2151TIP3   OH228011   3.621   5.395   0.735
 2151TIP3    H128012   3.633   5.381   0.641
 2151TIP3    H228013   3.558   5.328   0.761
 2152TIP3   OH228014   3.945   0.111   1.629
 2152TIP3    H128015   3.936   0.016   1.637
 2152TIP3    H228016   3.905   0.132   1.545
 2153TIP3   OH228017   5.546   2.106   7.931
 2153TIP3    H128018   5.640   2.127   7.933
 2153TIP3    H228019   5.544   2.012   7.911
 2154TIP3   OH228020   3.641   0.606   8.140
 2154TIP3    H128021   3.707   0.671   8.163
 2154TIP3    H228022   3.561   0.656   8.125
 2155TIP3   OH228023   2.232   3.139   6.831
 2155TIP3    H128024   2.233   3.219   6.884
 2155TIP3    H228025   2.225   3.170   6.741
 2156TIP3   OH228026   0.576   3.865   0.417
 2156TIP3    H128027   0.642   3.902   0.476
 2156TIP3    H228028   0.627   3.837   0.340
 2157TIP3   OH228029   5.274   5.799   0.905
 2157TIP3    H128030   5.326   5.788   0.985
 2157TIP3    H228031   5.231   5.714   0.892
 2158TIP3   OH228032   3.588   0.307   1.639
 2158TIP3    H128033   3.589   0.294   1.733
 2158TIP3    H228034   3.497   0.329   1.619
 2159TIP3   OH228035   0.575   0.390   8.270
 2159TIP3    H128036   0.539   0.459   8.215
 2159TIP3    H228037   0.608   0.435   8.348
 2160TIP3   OH228038   4.541   4.371   7.724
 2160TIP3    H128039   4.553   4.448   7.667
 2160TIP3    H228040   4.456   4.385   7.766
 2161TIP3   OH228041   2.667   1.817   0.861
 2161TIP3    H128042   2.694   1.834   0.952
 2161TIP3    H228043   2.624   1.732   0.865
 2162TIP3   OH228044   3.626   1.908   8.206
 2162TIP3    H128045   3.699   1.914   8.268
 2162TIP3    H228046   3.613   1.998   8.176
 2163TIP3   OH228047   2.484   2.569   6.292
 2163TIP3    H128048   2.486   2.473   6.291
 2163TIP3    H228049   2.427   2.592   6.365
 2164TIP3   OH228050   4.989   2.545   6.484
 2164TIP3    H128051   4.925   2.602   6.526
 2164TIP3    H228052   4.943   2.510   6.407
 2165TIP3   OH228053   1.070   4.008   0.961
 2165TIP3    H128054   0.974   4.002   0.962
 2165TIP3    H228055   1.095   4.007   1.053
 2166TIP3   OH228056   4.824   3.782   0.940
 2166TIP3    H128057   4.774   3.857   0.972
 2166TIP3    H228058   4.758   3.724   0.901
 2167TIP3   OH228059   1.036   4.807   2.077
 2167TIP3    H128060   1.078   4.846   2.000
 2167TIP3    H228061   1.105   4.803   2.143
 2168TIP3   OH228062   0.085   6.271   6.397
 2168TIP3    H128063   0.110   6.354   6.439
 2168TIP3    H228064   0.136   6.269   6.316
 2169TIP3   OH228065   3.585   3.684   6.719
 2169TIP3    H128066   3.631   3.736   6.653
 2169TIP3    H228067   3.650   3.621   6.750
 2170TIP3   OH228068   4.983   3.889   6.939
 2170TIP3    H128069   4.899   3.930   6.919
 2170TIP3    H228070   5.046   3.937   6.884
 2171TIP3   OH228071   2.226   3.689   0.905
 2171TIP3    H128072   2.175   3.692   0.986
 2171TIP3    H228073   2.172   3.638   0.845
 2172TIP3   OH228074   1.026   3.323   1.251
 2172TIP3    H128075   0.936   3.311   1.220
 2172TIP3    H228076   1.023   3.299   1.343
 2173TIP3   OH228077   3.519   4.668   0.897
 2173TIP3    H128078   3.577   4.672   0.821
 2173TIP3    H228079   3.468   4.588   0.883
 2174TIP3   OH228080   4.883   6.371   1.790
 2174TIP3    H128081   4.811   6.434   1.785
 2174TIP3    H228082   4.844   6.295   1.833
 2175TIP3   OH228083   2.061   5.437   1.436
 2175TIP3    H128084   2.112   5.426   1.516
 2175TIP3    H228085   1.979   5.477   1.465
 2176TIP3   OH228086   6.531   1.478   0.719
 2176TIP3    H128087   6.537   1.426   0.639
 2176TIP3    H228088   6.478   1.554   0.695
 2177TIP3   OH228089   2.864   3.556   5.948
 2177TIP3    H128090   2.929   3.599   6.004
 2177TIP3    H228091   2.892   3.464   5.945
 2178TIP3   OH228092   3.647   6.089   8.835
 2178TIP3    H128093   3.629   6.122   8.747
 2178TIP3    H228094   3.733   6.048   8.829
 2179TIP3   OH228095   0.150   3.645   0.547
 2179TIP3    H128096   0.153   3.612   0.636
 2179TIP3    H228097   0.207   3.722   0.547
 2180TIP3   OH228098   3.771   4.734   0.734
 2180TIP3    H128099   3.720   4.812   0.714
 2180TIP3    H228100   3.809   4.752   0.820
 2181TIP3   OH228101   2.078   3.765   1.158
 2181TIP3    H128102   2.016   3.720   1.101
 2181TIP3    H228103   2.069   3.721   1.243
 2182TIP3   OH228104   4.387   6.355   8.805
 2182TIP3    H128105   4.467   6.393   8.770
 2182TIP3    H228106   4.384   6.266   8.768
 2183TIP3   OH228107   1.458   6.765   0.454
 2183TIP3    H128108   1.365   6.779   0.439
 2183TIP3    H228109   1.496   6.755   0.367
 2184TIP3   OH228110   2.454   0.780   7.827
 2184TIP3    H128111   2.507   0.717   7.778
 2184TIP3    H228112   2.491   0.778   7.916
 2185TIP3   OH228113   0.205   3.223   2.241
 2185TIP3    H128114   0.130   3.165   2.255
 2185TIP3    H228115   0.277   3.182   2.289
 2186TIP3   OH228116   4.786   2.890   0.356
 2186TIP3    H128117   4.761   2.893   0.264
 2186TIP3    H228118   4.712   2.929   0.402
 2187TIP3   OH228119   5.183   0.327   8.202
 2187TIP3    H128120   5.128   0.320   8.124
 2187TIP3    H228121   5.169   0.244   8.248
 2188TIP3   OH228122   1.732   5.200   7.319
 2188TIP3    H128123   1.681   5.120   7.329
 2188TIP3    H228124   1.766   5.197   7.230
 2189TIP3   OH228125   3.517   0.836   7.105
 2189TIP3    H128126   3.442   0.848   7.047
 2189TIP3    H228127   3.480   0.802   7.186
 2190TIP3   OH228128   5.788   5.064   2.350
 2190TIP3    H128129   5.697   5.046   2.373
 2190TIP3    H228130   5.836   4.988   2.381
 2191TIP3   OH228131   6.577   4.499   6.901
 2191TIP3    H128132   6.534   4.584   6.889
 2191TIP3    H228133   6.650   4.518   6.959
 2192TIP3   OH228134   0.873   3.532   7.353
 2192TIP3    H128135   0.935   3.496   7.417
 2192TIP3    H228136   0.880   3.627   7.365
 2193TIP3   OH228137   3.704   3.775   8.756
 2193TIP3    H128138   3.782   3.790   8.810
 2193TIP3    H228139   3.684   3.682   8.769
 2194TIP3   OH228140   2.437   6.381   7.996
 2194TIP3    H128141   2.490   6.453   8.031
 2194TIP3    H228142   2.487   6.350   7.920
 2195TIP3   OH228143   0.538   0.848   7.835
 2195TIP3    H128144   0.584   0.793   7.772
 2195TIP3    H228145   0.569   0.819   7.920
 2196TIP3   OH228146   3.448   1.257   0.476
 2196TIP3    H128147   3.490   1.178   0.510
 2196TIP3    H228148   3.360   1.229   0.452
 2197TIP3   OH228149   5.997   5.778   1.596
 2197TIP3    H128150   5.979   5.818   1.681
 2197TIP3    H228151   6.082   5.815   1.569
 2198TIP3   OH228152   0.293   4.516   7.194
 2198TIP3    H128153   0.373   4.485   7.236
 2198TIP3    H228154   0.263   4.587   7.251
 2199TIP3   OH228155   2.855   4.287   2.412
 2199TIP3    H128156   2.831   4.362   2.467
 2199TIP3    H228157   2.780   4.277   2.353
 2200TIP3   OH228158   0.160   3.868   8.415
 2200TIP3    H128159   0.105   3.789   8.418
 2200TIP3    H228160   0.238   3.844   8.464
 2201TIP3   OH228161   1.048   4.131   1.541
 2201TIP3    H128162   1.045   4.127   1.637
 2201TIP3    H228163   1.076   4.044   1.514
 2202TIP3   OH228164   0.925   5.421   1.933
 2202TIP3    H128165   0.838   5.402   1.898
 2202TIP3    H228166   0.913   5.499   1.987
 2203TIP3   OH228167   1.175   4.413   8.411
 2203TIP3    H128168   1.269   4.431   8.416
 2203TIP3    H228169   1.152   4.433   8.320
 2204TIP3   OH228170   3.221   2.853   1.917
 2204TIP3    H128171   3.160   2.783   1.940
 2204TIP3    H228172   3.179   2.897   1.842
 2205TIP3   OH228173   4.116   5.705   0.559
 2205TIP3    H128174   4.098   5.622   0.603
 2205TIP3    H228175   4.175   5.752   0.617
 2206TIP3   OH228176   4.470   6.575   7.520
 2206TIP3    H128177   4.557   6.591   7.485
 2206TIP3    H228178   4.455   6.482   7.504
 2207TIP3   OH228179   1.773   4.203   1.187
 2207TIP3    H128180   1.856   4.233   1.151
 2207TIP3    H228181   1.734   4.150   1.117
 2208TIP3   OH228182   3.051   6.049   1.440
 2208TIP3    H128183   2.957   6.030   1.433
 2208TIP3    H228184   3.066   6.116   1.373
 2209TIP3   OH228185   4.458   4.597   6.900
 2209TIP3    H128186   4.478   4.505   6.919
 2209TIP3    H228187   4.489   4.610   6.810
 2210TIP3   OH228188   5.504   0.885   0.374
 2210TIP3    H128189   5.528   0.829   0.300
 2210TIP3    H228190   5.587   0.910   0.414
 2211TIP3   OH228191   0.212   0.930   7.262
 2211TIP3    H128192   0.234   0.981   7.340
 2211TIP3    H228193   0.277   0.956   7.197
 2212TIP3   OH228194   2.193   4.717   7.103
 2212TIP3    H128195   2.242   4.798   7.086
 2212TIP3    H228196   2.122   4.718   7.039
 2213TIP3   OH228197   4.097   0.348   1.688
 2213TIP3    H128198   4.044   0.272   1.665
 2213TIP3    H228199   4.127   0.330   1.777
 2214TIP3   OH228200   6.316   2.683   6.730
 2214TIP3    H128201   6.328   2.627   6.806
 2214TIP3    H228202   6.243   2.645   6.682
 2215TIP3   OH228203   4.634   1.815   1.067
 2215TIP3    H128204   4.579   1.740   1.045
 2215TIP3    H228205   4.632   1.871   0.990
 2216TIP3   OH228206   5.931   1.278   0.758
 2216TIP3    H128207   5.960   1.188   0.745
 2216TIP3    H228208   5.859   1.272   0.821
 2217TIP3   OH228209   5.087   1.092   7.382
 2217TIP3    H128210   5.075   1.049   7.466
 2217TIP3    H228211   5.052   1.181   7.396
 2218TIP3   OH228212   6.367   0.546   1.269
 2218TIP3    H128213   6.344   0.458   1.242
 2218TIP3    H228214   6.410   0.534   1.354
 2219TIP3   OH228215   3.913   6.653   1.028
 2219TIP3    H128216   3.898   6.622   0.938
 2219TIP3    H228217   3.904   6.575   1.082
 2220TIP3   OH228218   0.750   0.946   1.904
 2220TIP3    H128219   0.771   0.855   1.881
 2220TIP3    H228220   0.695   0.939   1.981
 2221TIP3   OH228221   5.476   1.208   1.681
 2221TIP3    H128222   5.511   1.253   1.758
 2221TIP3    H228223   5.551   1.163   1.643
 2222TIP3   OH228224   3.553   5.327   7.978
 2222TIP3    H128225   3.524   5.289   7.895
 2222TIP3    H228226   3.523   5.265   8.044
 2223TIP3   OH228227   0.866   3.568   6.674
 2223TIP3    H128228   0.917   3.643   6.702
 2223TIP3    H228229   0.833   3.529   6.755
 2224TIP3   OH228230   3.430   5.797   0.213
 2224TIP3    H128231   3.388   5.815   0.297
 2224TIP3    H228232   3.382   5.849   0.150
 2225TIP3   OH228233   6.013   0.552   1.218
 2225TIP3    H128234   6.079   0.546   1.149
 2225TIP3    H228235   5.947   0.612   1.183
 2226TIP3   OH228236   4.173   2.206   1.643
 2226TIP3    H128237   4.189   2.298   1.625
 2226TIP3    H228238   4.078   2.196   1.634
 2227TIP3   OH228239   6.754   5.355   0.501
 2227TIP3    H128240   6.708   5.271   0.501
 2227TIP3    H228241   6.736   5.392   0.415
 2228TIP3   OH228242   2.639   4.525   7.171
 2228TIP3    H128243   2.694   4.463   7.123
 2228TIP3    H228244   2.698   4.568   7.233
 2229TIP3   OH228245   5.782   5.513   0.499
 2229TIP3    H128246   5.688   5.520   0.519
 2229TIP3    H228247   5.801   5.590   0.446
 2230TIP3   OH228248   2.897   0.944   7.346
 2230TIP3    H128249   2.886   0.854   7.319
 2230TIP3    H228250   2.973   0.942   7.405
 2231TIP3   OH228251   1.786   6.102   2.439
 2231TIP3    H128252   1.730   6.180   2.432
 2231TIP3    H228253   1.725   6.028   2.428
 2232TIP3   OH228254   3.221   0.654   1.971
 2232TIP3    H128255   3.257   0.682   1.887
 2232TIP3    H228256   3.293   0.663   2.033
 2233TIP3   OH228257   3.324   3.500   0.729
 2233TIP3    H128258   3.374   3.570   0.772
 2233TIP3    H228259   3.240   3.541   0.707
 2234TIP3   OH228260   6.531   3.791   1.676
 2234TIP3    H128261   6.457   3.764   1.730
 2234TIP3    H228262   6.585   3.712   1.668
 2235TIP3   OH228263   3.553   0.029   8.767
 2235TIP3    H128264   3.581   0.121   8.766
 2235TIP3    H228265   3.491   0.024   8.840
 2236TIP3   OH228266   3.120   0.279   0.787
 2236TIP3    H128267   3.174   0.355   0.764
 2236TIP3    H228268   3.166   0.204   0.749
 2237TIP3   OH228269   0.828   1.617   7.357
 2237TIP3    H128270   0.759   1.662   7.406
 2237TIP3    H228271   0.791   1.602   7.271
 2238TIP3   OH228272   0.196   4.858   6.996
 2238TIP3    H128273   0.184   4.886   7.086
 2238TIP3    H228274   0.229   4.935   6.950
 2239TIP3   OH228275   5.416   4.054   8.226
 2239TIP3    H128276   5.347   4.118   8.206
 2239TIP3    H228277   5.479   4.103   8.279
 2240TIP3   OH228278   2.458   0.982   1.442
 2240TIP3    H128279   2.423   1.043   1.507
 2240TIP3    H228280   2.521   0.929   1.492
 2241TIP3   OH228281   0.684   5.106   7.532
 2241TIP3    H128282   0.636   5.164   7.591
 2241TIP3    H228283   0.633   5.107   7.451
 2242TIP3   OH228284   5.868   1.586   6.462
 2242TIP3    H128285   5.954   1.585   6.504
 2242TIP3    H228286   5.823   1.661   6.501
 2243TIP3   OH228287   3.043   4.027   1.742
 2243TIP3    H128288   3.083   4.053   1.825
 2243TIP3    H228289   2.953   4.060   1.748
 2244TIP3   OH228290   0.436   1.500   1.415
 2244TIP3    H128291   0.363   1.439   1.423
 2244TIP3    H228292   0.438   1.546   1.500
 2245TIP3   OH228293   5.801   3.751   8.826
 2245TIP3    H128294   5.785   3.814   8.755
 2245TIP3    H228295   5.759   3.790   8.902
 2246TIP3   OH228296   2.693   6.370   0.404
 2246TIP3    H128297   2.621   6.428   0.377
 2246TIP3    H228298   2.753   6.427   0.452
 2247TIP3   OH228299   6.374   6.408   0.334
 2247TIP3    H128300   6.292   6.428   0.288
 2247TIP3    H228301   6.346   6.360   0.413
 2248TIP3   OH228302   1.348   2.278   8.557
 2248TIP3    H128303   1.253   2.287   8.565
 2248TIP3    H228304   1.376   2.355   8.508
 2249TIP3   OH228305   1.061   6.626   8.305
 2249TIP3    H128306   1.001   6.570   8.258
 2249TIP3    H228307   1.053   6.599   8.397
 2250TIP3   OH228308   3.718   3.748   1.811
 2250TIP3    H128309   3.798   3.743   1.863
 2250TIP3    H228310   3.740   3.809   1.740
 2251TIP3   OH228311   3.416   1.176   1.503
 2251TIP3    H128312   3.441   1.191   1.412
 2251TIP3    H228313   3.477   1.229   1.554
 2252TIP3   OH228314   5.958   3.840   0.444
 2252TIP3    H128315   5.889   3.796   0.494
 2252TIP3    H228316   5.928   3.838   0.354
 2253TIP3   OH228317   1.204   1.819   1.858
 2253TIP3    H128318   1.215   1.849   1.948
 2253TIP3    H228319   1.167   1.895   1.812
 2254TIP3   OH228320   0.930   1.794   8.602
 2254TIP3    H128321   0.919   1.702   8.580
 2254TIP3    H228322   1.017   1.816   8.568
 2255TIP3   OH228323   3.599   4.705   8.623
 2255TIP3    H128324   3.564   4.617   8.635
 2255TIP3    H228325   3.683   4.691   8.579
 2256TIP3   OH228326   0.459   5.393   7.008
 2256TIP3    H128327   0.479   5.458   7.075
 2256TIP3    H228328   0.495   5.429   6.927
 2257TIP3   OH228329   5.131   3.651   8.306
 2257TIP3    H128330   5.203   3.671   8.245
 2257TIP3    H228331   5.148   3.707   8.381
 2258TIP3   OH228332   6.762   4.459   2.377
 2258TIP3    H128333   6.769   4.512   2.456
 2258TIP3    H228334   6.679   4.485   2.338
 2259TIP3   OH228335   3.890   5.818   7.395
 2259TIP3    H128336   3.904   5.817   7.490
 2259TIP3    H228337   3.969   5.776   7.359
 2260TIP3   OH228338   6.054   4.940   7.378
 2260TIP3    H128339   5.972   4.978   7.410
 2260TIP3    H228340   6.109   5.016   7.356
 2261TIP3   OH228341   0.867   4.964   0.656
 2261TIP3    H128342   0.906   5.024   0.593
 2261TIP3    H228343   0.920   4.974   0.735
 2262TIP3   OH228344   3.232   4.049   1.114
 2262TIP3    H128345   3.219   4.035   1.020
 2262TIP3    H228346   3.326   4.061   1.124
 2263TIP3   OH228347   4.462   3.434   6.132
 2263TIP3    H128348   4.418   3.385   6.201
 2263TIP3    H228349   4.401   3.504   6.109
 2264TIP3   OH228350   4.538   5.112   7.624
 2264TIP3    H128351   4.595   5.187   7.607
 2264TIP3    H228352   4.587   5.037   7.591
 2265TIP3   OH228353   1.013   1.244   0.886
 2265TIP3    H128354   0.936   1.224   0.940
 2265TIP3    H228355   1.015   1.175   0.820
 2266TIP3   OH228356   4.829   2.746   1.770
 2266TIP3    H128357   4.738   2.773   1.787
 2266TIP3    H228358   4.877   2.771   1.849
 2267TIP3   OH228359   1.130   3.166   0.434
 2267TIP3    H128360   1.178   3.249   0.439
 2267TIP3    H228361   1.107   3.158   0.341
 2268TIP3   OH228362   1.184   1.637   1.214
 2268TIP3    H128363   1.091   1.639   1.194
 2268TIP3    H228364   1.216   1.724   1.189
 2269TIP3   OH228365   2.120   2.526   1.395
 2269TIP3    H128366   2.215   2.526   1.407
 2269TIP3    H228367   2.093   2.614   1.419
 2270TIP3   OH228368   4.003   3.205   0.920
 2270TIP3    H128369   4.009   3.301   0.918
 2270TIP3    H228370   3.925   3.185   0.870
 2271TIP3   OH228371   2.662   1.317   0.176
 2271TIP3    H128372   2.652   1.403   0.135
 2271TIP3    H228373   2.603   1.319   0.251
 2272TIP3   OH228374   5.535   4.257   1.400
 2272TIP3    H128375   5.460   4.297   1.354
 2272TIP3    H228376   5.582   4.209   1.331
 2273TIP3   OH228377   1.796   6.544   8.778
 2273TIP3    H128378   1.833   6.502   8.700
 2273TIP3    H228379   1.711   6.577   8.749
 2274TIP3   OH228380   4.202   5.625   8.580
 2274TIP3    H128381   4.237   5.557   8.637
 2274TIP3    H228382   4.244   5.705   8.610
 2275TIP3   OH228383   4.191   5.821   8.176
 2275TIP3    H128384   4.140   5.815   8.095
 2275TIP3    H228385   4.175   5.738   8.221
 2276TIP3   OH228386   5.353   1.497   7.526
 2276TIP3    H128387   5.360   1.403   7.541
 2276TIP3    H228388   5.308   1.504   7.442
 2277TIP3   OH228389   5.985   0.136   0.231
 2277TIP3    H128390   5.897   0.155   0.263
 2277TIP3    H228391   5.971   0.088   0.149
 2278TIP3   OH228392   5.949   3.150   6.360
 2278TIP3    H128393   5.911   3.238   6.365
 2278TIP3    H228394   5.982   3.133   6.448
 2279TIP3   OH228395   2.682   2.885   0.550
 2279TIP3    H128396   2.615   2.933   0.502
 2279TIP3    H228397   2.765   2.921   0.518
 2280TIP3   OH228398   5.615   1.171   1.268
 2280TIP3    H128399   5.694   1.180   1.214
 2280TIP3    H228400   5.590   1.079   1.260
 2281TIP3   OH228401   5.367   2.595   0.858
 2281TIP3    H128402   5.410   2.620   0.940
 2281TIP3    H228403   5.274   2.602   0.877
 2282TIP3   OH228404   6.640   5.272   7.369
 2282TIP3    H128405   6.589   5.332   7.316
 2282TIP3    H228406   6.641   5.190   7.319
 2283TIP3   OH228407   1.439   0.461   0.908
 2283TIP3    H128408   1.442   0.365   0.907
 2283TIP3    H228409   1.505   0.487   0.844
 2284TIP3   OH228410   3.927   3.894   0.696
 2284TIP3    H128411   4.020   3.910   0.716
 2284TIP3    H228412   3.892   3.981   0.677
 2285TIP3   OH228413   5.994   5.243   8.147
 2285TIP3    H128414   6.050   5.310   8.108
 2285TIP3    H228415   5.907   5.261   8.112
 2286TIP3   OH228416   0.912   2.011   1.227
 2286TIP3    H128417   0.933   1.924   1.260
 2286TIP3    H228418   0.817   2.015   1.227
 2287TIP3   OH228419   5.937   5.954   8.204
 2287TIP3    H128420   5.991   5.985   8.277
 2287TIP3    H228421   5.921   6.032   8.151
 2288TIP3   OH228422   1.764   3.986   1.765
 2288TIP3    H128423   1.699   3.950   1.825
 2288TIP3    H228424   1.847   3.976   1.812
 2289TIP3   OH228425   5.393   6.239   0.467
 2289TIP3    H128426   5.328   6.275   0.407
 2289TIP3    H228427   5.348   6.235   0.551
 2290TIP3   OH228428   4.608   4.193   7.491
 2290TIP3    H128429   4.675   4.150   7.544
 2290TIP3    H228430   4.552   4.238   7.555
 2291TIP3   OH228431   2.239   0.737   0.499
 2291TIP3    H128432   2.232   0.707   0.409
 2291TIP3    H228433   2.182   0.678   0.549
 2292TIP3   OH228434   2.959   0.658   2.217
 2292TIP3    H128435   2.978   0.658   2.311
 2292TIP3    H228436   3.043   0.677   2.175
 2293TIP3   OH228437   1.105   4.943   1.834
 2293TIP3    H128438   1.192   4.972   1.861
 2293TIP3    H228439   1.050   5.021   1.843
 2294TIP3   OH228440   3.247   6.313   6.437
 2294TIP3    H128441   3.322   6.258   6.415
 2294TIP3    H228442   3.171   6.258   6.421
 2295TIP3   OH228443   3.227   3.244   0.812
 2295TIP3    H128444   3.258   3.330   0.786
 2295TIP3    H228445   3.143   3.261   0.856
 2296TIP3   OH228446   4.962   5.001   6.722
 2296TIP3    H128447   4.915   5.035   6.645
 2296TIP3    H228448   4.894   4.992   6.789
 2297TIP3   OH228449   2.606   2.177   2.190
 2297TIP3    H128450   2.646   2.095   2.163
 2297TIP3    H228451   2.593   2.168   2.285
 2298TIP3   OH228452   0.308   4.947   6.638
 2298TIP3    H128453   0.312   4.888   6.563
 2298TIP3    H228454   0.225   4.993   6.628
 2299TIP3   OH228455   6.266   5.911   0.230
 2299TIP3    H128456   6.276   5.962   0.150
 2299TIP3    H228457   6.319   5.833   0.215
 2300TIP3   OH228458   5.631   1.640   8.304
 2300TIP3    H128459   5.691   1.709   8.332
 2300TIP3    H228460   5.652   1.565   8.360
 2301TIP3   OH228461   4.973   5.008   2.103
 2301TIP3    H128462   4.913   4.998   2.177
 2301TIP3    H228463   5.035   5.075   2.131
 2302TIP3   OH228464   2.813   6.767   1.573
 2302TIP3    H128465   2.776   6.684   1.541
 2302TIP3    H228466   2.795   6.766   1.668
 2303TIP3   OH228467   3.003   4.911   8.235
 2303TIP3    H128468   3.021   4.817   8.242
 2303TIP3    H228469   3.006   4.943   8.325
 2304TIP3   OH228470   1.994   2.372   0.726
 2304TIP3    H128471   1.945   2.450   0.701
 2304TIP3    H228472   1.927   2.309   0.751
 2305TIP3   OH228473   3.574   3.766   7.451
 2305TIP3    H128474   3.659   3.741   7.416
 2305TIP3    H228475   3.544   3.837   7.395
 2306TIP3   OH228476   0.807   6.054   8.785
 2306TIP3    H128477   0.760   6.133   8.757
 2306TIP3    H228478   0.767   5.983   8.734
 2307TIP3   OH228479   2.451   2.244   8.164
 2307TIP3    H128480   2.451   2.313   8.230
 2307TIP3    H228481   2.384   2.182   8.194
 2308TIP3   OH228482   5.112   0.800   0.796
 2308TIP3    H128483   5.120   0.709   0.769
 2308TIP3    H228484   5.172   0.848   0.739
 2309TIP3   OH228485   5.051   1.990   0.964
 2309TIP3    H128486   5.145   1.974   0.958
 2309TIP3    H228487   5.043   2.070   1.016
 2310TIP3   OH228488   1.549   6.167   6.921
 2310TIP3    H128489   1.536   6.168   7.016
 2310TIP3    H228490   1.467   6.203   6.886
 2311TIP3   OH228491   2.632   5.334   6.809
 2311TIP3    H128492   2.574   5.366   6.878
 2311TIP3    H228493   2.700   5.401   6.801
 2312TIP3   OH228494   6.101   2.134   7.702
 2312TIP3    H128495   6.090   2.055   7.650
 2312TIP3    H228496   6.175   2.114   7.760
 2313TIP3   OH228497   5.273   1.804   1.866
 2313TIP3    H128498   5.305   1.890   1.837
 2313TIP3    H228499   5.351   1.756   1.891
 2314TIP3   OH228500   6.267   5.546   7.027
 2314TIP3    H128501   6.227   5.624   7.066
 2314TIP3    H228502   6.203   5.514   6.964
 2315TIP3   OH228503   1.002   3.502   0.424
 2315TIP3    H128504   0.937   3.568   0.450
 2315TIP3    H228505   1.021   3.455   0.504
 2316TIP3   OH228506   2.199   3.481   8.188
 2316TIP3    H128507   2.186   3.575   8.191
 2316TIP3    H228508   2.113   3.445   8.168
 2317TIP3   OH228509   0.211   4.637   1.339
 2317TIP3    H128510   0.258   4.623   1.421
 2317TIP3    H228511   0.253   4.713   1.299
 2318TIP3   OH228512   4.251   3.955   6.902
 2318TIP3    H128513   4.268   3.909   6.819
 2318TIP3    H228514   4.290   4.041   6.890
 2319TIP3   OH228515   4.615   4.306   0.286
 2319TIP3    H128516   4.551   4.242   0.257
 2319TIP3    H228517   4.647   4.347   0.205
 2320TIP3   OH228518   5.168   0.572   7.281
 2320TIP3    H128519   5.252   0.618   7.284
 2320TIP3    H228520   5.122   0.602   7.359
 2321TIP3   OH228521   2.303   6.490   7.132
 2321TIP3    H128522   2.389   6.532   7.131
 2321TIP3    H228523   2.290   6.466   7.224
 2322TIP3   OH228524   4.783   1.245   0.360
 2322TIP3    H128525   4.852   1.186   0.391
 2322TIP3    H228526   4.703   1.194   0.369
 2323TIP3   OH228527   4.401   4.901   0.647
 2323TIP3    H128528   4.408   4.806   0.655
 2323TIP3    H228529   4.414   4.918   0.553
 2324TIP3   OH228530   0.920   2.374   0.455
 2324TIP3    H128531   0.950   2.351   0.543
 2324TIP3    H228532   0.912   2.291   0.409
 2325TIP3   OH228533   4.056   6.152   7.649
 2325TIP3    H128534   4.017   6.224   7.700
 2325TIP3    H228535   3.981   6.099   7.622
 2326TIP3   OH228536   2.215   5.465   7.300
 2326TIP3    H128537   2.172   5.380   7.307
 2326TIP3    H228538   2.222   5.496   7.390
 2327TIP3   OH228539   5.505   0.639   1.347
 2327TIP3    H128540   5.510   0.648   1.443
 2327TIP3    H228541   5.564   0.567   1.327
 2328TIP3   OH228542   2.158   1.298   1.701
 2328TIP3    H128543   2.127   1.388   1.710
 2328TIP3    H228544   2.144   1.259   1.787
 2329TIP3   OH228545   5.306   2.861   7.944
 2329TIP3    H128546   5.239   2.797   7.969
 2329TIP3    H228547   5.321   2.912   8.023
 2330TIP3   OH228548   1.512   6.644   8.180
 2330TIP3    H128549   1.564   6.591   8.240
 2330TIP3    H228550   1.575   6.679   8.118
 2331TIP3   OH228551   2.934   5.694   8.677
 2331TIP3    H128552   2.897   5.606   8.681
 2331TIP3    H228553   3.022   5.684   8.713
 2332TIP3   OH228554   4.521   3.859   7.949
 2332TIP3    H128555   4.438   3.905   7.933
 2332TIP3    H228556   4.496   3.780   7.997
 2333TIP3   OH228557   4.540   0.492   1.505
 2333TIP3    H128558   4.604   0.521   1.571
 2333TIP3    H228559   4.477   0.564   1.500
 2334TIP3   OH228560   6.537   2.399   7.541
 2334TIP3    H128561   6.479   2.436   7.475
 2334TIP3    H228562   6.598   2.470   7.562
 2335TIP3   OH228563   3.370   1.038   6.845
 2335TIP3    H128564   3.443   1.025   6.783
 2335TIP3    H228565   3.383   1.127   6.879
 2336TIP3   OH228566   6.617   3.335   1.297
 2336TIP3    H128567   6.530   3.296   1.284
 2336TIP3    H228568   6.651   3.350   1.209
 2337TIP3   OH228569   0.406   1.284   7.434
 2337TIP3    H128570   0.340   1.321   7.494
 2337TIP3    H228571   0.385   1.322   7.349
 2338TIP3   OH228572   6.677   1.992   0.223
 2338TIP3    H128573   6.664   1.951   0.138
 2338TIP3    H228574   6.754   1.949   0.260
 2339TIP3   OH228575   5.503   4.198   7.048
 2339TIP3    H128576   5.584   4.221   7.093
 2339TIP3    H228577   5.532   4.168   6.962
 2340TIP3   OH228578   6.326   4.397   7.000
 2340TIP3    H128579   6.316   4.483   7.040
 2340TIP3    H228580   6.416   4.397   6.966
 2341TIP3   OH228581   5.623   1.255   0.807
 2341TIP3    H128582   5.598   1.329   0.751
 2341TIP3    H228583   5.638   1.294   0.893
 2342TIP3   OH228584   2.332   4.203   1.189
 2342TIP3    H128585   2.381   4.278   1.223
 2342TIP3    H228586   2.399   4.139   1.166
 2343TIP3   OH228587   5.211   5.066   0.700
 2343TIP3    H128588   5.248   5.145   0.740
 2343TIP3    H228589   5.140   5.040   0.758
 2344TIP3   OH228590   5.865   1.125   7.283
 2344TIP3    H128591   5.863   1.067   7.207
 2344TIP3    H228592   5.837   1.070   7.356
 2345TIP3   OH228593   1.813   2.432   8.108
 2345TIP3    H128594   1.864   2.511   8.125
 2345TIP3    H228595   1.746   2.460   8.045
 2346TIP3   OH228596   4.166   5.623   2.362
 2346TIP3    H128597   4.216   5.542   2.367
 2346TIP3    H228598   4.084   5.603   2.406
 2347TIP3   OH228599   0.139   5.461   7.676
 2347TIP3    H128600   0.078   5.388   7.683
 2347TIP3    H228601   0.084   5.537   7.656
 2348TIP3   OH228602   4.268   6.631   0.343
 2348TIP3    H128603   4.212   6.554   0.352
 2348TIP3    H228604   4.329   6.625   0.416
 2349TIP3   OH228605   2.870   3.483   6.779
 2349TIP3    H128606   2.897   3.494   6.688
 2349TIP3    H228607   2.897   3.565   6.821
 2350TIP3   OH228608   0.038   0.320   1.417
 2350TIP3    H128609   0.056   0.411   1.394
 2350TIP3    H228610   0.042   0.318   1.513
 2351TIP3   OH228611   3.627   0.108   8.407
 2351TIP3    H128612   3.626   0.155   8.491
 2351TIP3    H228613   3.553   0.145   8.358
 2352TIP3   OH228614   4.294   6.017   1.803
 2352TIP3    H128615   4.316   6.089   1.744
 2352TIP3    H228616   4.378   5.993   1.844
 2353TIP3   OH228617   4.238   4.432   2.136
 2353TIP3    H128618   4.195   4.377   2.070
 2353TIP3    H228619   4.329   4.404   2.135
 2354TIP3   OH228620   2.170   3.739   8.268
 2354TIP3    H128621   2.118   3.801   8.217
 2354TIP3    H228622   2.127   3.736   8.354
 2355TIP3   OH228623   4.583   5.144   0.427
 2355TIP3    H128624   4.651   5.180   0.370
 2355TIP3    H228625   4.609   5.053   0.441
 2356TIP3   OH228626   3.905   5.705   1.103
 2356TIP3    H128627   3.904   5.638   1.035
 2356TIP3    H228628   3.946   5.663   1.178
 2357TIP3   OH228629   5.085   5.993   7.533
 2357TIP3    H128630   5.077   6.053   7.607
 2357TIP3    H228631   5.147   5.926   7.563
 2358TIP3   OH228632   5.070   5.154   1.177
 2358TIP3    H128633   4.994   5.114   1.218
 2358TIP3    H228634   5.144   5.123   1.230
 2359TIP3   OH228635   4.745   6.750   6.808
 2359TIP3    H128636   4.735   6.759   6.713
 2359TIP3    H228637   4.774   6.837   6.837
 2360TIP3   OH228638   1.979   2.059   0.510
 2360TIP3    H128639   1.921   1.983   0.511
 2360TIP3    H228640   2.019   2.059   0.597
 2361TIP3   OH228641   6.087   6.747   8.512
 2361TIP3    H128642   6.109   6.787   8.427
 2361TIP3    H228643   6.102   6.817   8.575
 2362TIP3   OH228644   1.086   5.686   8.465
 2362TIP3    H128645   1.015   5.630   8.496
 2362TIP3    H228646   1.043   5.769   8.443
 2363TIP3   OH228647   4.483   5.274   1.323
 2363TIP3    H128648   4.439   5.291   1.406
 2363TIP3    H228649   4.573   5.304   1.337
 2364TIP3   OH228650   3.899   1.594   1.377
 2364TIP3    H128651   3.826   1.556   1.327
 2364TIP3    H228652   3.937   1.519   1.424
 2365TIP3   OH228653   6.274   4.219   6.205
 2365TIP3    H128654   6.315   4.278   6.268
 2365TIP3    H228655   6.346   4.162   6.176
 2366TIP3   OH228656   2.163   1.389   6.795
 2366TIP3    H128657   2.242   1.337   6.807
 2366TIP3    H228658   2.101   1.355   6.859
 2367TIP3   OH228659   1.509   5.736   7.497
 2367TIP3    H128660   1.464   5.696   7.422
 2367TIP3    H228661   1.540   5.662   7.549
 2368TIP3   OH228662   5.992   2.653   8.834
 2368TIP3    H128663   6.083   2.670   8.858
 2368TIP3    H228664   5.997   2.627   8.742
 2369TIP3   OH228665   4.215   3.660   0.791
 2369TIP3    H128666   4.278   3.683   0.860
 2369TIP3    H228667   4.138   3.630   0.839
 2370TIP3   OH228668   3.061   5.580   6.305
 2370TIP3    H128669   3.009   5.578   6.224
 2370TIP3    H228670   2.998   5.563   6.375
 2371TIP3   OH228671   1.820   2.901   8.050
 2371TIP3    H128672   1.881   2.975   8.040
 2371TIP3    H228673   1.774   2.897   7.966
 2372TIP3   OH228674   2.788   1.054   6.875
 2372TIP3    H128675   2.883   1.059   6.879
 2372TIP3    H228676   2.770   0.967   6.839
 2373TIP3   OH228677   2.741   5.255   7.458
 2373TIP3    H128678   2.704   5.173   7.428
 2373TIP3    H228679   2.667   5.315   7.463
 2374TIP3   OH228680   4.296   5.588   0.049
 2374TIP3    H128681   4.359   5.661   0.048
 2374TIP3    H228682   4.334   5.523  -0.010
 2375TIP3   OH228683   5.325   1.556   7.791
 2375TIP3    H128684   5.246   1.510   7.818
 2375TIP3    H228685   5.327   1.548   7.696
 2376TIP3   OH228686   0.673   4.703   0.226
 2376TIP3    H128687   0.647   4.745   0.144
 2376TIP3    H228688   0.742   4.759   0.262
 2377TIP3   OH228689   2.261   0.213   7.876
 2377TIP3    H128690   2.316   0.289   7.862
 2377TIP3    H228691   2.190   0.223   7.813
 2378TIP3   OH228692   0.122   4.065   7.005
 2378TIP3    H128693   0.036   4.041   7.039
 2378TIP3    H228694   0.109   4.074   6.911
 2379TIP3   OH228695   1.796   1.280   7.682
 2379TIP3    H128696   1.784   1.250   7.592
 2379TIP3    H228697   1.889   1.299   7.689
 2380TIP3   OH228698   0.580   2.455   1.843
 2380TIP3    H128699   0.612   2.365   1.846
 2380TIP3    H228700   0.633   2.497   1.775
 2381TIP3   OH228701   5.413   0.725   7.307
 2381TIP3    H128702   5.408   0.768   7.222
 2381TIP3    H228703   5.438   0.794   7.368
 2382TIP3   OH228704   5.562   6.397   0.951
 2382TIP3    H128705   5.523   6.409   1.038
 2382TIP3    H228706   5.654   6.424   0.962
 2383TIP3   OH228707   6.656   2.476   8.712
 2383TIP3    H128708   6.565   2.451   8.724
 2383TIP3    H228709   6.666   2.556   8.764
 2384TIP3   OH228710   3.664   2.530   0.969
 2384TIP3    H128711   3.691   2.462   0.908
 2384TIP3    H228712   3.570   2.540   0.955
 2385TIP3   OH228713   3.931   0.387   0.734
 2385TIP3    H128714   3.903   0.405   0.823
 2385TIP3    H228715   3.948   0.474   0.697
 2386TIP3   OH228716   5.887   3.881   7.946
 2386TIP3    H128717   5.808   3.932   7.959
 2386TIP3    H228718   5.885   3.815   8.016
 2387TIP3   OH228719   3.828   3.073   1.248
 2387TIP3    H128720   3.891   3.003   1.264
 2387TIP3    H228721   3.881   3.148   1.223
 2388TIP3   OH228722   5.314   3.797   1.593
 2388TIP3    H128723   5.252   3.818   1.523
 2388TIP3    H228724   5.262   3.749   1.657
 2389TIP3   OH228725   0.064   2.656   6.603
 2389TIP3    H128726  -0.015   2.646   6.549
 2389TIP3    H228727   0.031   2.688   6.687
 2390TIP3   OH228728   2.196   5.629   0.464
 2390TIP3    H128729   2.253   5.705   0.479
 2390TIP3    H228730   2.121   5.665   0.416
 2391TIP3   OH228731   6.472   3.465   7.684
 2391TIP3    H128732   6.490   3.504   7.770
 2391TIP3    H228733   6.516   3.380   7.687
 2392TIP3   OH228734   2.313   3.622   0.198
 2392TIP3    H128735   2.403   3.621   0.231
 2392TIP3    H228736   2.308   3.547   0.139
 2393TIP3   OH228737   3.069   2.334   7.008
 2393TIP3    H128738   3.005   2.357   7.075
 2393TIP3    H228739   3.152   2.326   7.055
 2394TIP3   OH228740   0.357   5.277   0.500
 2394TIP3    H128741   0.433   5.306   0.451
 2394TIP3    H228742   0.333   5.193   0.460
 2395TIP3   OH228743   0.148   4.434   8.615
 2395TIP3    H128744   0.097   4.361   8.581
 2395TIP3    H228745   0.203   4.396   8.683
 2396TIP3   OH228746   5.459   4.922   0.460
 2396TIP3    H128747   5.499   4.855   0.405
 2396TIP3    H228748   5.365   4.906   0.454
 2397TIP3   OH228749   2.222   3.969   7.628
 2397TIP3    H128750   2.213   4.006   7.540
 2397TIP3    H228751   2.312   3.991   7.653
 2398TIP3   OH228752   6.163   2.554   7.879
 2398TIP3    H128753   6.186   2.609   7.954
 2398TIP3    H228754   6.247   2.525   7.844
 2399TIP3   OH228755   5.357   2.551   8.300
 2399TIP3    H128756   5.411   2.478   8.272
 2399TIP3    H228757   5.283   2.511   8.346
 2400TIP3   OH228758   0.601   1.307   1.252
 2400TIP3    H128759   0.650   1.266   1.324
 2400TIP3    H228760   0.546   1.372   1.294
 2401TIP3   OH228761   1.270   3.589   1.080
 2401TIP3    H128762   1.202   3.643   1.122
 2401TIP3    H228763   1.352   3.623   1.115
 2402TIP3   OH228764   2.431   4.784   7.353
 2402TIP3    H128765   2.352   4.738   7.382
 2402TIP3    H228766   2.431   4.774   7.258
 2403TIP3   OH228767   0.785   3.781   6.344
 2403TIP3    H128768   0.727   3.732   6.287
 2403TIP3    H228769   0.740   3.785   6.427
 2404TIP3   OH228770   5.018   1.282   1.097
 2404TIP3    H128771   4.938   1.265   1.147
 2404TIP3    H228772   5.078   1.212   1.123
 2405TIP3   OH228773   4.705   4.637   7.829
 2405TIP3    H128774   4.618   4.673   7.809
 2405TIP3    H228775   4.701   4.618   7.923
 2406TIP3   OH228776   6.058   3.786   1.172
 2406TIP3    H128777   6.025   3.832   1.094
 2406TIP3    H228778   6.033   3.695   1.158
 2407TIP3   OH228779   5.057   5.388   0.862
 2407TIP3    H128780   5.080   5.295   0.855
 2407TIP3    H228781   4.962   5.390   0.855
 2408TIP3   OH228782   1.716   1.382   7.915
 2408TIP3    H128783   1.731   1.353   7.825
 2408TIP3    H228784   1.758   1.467   7.920
 2409TIP3   OH228785   5.627   0.578   0.159
 2409TIP3    H128786   5.664   0.530   0.233
 2409TIP3    H228787   5.700   0.631   0.126
 2410TIP3   OH228788   1.147   0.637   8.586
 2410TIP3    H128789   1.123   0.593   8.505
 2410TIP3    H228790   1.243   0.636   8.587
 2411TIP3   OH228791   1.727   4.040   8.837
 2411TIP3    H128792   1.705   4.127   8.869
 2411TIP3    H228793   1.757   4.054   8.747
 2412TIP3   OH228794   3.001   1.734   7.563
 2412TIP3    H128795   2.984   1.759   7.654
 2412TIP3    H228796   3.015   1.640   7.566
 2413TIP3   OH228797   4.024   5.336   8.372
 2413TIP3    H128798   4.075   5.336   8.290
 2413TIP3    H228799   3.986   5.248   8.376
 2414TIP3   OH228800   6.215   3.972   1.697
 2414TIP3    H128801   6.164   3.916   1.638
 2414TIP3    H228802   6.284   4.009   1.642
 2415TIP3   OH228803   1.873   6.352   0.908
 2415TIP3    H128804   1.804   6.406   0.946
 2415TIP3    H228805   1.917   6.409   0.845
 2416TIP3   OH228806   0.600   6.082   1.300
 2416TIP3    H128807   0.599   6.132   1.219
 2416TIP3    H228808   0.511   6.046   1.307
 2417TIP3   OH228809   3.552   3.732   2.124
 2417TIP3    H128810   3.542   3.657   2.183
 2417TIP3    H228811   3.487   3.795   2.155
 2418TIP3   OH228812   5.286   1.690   2.355
 2418TIP3    H128813   5.364   1.668   2.407
 2418TIP3    H228814   5.264   1.610   2.310
 2419TIP3   OH228815   6.159   4.588   8.469
 2419TIP3    H128816   6.120   4.675   8.460
 2419TIP3    H228817   6.097   4.540   8.523
 2420TIP3   OH228818   0.430   6.329   0.314
 2420TIP3    H128819   0.434   6.246   0.362
 2420TIP3    H228820   0.359   6.377   0.356
 2421TIP3   OH228821   4.169   3.242   7.713
 2421TIP3    H128822   4.087   3.247   7.762
 2421TIP3    H228823   4.161   3.161   7.662
 2422TIP3   OH228824   4.363   5.052   7.856
 2422TIP3    H128825   4.343   5.141   7.884
 2422TIP3    H228826   4.430   5.063   7.788
 2423TIP3   OH228827   2.285   3.953   0.920
 2423TIP3    H128828   2.282   3.858   0.921
 2423TIP3    H228829   2.320   3.976   1.007
 2424TIP3   OH228830   1.295   6.009   7.869
 2424TIP3    H128831   1.389   6.028   7.872
 2424TIP3    H228832   1.258   6.078   7.814
 2425TIP3   OH228833   5.671   5.071   8.765
 2425TIP3    H128834   5.666   4.992   8.711
 2425TIP3    H228835   5.616   5.135   8.720
 2426TIP3   OH228836   4.470   2.706   0.318
 2426TIP3    H128837   4.481   2.755   0.237
 2426TIP3    H228838   4.558   2.674   0.339
 2427TIP3   OH228839   2.562   4.102   7.199
 2427TIP3    H128840   2.609   4.159   7.139
 2427TIP3    H228841   2.620   4.093   7.274
 2428TIP3   OH228842   3.770   5.609   1.380
 2428TIP3    H128843   3.783   5.695   1.419
 2428TIP3    H228844   3.681   5.583   1.406
 2429TIP3   OH228845   6.383   4.594   6.558
 2429TIP3    H128846   6.288   4.606   6.555
 2429TIP3    H228847   6.419   4.683   6.565
 2430TIP3   OH228848   6.334   2.194   7.532
 2430TIP3    H128849   6.395   2.267   7.547
 2430TIP3    H228850   6.263   2.209   7.593
 2431TIP3   OH228851   4.731   3.686   2.184
 2431TIP3    H128852   4.654   3.694   2.240
 2431TIP3    H228853   4.773   3.772   2.189
 2432TIP3   OH228854   5.256   1.397   1.657
 2432TIP3    H128855   5.286   1.307   1.669
 2432TIP3    H228856   5.195   1.411   1.730
 2433TIP3   OH228857   1.386   3.080   7.790
 2433TIP3    H128858   1.292   3.082   7.775
 2433TIP3    H228859   1.424   3.108   7.707
 2434TIP3   OH228860   0.246   5.258   1.236
 2434TIP3    H128861   0.252   5.232   1.328
 2434TIP3    H228862   0.240   5.354   1.239
 2435TIP3   OH228863   1.238   6.061   0.720
 2435TIP3    H128864   1.292   5.987   0.748
 2435TIP3    H228865   1.262   6.132   0.780
 2436TIP3   OH228866   3.928   0.238   2.351
 2436TIP3    H128867   3.954   0.313   2.404
 2436TIP3    H228868   3.881   0.181   2.412
 2437TIP3   OH228869   4.818   5.375   8.223
 2437TIP3    H128870   4.754   5.386   8.153
 2437TIP3    H228871   4.897   5.418   8.190
 2438TIP3   OH228872   4.406   6.098   6.013
 2438TIP3    H128873   4.400   6.144   5.929
 2438TIP3    H228874   4.316   6.074   6.033
 2439TIP3   OH228875   5.390   4.536   8.765
 2439TIP3    H128876   5.334   4.553   8.840
 2439TIP3    H228877   5.345   4.576   8.691
 2440TIP3   OH228878   2.770   6.460   0.871
 2440TIP3    H128879   2.750   6.392   0.807
 2440TIP3    H228880   2.850   6.501   0.837
 2441TIP3   OH228881   3.904   3.373   1.694
 2441TIP3    H128882   3.937   3.283   1.688
 2441TIP3    H228883   3.809   3.364   1.680
 2442TIP3   OH228884   1.786   1.845   8.618
 2442TIP3    H128885   1.744   1.796   8.547
 2442TIP3    H228886   1.823   1.922   8.575
 2443TIP3   OH228887   2.518   4.740   6.313
 2443TIP3    H128888   2.581   4.672   6.291
 2443TIP3    H228889   2.545   4.815   6.261
 2444TIP3   OH228890   5.962   4.252   0.705
 2444TIP3    H128891   5.876   4.264   0.747
 2444TIP3    H228892   5.981   4.336   0.664
 2445TIP3   OH228893   1.496   4.870   1.304
 2445TIP3    H128894   1.410   4.835   1.283
 2445TIP3    H228895   1.501   4.866   1.400
 2446TIP3   OH228896   3.023   5.667   7.684
 2446TIP3    H128897   2.986   5.628   7.763
 2446TIP3    H228898   2.969   5.634   7.613
 2447TIP3   OH228899   5.025   2.141   6.663
 2447TIP3    H128900   5.073   2.181   6.590
 2447TIP3    H228901   4.955   2.091   6.621
 2448TIP3   OH228902   5.084   1.729   0.266
 2448TIP3    H128903   5.137   1.783   0.325
 2448TIP3    H228904   5.108   1.760   0.178
 2449TIP3   OH228905   3.172   4.733   7.436
 2449TIP3    H128906   3.204   4.667   7.497
 2449TIP3    H228907   3.096   4.772   7.480
 2450TIP3   OH228908   1.093   4.995   8.784
 2450TIP3    H128909   1.187   5.001   8.800
 2450TIP3    H228910   1.065   5.085   8.768
 2451TIP3   OH228911   6.748   3.214   0.101
 2451TIP3    H128912   6.671   3.271   0.110
 2451TIP3    H228913   6.753   3.195   0.008
 2452TIP3   OH228914   0.442   2.212   7.903
 2452TIP3    H128915   0.520   2.255   7.869
 2452TIP3    H228916   0.465   2.120   7.906
 2453TIP3   OH228917   3.922   4.737   7.122
 2453TIP3    H128918   3.962   4.752   7.036
 2453TIP3    H228919   3.950   4.812   7.175
 2454TIP3   OH228920   6.416   4.915   7.726
 2454TIP3    H128921   6.451   4.828   7.710
 2454TIP3    H228922   6.410   4.920   7.822
 2455TIP3   OH228923   4.993   6.182   1.155
 2455TIP3    H128924   4.916   6.237   1.172
 2455TIP3    H228925   5.061   6.244   1.130
 2456TIP3   OH228926   6.015   1.879   6.212
 2456TIP3    H128927   6.021   1.962   6.164
 2456TIP3    H228928   5.997   1.814   6.145
 2457TIP3   OH228929   4.667   3.190   7.366
 2457TIP3    H128930   4.692   3.144   7.286
 2457TIP3    H228931   4.577   3.219   7.351
 2458TIP3   OH228932   5.546   2.129   6.822
 2458TIP3    H128933   5.634   2.129   6.858
 2458TIP3    H228934   5.535   2.040   6.787
 2459TIP3   OH228935   5.123   0.484   7.006
 2459TIP3    H128936   5.133   0.516   7.096
 2459TIP3    H228937   5.041   0.524   6.976
 2460TIP3   OH228938   5.342   6.796   8.216
 2460TIP3    H128939   5.397   6.855   8.267
 2460TIP3    H228940   5.386   6.711   8.222
 2461TIP3   OH228941   2.311   2.884   8.228
 2461TIP3    H128942   2.334   2.814   8.167
 2461TIP3    H228943   2.335   2.964   8.182
 2462TIP3   OH228944   4.726   1.159   1.930
 2462TIP3    H128945   4.662   1.163   1.858
 2462TIP3    H228946   4.802   1.207   1.897
 2463TIP3   OH228947   4.961   3.376   0.766
 2463TIP3    H128948   4.870   3.403   0.771
 2463TIP3    H228949   4.968   3.302   0.825
 2464TIP3   OH228950   1.978   0.204   7.081
 2464TIP3    H128951   2.022   0.229   7.163
 2464TIP3    H228952   2.050   0.188   7.020
 2465TIP3   OH228953   4.207   6.377   0.381
 2465TIP3    H128954   4.254   6.295   0.397
 2465TIP3    H228955   4.162   6.364   0.298
 2466TIP3   OH228956   4.300   0.579   2.578
 2466TIP3    H128957   4.389   0.612   2.587
 2466TIP3    H228958   4.310   0.490   2.544
 2467TIP3   OH228959   1.901   3.706   0.918
 2467TIP3    H128960   1.816   3.746   0.902
 2467TIP3    H228961   1.888   3.613   0.900
 2468TIP3   OH228962   1.879   1.842   1.042
 2468TIP3    H128963   1.859   1.829   1.135
 2468TIP3    H228964   1.819   1.784   0.996
 2469TIP3   OH228965   5.845   1.944   0.167
 2469TIP3    H128966   5.845   1.991   0.251
 2469TIP3    H228967   5.915   1.879   0.176
 2470TIP3   OH228968   0.653   4.668   8.190
 2470TIP3    H128969   0.613   4.592   8.148
 2470TIP3    H228970   0.689   4.634   8.272
 2471TIP3   OH228971   4.471   5.598   1.146
 2471TIP3    H128972   4.555   5.578   1.106
 2471TIP3    H228973   4.450   5.520   1.198
 2472TIP3   OH228974   6.234   6.295   7.969
 2472TIP3    H128975   6.301   6.360   7.949
 2472TIP3    H228976   6.185   6.286   7.887
 2473TIP3   OH228977   5.419   1.812   8.630
 2473TIP3    H128978   5.455   1.894   8.594
 2473TIP3    H228979   5.329   1.834   8.654
 2474TIP3   OH228980   0.578   2.191   1.807
 2474TIP3    H128981   0.486   2.183   1.830
 2474TIP3    H228982   0.597   2.112   1.756
 2475TIP3   OH228983   4.362   5.371   5.664
 2475TIP3    H128984   4.361   5.315   5.741
 2475TIP3    H228985   4.454   5.397   5.655
 2476TIP3   OH228986   0.791   2.886   7.709
 2476TIP3    H128987   0.818   2.978   7.705
 2476TIP3    H228988   0.768   2.864   7.619
 2477TIP3   OH228989   6.375   3.328   7.485
 2477TIP3    H128990   6.465   3.309   7.458
 2477TIP3    H228991   6.383   3.405   7.542
 2478TIP3   OH228992   2.073   5.092   2.258
 2478TIP3    H128993   2.068   5.173   2.207
 2478TIP3    H228994   2.167   5.077   2.270
 2479TIP3   OH228995   1.119   6.461   1.497
 2479TIP3    H128996   1.052   6.429   1.558
 2479TIP3    H228997   1.113   6.401   1.423
 2480TIP3   OH228998   2.871   5.953   8.710
 2480TIP3    H128999   2.930   5.966   8.784
 2480TIP3    H229000   2.869   5.858   8.698
 2481TIP3   OH229001   1.699   2.917   6.829
 2481TIP3    H129002   1.697   2.971   6.908
 2481TIP3    H229003   1.789   2.923   6.798
 2482TIP3   OH229004   2.106   3.160   8.501
 2482TIP3    H129005   2.184   3.194   8.545
 2482TIP3    H229006   2.090   3.221   8.429
 2483TIP3   OH229007   2.651   2.798   8.784
 2483TIP3    H129008   2.677   2.745   8.859
 2483TIP3    H229009   2.727   2.853   8.765
 2484TIP3   OH229010   5.703   1.875   0.776
 2484TIP3    H129011   5.646   1.922   0.715
 2484TIP3    H229012   5.729   1.941   0.840
 2485TIP3   OH229013   0.765   5.506   7.642
 2485TIP3    H129014   0.770   5.411   7.628
 2485TIP3    H229015   0.852   5.539   7.621
 2486TIP3   OH229016   1.328   0.591   2.073
 2486TIP3    H129017   1.324   0.513   2.129
 2486TIP3    H229018   1.412   0.584   2.028
 2487TIP3   OH229019   4.365   3.245   7.921
 2487TIP3    H129020   4.296   3.206   7.975
 2487TIP3    H229021   4.326   3.254   7.834
 2488TIP3   OH229022   3.607   2.275   8.829
 2488TIP3    H129023   3.553   2.308   8.757
 2488TIP3    H229024   3.570   2.189   8.849
 2489TIP3   OH229025   4.872   5.277   2.287
 2489TIP3    H129026   4.903   5.304   2.374
 2489TIP3    H229027   4.949   5.236   2.246
 2490TIP3   OH229028   5.453   0.321   6.623
 2490TIP3    H129029   5.375   0.377   6.619
 2490TIP3    H229030   5.503   0.356   6.697
 2491TIP3   OH229031   0.726   1.613   6.368
 2491TIP3    H129032   0.671   1.637   6.293
 2491TIP3    H229033   0.810   1.656   6.351
 2492TIP3   OH229034   0.237   0.285   7.170
 2492TIP3    H129035   0.298   0.211   7.178
 2492TIP3    H229036   0.273   0.352   7.227
 2493TIP3   OH229037   3.184   3.613   1.593
 2493TIP3    H129038   3.112   3.628   1.654
 2493TIP3    H229039   3.172   3.522   1.564
 2494TIP3   OH229040   2.257   4.382   6.287
 2494TIP3    H129041   2.309   4.348   6.214
 2494TIP3    H229042   2.167   4.381   6.254
 2495TIP3   OH229043   0.796   6.685   6.828
 2495TIP3    H129044   0.819   6.750   6.894
 2495TIP3    H229045   0.707   6.658   6.851
 2496TIP3   OH229046   1.524   3.511   0.626
 2496TIP3    H129047   1.429   3.505   0.620
 2496TIP3    H229048   1.555   3.429   0.589
 2497TIP3   OH229049   2.064   2.844   8.326
 2497TIP3    H129050   2.147   2.846   8.277
 2497TIP3    H229051   2.068   2.921   8.383
 2498TIP3   OH229052   2.903   0.272   1.125
 2498TIP3    H129053   2.969   0.322   1.173
 2498TIP3    H229054   2.864   0.216   1.192
 2499TIP3   OH229055   6.405   1.566   2.419
 2499TIP3    H129056   6.477   1.624   2.399
 2499TIP3    H229057   6.411   1.552   2.514
 2500TIP3   OH229058   0.154   2.774   6.354
 2500TIP3    H129059   0.180   2.849   6.302
 2500TIP3    H229060   0.131   2.810   6.440
 2501TIP3   OH229061   0.196   1.297   7.634
 2501TIP3    H129062   0.253   1.357   7.680
 2501TIP3    H229063   0.115   1.296   7.685
 2502TIP3   OH229064   2.522   4.996   1.573
 2502TIP3    H129065   2.592   5.027   1.631
 2502TIP3    H229066   2.446   4.986   1.630
 2503TIP3   OH229067   3.693   2.355   7.105
 2503TIP3    H129068   3.621   2.347   7.042
 2503TIP3    H229069   3.753   2.417   7.065
 2504TIP3   OH229070   3.456   1.028   0.130
 2504TIP3    H129071   3.417   0.948   0.093
 2504TIP3    H229072   3.544   1.001   0.156
 2505TIP3   OH229073   2.178   5.923   8.397
 2505TIP3    H129074   2.107   5.858   8.394
 2505TIP3    H229075   2.144   5.998   8.350
 2506TIP3   OH229076   5.356   3.898   0.507
 2506TIP3    H129077   5.277   3.846   0.517
 2506TIP3    H229078   5.363   3.914   0.413
 2507TIP3   OH229079   0.069   2.967   0.837
 2507TIP3    H129080   0.088   2.956   0.744
 2507TIP3    H229081   0.127   2.904   0.880
 2508TIP3   OH229082   2.990   5.661   1.634
 2508TIP3    H129083   2.977   5.608   1.713
 2508TIP3    H229084   3.045   5.607   1.578
 2509TIP3   OH229085   5.430   3.175   7.510
 2509TIP3    H129086   5.462   3.128   7.433
 2509TIP3    H229087   5.342   3.205   7.486
 2510TIP3   OH229088   5.097   3.785   0.875
 2510TIP3    H129089   5.013   3.789   0.921
 2510TIP3    H229090   5.073   3.763   0.785
 2511TIP3   OH229091   2.423   0.233   8.377
 2511TIP3    H129092   2.338   0.266   8.407
 2511TIP3    H229093   2.451   0.297   8.312
 2512TIP3   OH229094   4.851   4.417   7.367
 2512TIP3    H129095   4.944   4.393   7.375
 2512TIP3    H229096   4.806   4.356   7.426
 2513TIP3   OH229097   6.580   3.186   7.789
 2513TIP3    H129098   6.536   3.110   7.751
 2513TIP3    H229099   6.556   3.185   7.881
 2514TIP3   OH229100   4.922   6.492   0.435
 2514TIP3    H129101   4.924   6.493   0.531
 2514TIP3    H229102   4.890   6.579   0.411
 2515TIP3   OH229103   6.672   4.628   0.737
 2515TIP3    H129104   6.610   4.666   0.675
 2515TIP3    H229105   6.677   4.536   0.712
 2516TIP3   OH229106   4.027   5.420   0.509
 2516TIP3    H129107   3.975   5.376   0.441
 2516TIP3    H229108   4.014   5.367   0.587
 2517TIP3   OH229109   4.301   6.578   8.293
 2517TIP3    H129110   4.209   6.595   8.271
 2517TIP3    H229111   4.312   6.485   8.278
 2518TIP3   OH229112   0.303   6.394   6.895
 2518TIP3    H129113   0.366   6.346   6.842
 2518TIP3    H229114   0.225   6.338   6.896
 2519TIP3   OH229115   6.167   4.657   1.144
 2519TIP3    H129116   6.148   4.750   1.145
 2519TIP3    H229117   6.166   4.633   1.051
 2520TIP3   OH229118   2.827   3.852   1.407
 2520TIP3    H129119   2.782   3.937   1.409
 2520TIP3    H229120   2.913   3.871   1.370
 2521TIP3   OH229121   5.964   2.490   0.625
 2521TIP3    H129122   6.007   2.469   0.708
 2521TIP3    H229123   6.000   2.428   0.563
 2522TIP3   OH229124   3.368   3.862   1.857
 2522TIP3    H129125   3.343   3.870   1.949
 2522TIP3    H229126   3.304   3.916   1.810
 2523TIP3   OH229127   6.489   1.306   0.118
 2523TIP3    H129128   6.477   1.220   0.158
 2523TIP3    H229129   6.437   1.366   0.172
 2524TIP3   OH229130   1.672   0.720   1.780
 2524TIP3    H129131   1.695   0.812   1.775
 2524TIP3    H229132   1.734   0.683   1.843
 2525TIP3   OH229133   5.764   1.021   0.884
 2525TIP3    H129134   5.686   1.060   0.844
 2525TIP3    H229135   5.832   1.032   0.818
 2526TIP3   OH229136   1.444   1.654   8.663
 2526TIP3    H129137   1.425   1.680   8.573
 2526TIP3    H229138   1.476   1.564   8.656
 2527TIP3   OH229139   0.705   1.382   0.483
 2527TIP3    H129140   0.756   1.430   0.417
 2527TIP3    H229141   0.660   1.313   0.434
 2528TIP3   OH229142   1.675   5.835   0.005
 2528TIP3    H129143   1.687   5.764  -0.058
 2528TIP3    H229144   1.746   5.896  -0.014
 2529TIP3   OH229145   6.157   0.992   1.142
 2529TIP3    H129146   6.176   1.050   1.068
 2529TIP3    H229147   6.073   1.023   1.175
 2530TIP3   OH229148   6.799   3.955   0.935
 2530TIP3    H129149   6.834   4.037   0.900
 2530TIP3    H229150   6.857   3.934   1.009
 2531TIP3   OH229151   3.841   3.975   1.019
 2531TIP3    H129152   3.800   3.992   1.103
 2531TIP3    H229153   3.855   4.062   0.981
 2532TIP3   OH229154   6.755   3.143   6.422
 2532TIP3    H129155   6.783   3.088   6.349
 2532TIP3    H229156   6.789   3.230   6.401
 2533TIP3   OH229157   1.324   5.215   6.315
 2533TIP3    H129158   1.305   5.295   6.266
 2533TIP3    H229159   1.309   5.239   6.407
 2534TIP3   OH229160   4.358   0.175   6.396
 2534TIP3    H129161   4.316   0.100   6.437
 2534TIP3    H229162   4.312   0.186   6.312
 2535TIP3   OH229163   2.005   4.641   1.278
 2535TIP3    H129164   2.009   4.546   1.289
 2535TIP3    H229165   2.072   4.675   1.339
 2536TIP3   OH229166   3.316   3.572   1.963
 2536TIP3    H129167   3.319   3.516   1.886
 2536TIP3    H229168   3.223   3.577   1.985
 2537TIP3   OH229169   3.479   4.515   7.788
 2537TIP3    H129170   3.442   4.451   7.849
 2537TIP3    H229171   3.497   4.465   7.708
 2538TIP3   OH229172   3.591   2.918   0.509
 2538TIP3    H129173   3.557   2.888   0.593
 2538TIP3    H229174   3.559   3.008   0.500
 2539TIP3   OH229175   6.687   2.726   0.210
 2539TIP3    H129176   6.653   2.738   0.298
 2539TIP3    H229177   6.747   2.799   0.197
 2540TIP3   OH229178   2.170   5.209   7.963
 2540TIP3    H129179   2.096   5.208   7.902
 2540TIP3    H229180   2.129   5.213   8.050
 2541TIP3   OH229181   4.911   2.954   8.245
 2541TIP3    H129182   4.998   2.960   8.284
 2541TIP3    H229183   4.895   3.041   8.208
 2542TIP3   OH229184   3.444   1.668   6.750
 2542TIP3    H129185   3.415   1.611   6.679
 2542TIP3    H229186   3.475   1.747   6.707
 2543TIP3   OH229187   2.699   1.412   7.454
 2543TIP3    H129188   2.632   1.476   7.475
 2543TIP3    H229189   2.729   1.435   7.366
 2544TIP3   OH229190   1.434   1.872   6.941
 2544TIP3    H129191   1.404   1.959   6.915
 2544TIP3    H229192   1.528   1.871   6.921
 2545TIP3   OH229193   4.021   2.003   7.868
 2545TIP3    H129194   3.956   1.956   7.815
 2545TIP3    H229195   4.013   1.964   7.955
 2546TIP3   OH229196   1.799   6.449   7.921
 2546TIP3    H129197   1.841   6.405   7.995
 2546TIP3    H229198   1.869   6.500   7.881
 2547TIP3   OH229199   6.583   1.092   1.239
 2547TIP3    H129200   6.549   1.099   1.150
 2547TIP3    H229201   6.551   1.006   1.269
 2548TIP3   OH229202   4.055   2.738   0.023
 2548TIP3    H129203   4.096   2.681  -0.043
 2548TIP3    H229204   4.001   2.679   0.076
 2549TIP3   OH229205   3.155   4.722   7.828
 2549TIP3    H129206   3.087   4.754   7.887
 2549TIP3    H229207   3.237   4.735   7.876
 2550TIP3   OH229208   2.242   5.410   1.641
 2550TIP3    H129209   2.197   5.333   1.675
 2550TIP3    H229210   2.330   5.404   1.677
 2551TIP3   OH229211   1.413   5.294   8.816
 2551TIP3    H129212   1.353   5.304   8.891
 2551TIP3    H229213   1.496   5.330   8.847
 2552TIP3   OH229214   2.227   4.350   1.521
 2552TIP3    H129215   2.156   4.289   1.542
 2552TIP3    H229216   2.184   4.435   1.511
 2553TIP3   OH229217   1.068   5.033   8.387
 2553TIP3    H129218   1.076   5.112   8.441
 2553TIP3    H229219   1.033   5.064   8.304
 2554TIP3   OH229220   5.295   6.103   7.322
 2554TIP3    H129221   5.271   6.167   7.389
 2554TIP3    H229222   5.211   6.068   7.291
 2555TIP3   OH229223   2.252   2.826   0.550
 2555TIP3    H129224   2.309   2.789   0.618
 2555TIP3    H229225   2.274   2.777   0.471
 2556TIP3   OH229226   0.080   3.666   6.745
 2556TIP3    H129227   0.012   3.697   6.804
 2556TIP3    H229228   0.045   3.584   6.709
 2557TIP3   OH229229   5.482   6.373   7.580
 2557TIP3    H129230   5.434   6.306   7.532
 2557TIP3    H229231   5.421   6.447   7.585
 2558TIP3   OH229232   6.188   3.800   0.196
 2558TIP3    H129233   6.144   3.749   0.128
 2558TIP3    H229234   6.191   3.889   0.161
 2559TIP3   OH229235   0.785   3.733   7.102
 2559TIP3    H129236   0.734   3.799   7.149
 2559TIP3    H229237   0.871   3.734   7.144
 2560TIP3   OH229238   2.643   3.982   2.348
 2560TIP3    H129239   2.632   4.034   2.428
 2560TIP3    H229240   2.584   3.907   2.360
 2561TIP3   OH229241   2.311   5.223   7.107
 2561TIP3    H129242   2.396   5.252   7.140
 2561TIP3    H229243   2.247   5.261   7.168
 2562TIP3   OH229244   2.476   2.362   7.449
 2562TIP3    H129245   2.466   2.431   7.383
 2562TIP3    H229246   2.569   2.362   7.470
 2563TIP3   OH229247   2.136   3.789   6.858
 2563TIP3    H129248   2.218   3.816   6.899
 2563TIP3    H229249   2.090   3.871   6.840
 2564TIP3   OH229250   4.305   1.929   8.806
 2564TIP3    H129251   4.382   1.981   8.829
 2564TIP3    H229252   4.341   1.852   8.761
 2565TIP3   OH229253   3.439   5.447   0.980
 2565TIP3    H129254   3.395   5.530   1.000
 2565TIP3    H229255   3.375   5.397   0.929
 2566TIP3   OH229256   0.680   3.722   0.210
 2566TIP3    H129257   0.693   3.635   0.248
 2566TIP3    H229258   0.768   3.760   0.207
 2567TIP3   OH229259   1.986   0.563   7.992
 2567TIP3    H129260   2.011   0.641   7.941
 2567TIP3    H229261   1.891   0.565   7.993
 2568TIP3   OH229262   0.891   1.518   8.489
 2568TIP3    H129263   0.908   1.455   8.559
 2568TIP3    H229264   0.941   1.484   8.414
 2569TIP3   OH229265   4.886   2.690   0.537
 2569TIP3    H129266   4.927   2.661   0.455
 2569TIP3    H229267   4.833   2.766   0.512
 2570TIP3   OH229268   2.798   3.876   6.739
 2570TIP3    H129269   2.847   3.811   6.788
 2570TIP3    H229270   2.752   3.927   6.805
 2571TIP3   OH229271   5.812   5.465   8.071
 2571TIP3    H129272   5.749   5.533   8.094
 2571TIP3    H229273   5.820   5.471   7.976
 2572TIP3   OH229274   6.390   3.183   6.493
 2572TIP3    H129275   6.305   3.141   6.508
 2572TIP3    H229276   6.426   3.195   6.581
 2573TIP3   OH229277   4.492   3.238   1.019
 2573TIP3    H129278   4.531   3.186   1.090
 2573TIP3    H229279   4.409   3.269   1.055
 2574TIP3   OH229280   2.056   4.378   1.900
 2574TIP3    H129281   2.042   4.383   1.995
 2574TIP3    H229282   1.968   4.369   1.863
 2575TIP3   OH229283   1.427   0.035   8.775
 2575TIP3    H129284   1.504   0.012   8.827
 2575TIP3    H229285   1.397  -0.048   8.738
 2576TIP3   OH229286   2.606   6.046   6.967
 2576TIP3    H129287   2.681   6.098   6.993
 2576TIP3    H229288   2.641   5.959   6.950
 2577TIP3   OH229289   3.375   2.807   8.803
 2577TIP3    H129290   3.438   2.865   8.845
 2577TIP3    H229291   3.306   2.866   8.770
 2578TIP3   OH229292   5.481   3.758   8.289
 2578TIP3    H129293   5.438   3.724   8.367
 2578TIP3    H229294   5.566   3.790   8.320
 2579TIP3   OH229295   6.261   4.024   0.089
 2579TIP3    H129296   6.343   4.034   0.138
 2579TIP3    H229297   6.231   4.114   0.076
 2580TIP3   OH229298   0.316   2.400   7.577
 2580TIP3    H129299   0.237   2.346   7.577
 2580TIP3    H229300   0.360   2.379   7.495
 2581TIP3   OH229301   2.494   6.462   8.512
 2581TIP3    H129302   2.486   6.513   8.431
 2581TIP3    H229303   2.576   6.414   8.503
 2582TIP3   OH229304   3.283   1.862   8.829
 2582TIP3    H129305   3.282   1.884   8.736
 2582TIP3    H229306   3.216   1.919   8.868
 2583TIP3   OH229307   2.801   2.209   7.311
 2583TIP3    H129308   2.744   2.152   7.362
 2583TIP3    H229309   2.819   2.283   7.369
 2584TIP3   OH229310   3.634   5.183   7.758
 2584TIP3    H129311   3.582   5.105   7.740
 2584TIP3    H229312   3.720   5.164   7.721
 2585TIP3   OH229313   0.313   3.850   2.174
 2585TIP3    H129314   0.385   3.900   2.135
 2585TIP3    H229315   0.243   3.914   2.185
 2586TIP3   OH229316   4.841   3.220   8.233
 2586TIP3    H129317   4.835   3.255   8.322
 2586TIP3    H229318   4.851   3.298   8.178
 2587TIP3   OH229319   2.789   2.783   7.913
 2587TIP3    H129320   2.748   2.829   7.987
 2587TIP3    H229321   2.729   2.711   7.894
 2588TIP3   OH229322   3.464   3.158   1.772
 2588TIP3    H129323   3.383   3.197   1.741
 2588TIP3    H229324   3.483   3.203   1.854
 2589TIP3   OH229325   2.178   2.879   7.007
 2589TIP3    H129326   2.175   2.959   6.954
 2589TIP3    H229327   2.252   2.830   6.973
 2590TIP3   OH229328   0.905   5.366   7.206
 2590TIP3    H129329   0.936   5.350   7.117
 2590TIP3    H229330   0.901   5.462   7.213
 2591TIP3   OH229331   6.653   0.815   1.667
 2591TIP3    H129332   6.657   0.875   1.741
 2591TIP3    H229333   6.682   0.731   1.702
 2592TIP3   OH229334   1.718   0.539   8.571
 2592TIP3    H129335   1.726   0.534   8.667
 2592TIP3    H229336   1.644   0.482   8.551
 2593TIP3   OH229337   2.919   3.939   0.971
 2593TIP3    H129338   2.934   3.936   0.876
 2593TIP3    H229339   2.929   4.031   0.994
 2594TIP3   OH229340   4.158   6.730   0.954
 2594TIP3    H129341   4.082   6.688   0.995
 2594TIP3    H229342   4.121   6.794   0.894
 2595TIP3   OH229343   3.322   2.604   8.168
 2595TIP3    H129344   3.381   2.581   8.096
 2595TIP3    H229345   3.295   2.693   8.150
 2596TIP3   OH229346   2.107   6.419   7.864
 2596TIP3    H129347   2.061   6.335   7.858
 2596TIP3    H229348   2.170   6.407   7.935
 2597TIP3   OH229349   0.581   1.286   2.517
 2597TIP3    H129350   0.653   1.312   2.574
 2597TIP3    H229351   0.603   1.197   2.490
 2598TIP3   OH229352   2.441   2.915   7.787
 2598TIP3    H129353   2.367   2.903   7.728
 2598TIP3    H229354   2.511   2.948   7.732
 2599TIP3   OH229355   0.931   5.832   7.147
 2599TIP3    H129356   0.887   5.871   7.072
 2599TIP3    H229357   0.978   5.757   7.111
 2600TIP3   OH229358   6.613   0.955   1.903
 2600TIP3    H129359   6.681   1.021   1.889
 2600TIP3    H229360   6.621   0.933   1.996
 2601TIP3   OH229361   2.843   2.602   0.412
 2601TIP3    H129362   2.788   2.649   0.349
 2601TIP3    H229363   2.827   2.510   0.393
 2602TIP3   OH229364   2.051   5.211   8.603
 2602TIP3    H129365   2.012   5.215   8.690
 2602TIP3    H229366   2.004   5.141   8.557
 2603TIP3   OH229367   3.059   4.327   0.484
 2603TIP3    H129368   2.997   4.269   0.528
 2603TIP3    H229369   3.071   4.287   0.397
 2604TIP3   OH229370   6.116   5.205   8.456
 2604TIP3    H129371   6.072   5.180   8.537
 2604TIP3    H229372   6.051   5.191   8.387
 2605TIP3   OH229373   1.258   0.668   1.560
 2605TIP3    H129374   1.200   0.743   1.546
 2605TIP3    H229375   1.200   0.597   1.587
 2606TIP3   OH229376   5.102   3.944   1.507
 2606TIP3    H129377   5.097   4.032   1.546
 2606TIP3    H229378   5.034   3.894   1.553
 2607TIP3   OH229379   2.778   0.281   8.699
 2607TIP3    H129380   2.720   0.205   8.700
 2607TIP3    H229381   2.764   0.320   8.612
 2608TIP3   OH229382   4.188   1.252   7.241
 2608TIP3    H129383   4.257   1.255   7.175
 2608TIP3    H229384   4.183   1.160   7.267
 2609TIP3   OH229385   4.802   0.313   6.982
 2609TIP3    H129386   4.716   0.279   7.008
 2609TIP3    H229387   4.802   0.403   7.015
 2610TIP3   OH229388   2.033   1.002   0.154
 2610TIP3    H129389   2.128   0.997   0.145
 2610TIP3    H229390   2.015   1.095   0.164
 2611TIP3   OH229391   4.380   4.294   8.781
 2611TIP3    H129392   4.475   4.288   8.788
 2611TIP3    H229393   4.364   4.383   8.748
 2612TIP3   OH229394   2.839   1.504   0.925
 2612TIP3    H129395   2.903   1.485   0.994
 2612TIP3    H229396   2.858   1.594   0.898
 2613TIP3   OH229397   3.781   3.885   6.498
 2613TIP3    H129398   3.819   3.969   6.473
 2613TIP3    H229399   3.853   3.823   6.491
 2614TIP3   OH229400   6.585   1.134   0.951
 2614TIP3    H129401   6.624   1.125   0.865
 2614TIP3    H229402   6.490   1.135   0.934
 2615TIP3   OH229403   6.268   5.673   1.756
 2615TIP3    H129404   6.330   5.644   1.822
 2615TIP3    H229405   6.230   5.753   1.793
 2616TIP3   OH229406   4.065   2.450   7.611
 2616TIP3    H129407   4.132   2.519   7.610
 2616TIP3    H229408   4.027   2.456   7.699
 2617TIP3   OH229409   2.463   5.156   1.989
 2617TIP3    H129410   2.437   5.243   2.018
 2617TIP3    H229411   2.534   5.172   1.927
 2618TIP3   OH229412   0.352   3.749   0.147
 2618TIP3    H129413   0.424   3.793   0.192
 2618TIP3    H229414   0.330   3.675   0.204
 2619TIP3   OH229415   1.940   0.234   1.694
 2619TIP3    H129416   1.999   0.261   1.765
 2619TIP3    H229417   1.993   0.175   1.641
 2620TIP3   OH229418   1.510   5.766   2.199
 2620TIP3    H129419   1.431   5.811   2.170
 2620TIP3    H229420   1.477   5.690   2.248
 2621TIP3   OH229421   0.314   2.066   0.917
 2621TIP3    H129422   0.386   2.089   0.975
 2621TIP3    H229423   0.248   2.028   0.974
 2622TIP3   OH229424   6.561   6.359   1.105
 2622TIP3    H129425   6.474   6.349   1.067
 2622TIP3    H229426   6.557   6.443   1.151
 2623TIP3   OH229427   6.637   2.667   6.471
 2623TIP3    H129428   6.572   2.601   6.447
 2623TIP3    H229429   6.601   2.749   6.437
 2624TIP3   OH229430   2.634   4.269   7.453
 2624TIP3    H129431   2.565   4.326   7.420
 2624TIP3    H229432   2.709   4.287   7.398
 2625TIP3   OH229433   1.396   5.001   0.957
 2625TIP3    H129434   1.381   4.993   0.863
 2625TIP3    H229435   1.415   4.912   0.986
 2626TIP3   OH229436   2.145   1.876   1.014
 2626TIP3    H129437   2.053   1.851   1.015
 2626TIP3    H229438   2.151   1.941   0.945
 2627TIP3   OH229439   1.364   0.173   8.535
 2627TIP3    H129440   1.425   0.146   8.603
 2627TIP3    H229441   1.351   0.095   8.481
 2628TIP3   OH229442   5.266   6.438   8.297
 2628TIP3    H129443   5.274   6.485   8.380
 2628TIP3    H229444   5.334   6.476   8.241
 2629TIP3   OH229445   5.065   4.049   0.658
 2629TIP3    H129446   5.090   3.963   0.691
 2629TIP3    H229447   4.970   4.046   0.653
 2630TIP3   OH229448   1.628   0.832   8.120
 2630TIP3    H129449   1.634   0.753   8.066
 2630TIP3    H229450   1.717   0.846   8.152
 2631TIP3   OH229451   4.914   3.517   1.069
 2631TIP3    H129452   4.853   3.581   1.105
 2631TIP3    H229453   5.001   3.554   1.085
 2632TIP3   OH229454   0.457   2.076   0.243
 2632TIP3    H129455   0.490   1.986   0.237
 2632TIP3    H229456   0.465   2.110   0.154
 2633TIP3   OH229457   3.187   6.791   7.655
 2633TIP3    H129458   3.247   6.725   7.689
 2633TIP3    H229459   3.244   6.864   7.631
 2634TIP3   OH229460   3.266   3.835   6.817
 2634TIP3    H129461   3.292   3.877   6.899
 2634TIP3    H229462   3.292   3.743   6.828
 2635TIP3   OH229463   6.722   2.049   8.359
 2635TIP3    H129464   6.736   2.110   8.431
 2635TIP3    H229465   6.650   1.993   8.389
 2636TIP3   OH229466   6.202   2.747   1.227
 2636TIP3    H129467   6.247   2.716   1.149
 2636TIP3    H229468   6.190   2.669   1.281
 2637TIP3   OH229469   4.280   1.031   7.583
 2637TIP3    H129470   4.307   0.942   7.605
 2637TIP3    H229471   4.202   1.021   7.530
 2638TIP3   OH229472   4.847   1.188   1.530
 2638TIP3    H129473   4.891   1.110   1.495
 2638TIP3    H229474   4.842   1.248   1.456
 2639TIP3   OH229475   0.177   6.134   7.668
 2639TIP3    H129476   0.086   6.163   7.665
 2639TIP3    H229477   0.227   6.205   7.627
 2640TIP3   OH229478   2.948   3.881   7.629
 2640TIP3    H129479   3.038   3.852   7.612
 2640TIP3    H229480   2.911   3.813   7.685
 2641TIP3   OH229481   3.989   2.584   6.709
 2641TIP3    H129482   3.989   2.667   6.757
 2641TIP3    H229483   4.034   2.603   6.627
 2642TIP3   OH229484   5.283   1.599   0.545
 2642TIP3    H129485   5.324   1.684   0.529
 2642TIP3    H229486   5.250   1.604   0.634
 2643TIP3   OH229487   5.122   2.182   7.956
 2643TIP3    H129488   5.136   2.106   8.012
 2643TIP3    H229489   5.157   2.157   7.871
 2644TIP3   OH229490   3.351   4.187   6.867
 2644TIP3    H129491   3.433   4.137   6.872
 2644TIP3    H229492   3.349   4.221   6.778
 2645TIP3   OH229493   1.636   6.272   1.505
 2645TIP3    H129494   1.698   6.200   1.509
 2645TIP3    H229495   1.664   6.323   1.428
 2646TIP3   OH229496   6.241   1.290   0.386
 2646TIP3    H129497   6.277   1.371   0.350
 2646TIP3    H229498   6.200   1.246   0.312
 2647TIP3   OH229499   5.584   5.427   6.943
 2647TIP3    H129500   5.626   5.447   7.026
 2647TIP3    H229501   5.654   5.433   6.878
 2648TIP3   OH229502   1.488   2.871   1.550
 2648TIP3    H129503   1.509   2.841   1.639
 2648TIP3    H229504   1.435   2.949   1.563
 2649TIP3   OH229505   6.232   1.812   6.969
 2649TIP3    H129506   6.235   1.790   6.876
 2649TIP3    H229507   6.241   1.728   7.014
 2650TIP3   OH229508   3.083   5.995   0.043
 2650TIP3    H129509   3.175   5.985   0.019
 2650TIP3    H229510   3.076   6.084   0.077
 2651TIP3   OH229511   6.514   6.442   1.787
 2651TIP3    H129512   6.443   6.431   1.850
 2651TIP3    H229513   6.589   6.468   1.841
 2652TIP3   OH229514   0.368   1.416   7.197
 2652TIP3    H129515   0.417   1.470   7.135
 2652TIP3    H229516   0.278   1.449   7.192
 2653TIP3   OH229517   5.756   3.683   7.049
 2653TIP3    H129518   5.705   3.708   7.126
 2653TIP3    H229519   5.724   3.595   7.027
 2654TIP3   OH229520   1.630   0.063   1.436
 2654TIP3    H129521   1.662  -0.027   1.448
 2654TIP3    H229522   1.575   0.079   1.513
 2655TIP3   OH229523   6.470   3.619   8.733
 2655TIP3    H129524   6.375   3.629   8.732
 2655TIP3    H229525   6.490   3.576   8.650
 2656TIP3   OH229526   0.385   4.318   6.719
 2656TIP3    H129527   0.449   4.386   6.700
 2656TIP3    H229528   0.329   4.355   6.787
 2657TIP3   OH229529   5.650   6.601   7.277
 2657TIP3    H129530   5.742   6.624   7.284
 2657TIP3    H229531   5.625   6.628   7.189
 2658TIP3   OH229532   5.274   6.798   7.870
 2658TIP3    H129533   5.260   6.852   7.948
 2658TIP3    H229534   5.201   6.735   7.871
 2659TIP3   OH229535   3.692   3.518   0.078
 2659TIP3    H129536   3.626   3.469   0.126
 2659TIP3    H229537   3.751   3.552   0.146
 2660TIP3   OH229538   6.050   4.570   2.373
 2660TIP3    H129539   6.088   4.485   2.355
 2660TIP3    H229540   6.014   4.563   2.461
 2661TIP3   OH229541   6.275   2.032   7.102
 2661TIP3    H129542   6.334   2.019   7.176
 2661TIP3    H229543   6.266   1.945   7.062
 2662TIP3   OH229544   6.612   1.486   8.363
 2662TIP3    H129545   6.592   1.544   8.436
 2662TIP3    H229546   6.558   1.408   8.378
 2663TIP3   OH229547   6.675   2.519   1.112
 2663TIP3    H129548   6.604   2.463   1.144
 2663TIP3    H229549   6.724   2.463   1.051
 2664TIP3   OH229550   3.230   0.409   7.143
 2664TIP3    H129551   3.169   0.483   7.152
 2664TIP3    H229552   3.244   0.402   7.048
 2665TIP3   OH229553   1.727   4.987   2.420
 2665TIP3    H129554   1.715   4.914   2.481
 2665TIP3    H229555   1.809   5.028   2.447
 2666TIP3   OH229556   0.225   6.298   1.211
 2666TIP3    H129557   0.156   6.334   1.268
 2666TIP3    H229558   0.266   6.375   1.171
 2667TIP3   OH229559   6.003   5.263   7.550
 2667TIP3    H129560   6.046   5.191   7.597
 2667TIP3    H229561   6.063   5.337   7.561
 2668TIP3   OH229562   2.786   5.371   1.568
 2668TIP3    H129563   2.721   5.435   1.599
 2668TIP3    H229564   2.869   5.419   1.569
 2669TIP3   OH229565   4.301   6.261   1.054
 2669TIP3    H129566   4.249   6.218   0.987
 2669TIP3    H229567   4.310   6.351   1.024
 2670TIP3   OH229568   0.676   6.641   8.205
 2670TIP3    H129569   0.690   6.571   8.268
 2670TIP3    H229570   0.615   6.701   8.249
 2671TIP3   OH229571   0.549   4.752   1.383
 2671TIP3    H129572   0.561   4.659   1.362
 2671TIP3    H229573   0.632   4.793   1.360
 2672TIP3   OH229574   1.400   4.731   7.604
 2672TIP3    H129575   1.459   4.656   7.590
 2672TIP3    H229576   1.391   4.737   7.699
 2673TIP3   OH229577   2.066   5.837   0.655
 2673TIP3    H129578   2.076   5.754   0.607
 2673TIP3    H229579   1.972   5.855   0.651
 2674TIP3   OH229580   5.970   4.731   0.423
 2674TIP3    H129581   5.884   4.699   0.395
 2674TIP3    H229582   5.951   4.789   0.497
 2675TIP3   OH229583   5.850   2.869   7.094
 2675TIP3    H129584   5.903   2.837   7.021
 2675TIP3    H229585   5.911   2.877   7.167
 2676TIP3   OH229586   6.557   1.356   1.267
 2676TIP3    H129587   6.554   1.260   1.271
 2676TIP3    H229588   6.574   1.375   1.175
 2677TIP3   OH229589   6.256   3.512   0.066
 2677TIP3    H129590   6.165   3.538   0.080
 2677TIP3    H229591   6.303   3.554   0.138
 2678TIP3   OH229592   5.598   1.470   7.709
 2678TIP3    H129593   5.562   1.504   7.627
 2678TIP3    H229594   5.538   1.500   7.776
 2679TIP3   OH229595   1.976   1.581   1.675
 2679TIP3    H129596   2.036   1.556   1.745
 2679TIP3    H229597   2.032   1.626   1.611
 2680TIP3   OH229598   5.651   2.075   2.087
 2680TIP3    H129599   5.678   2.146   2.145
 2680TIP3    H229600   5.733   2.039   2.052
 2681TIP3   OH229601   5.639   5.405   7.197
 2681TIP3    H129602   5.559   5.357   7.215
 2681TIP3    H229603   5.686   5.408   7.280
 2682TIP3   OH229604   2.872   1.782   0.072
 2682TIP3    H129605   2.834   1.785   0.160
 2682TIP3    H229606   2.927   1.861   0.067
 2683TIP3   OH229607   0.821   6.497   7.118
 2683TIP3    H129608   0.773   6.479   7.037
 2683TIP3    H229609   0.766   6.559   7.165
 2684TIP3   OH229610   1.369   0.377   6.841
 2684TIP3    H129611   1.274   0.372   6.852
 2684TIP3    H229612   1.393   0.294   6.799
 2685TIP3   OH229613   0.814   0.588   7.231
 2685TIP3    H129614   0.800   0.536   7.152
 2685TIP3    H229615   0.844   0.524   7.296
 2686TIP3   OH229616   4.358   1.953   7.557
 2686TIP3    H129617   4.377   1.881   7.616
 2686TIP3    H229618   4.268   1.936   7.527
 2687TIP3   OH229619   2.000   0.825   8.222
 2687TIP3    H129620   1.955   0.768   8.284
 2687TIP3    H229621   2.085   0.784   8.209
 2688TIP3   OH229622   5.838   3.520   1.863
 2688TIP3    H129623   5.766   3.500   1.923
 2688TIP3    H229624   5.869   3.435   1.833
 2689TIP3   OH229625   6.581   4.401   0.638
 2689TIP3    H129626   6.611   4.422   0.550
 2689TIP3    H229627   6.528   4.322   0.626
 2690TIP3   OH229628   5.312   5.480   0.744
 2690TIP3    H129629   5.358   5.494   0.826
 2690TIP3    H229630   5.244   5.416   0.764
 2691TIP3   OH229631   3.476   6.740   0.193
 2691TIP3    H129632   3.550   6.679   0.196
 2691TIP3    H229633   3.513   6.824   0.217
 2692TIP3   OH229634   3.872   2.865   8.221
 2692TIP3    H129635   3.944   2.881   8.281
 2692TIP3    H229636   3.836   2.780   8.247
 2693TIP3   OH229637   5.302   1.838   0.878
 2693TIP3    H129638   5.336   1.861   0.965
 2693TIP3    H229639   5.256   1.755   0.891
 2694TIP3   OH229640   5.739   3.388   1.080
 2694TIP3    H129641   5.778   3.434   1.155
 2694TIP3    H229642   5.810   3.382   1.016
 2695TIP3   OH229643   1.119   2.190   7.805
 2695TIP3    H129644   1.100   2.203   7.898
 2695TIP3    H229645   1.204   2.147   7.803
 2696TIP3   OH229646   5.378   1.700   8.349
 2696TIP3    H129647   5.473   1.696   8.345
 2696TIP3    H229648   5.357   1.789   8.318
 2697TIP3   OH229649   0.359   1.933   2.389
 2697TIP3    H129650   0.340   1.858   2.445
 2697TIP3    H229651   0.435   1.908   2.338
 2698TIP3   OH229652   1.405   0.431   6.171
 2698TIP3    H129653   1.469   0.401   6.236
 2698TIP3    H229654   1.350   0.354   6.154
 2699TIP3   OH229655   0.065   3.807   7.279
 2699TIP3    H129656   0.148   3.797   7.233
 2699TIP3    H229657   0.051   3.901   7.284
 2700TIP3   OH229658   0.342   5.409   8.822
 2700TIP3    H129659   0.303   5.324   8.802
 2700TIP3    H229660   0.355   5.407   8.917
 2701TIP3   OH229661   4.889   0.635   6.971
 2701TIP3    H129662   4.901   0.665   7.061
 2701TIP3    H229663   4.866   0.714   6.922
 2702TIP3   OH229664   3.142   0.956   7.193
 2702TIP3    H129665   3.101   0.919   7.271
 2702TIP3    H229666   3.175   0.880   7.145
 2703TIP3   OH229667   6.324   6.552   0.586
 2703TIP3    H129668   6.363   6.524   0.504
 2703TIP3    H229669   6.250   6.606   0.561
 2704TIP3   OH229670   2.146   2.253   1.509
 2704TIP3    H129671   2.131   2.345   1.488
 2704TIP3    H229672   2.240   2.247   1.527
 2705TIP3   OH229673   0.483   5.628   8.719
 2705TIP3    H129674   0.436   5.578   8.785
 2705TIP3    H229675   0.495   5.567   8.646
 2706TIP3   OH229676   1.965   2.383   0.174
 2706TIP3    H129677   2.014   2.422   0.101
 2706TIP3    H229678   1.957   2.291   0.151
 2707TIP3   OH229679   6.135   5.620   0.078
 2707TIP3    H129680   6.048   5.602   0.041
 2707TIP3    H229681   6.117   5.655   0.165
 2708TIP3   OH229682   3.234   1.862   7.559
 2708TIP3    H129683   3.296   1.792   7.579
 2708TIP3    H229684   3.152   1.816   7.540
 2709TIP3   OH229685   1.056   1.489   1.507
 2709TIP3    H129686   1.145   1.494   1.541
 2709TIP3    H229687   1.018   1.575   1.525
 2710TIP3   OH229688   0.833   0.771   1.542
 2710TIP3    H129689   0.887   0.729   1.609
 2710TIP3    H229690   0.769   0.821   1.592
 2711TIP3   OH229691   3.161   4.072   8.474
 2711TIP3    H129692   3.140   4.165   8.470
 2711TIP3    H229693   3.215   4.057   8.397
 2712TIP3   OH229694   1.369   2.061   0.188
 2712TIP3    H129695   1.309   2.026   0.122
 2712TIP3    H229696   1.451   2.074   0.142
 2713TIP3   OH229697   0.498   2.745   6.534
 2713TIP3    H129698   0.567   2.765   6.597
 2713TIP3    H229699   0.523   2.792   6.454
 2714TIP3   OH229700   3.577   5.533   7.503
 2714TIP3    H129701   3.554   5.442   7.483
 2714TIP3    H229702   3.595   5.572   7.417
 2715TIP3   OH229703   2.935   5.846   2.234
 2715TIP3    H129704   2.997   5.863   2.163
 2715TIP3    H229705   2.936   5.925   2.287
 2716TIP3   OH229706   0.083   0.880   1.213
 2716TIP3    H129707   0.106   0.920   1.297
 2716TIP3    H229708  -0.001   0.837   1.229
 2717TIP3   OH229709   2.951   0.818   1.585
 2717TIP3    H129710   2.960   0.728   1.555
 2717TIP3    H229711   2.994   0.820   1.670
 2718TIP3   OH229712   5.033   5.080   1.850
 2718TIP3    H129713   5.004   5.037   1.930
 2718TIP3    H229714   5.079   5.011   1.801
 2719TIP3   OH229715   4.747   5.672   7.483
 2719TIP3    H129716   4.814   5.605   7.482
 2719TIP3    H229717   4.765   5.724   7.561
 2720TIP3   OH229718   3.573   0.684   1.697
 2720TIP3    H129719   3.606   0.626   1.766
 2720TIP3    H229720   3.623   0.659   1.619
 2721TIP3   OH229721   5.628   5.925   6.785
 2721TIP3    H129722   5.563   5.905   6.718
 2721TIP3    H229723   5.606   5.868   6.859
 2722TIP3   OH229724   2.670   0.929   6.423
 2722TIP3    H129725   2.634   0.926   6.512
 2722TIP3    H229726   2.764   0.920   6.435
 2723TIP3   OH229727   4.660   4.037   0.338
 2723TIP3    H129728   4.684   4.052   0.247
 2723TIP3    H229729   4.642   4.124   0.373
 2724TIP3   OH229730   2.889   4.342   6.157
 2724TIP3    H129731   2.938   4.277   6.106
 2724TIP3    H229732   2.827   4.291   6.208
 2725TIP3   OH229733   1.943   5.274   0.619
 2725TIP3    H129734   1.974   5.310   0.535
 2725TIP3    H229735   1.921   5.183   0.599
 2726TIP3   OH229736   5.221   5.715   1.815
 2726TIP3    H129737   5.297   5.773   1.824
 2726TIP3    H229738   5.153   5.757   1.868
 2727TIP3   OH229739   2.982   2.263   7.583
 2727TIP3    H129740   2.988   2.178   7.540
 2727TIP3    H229741   3.070   2.301   7.573
 2728TIP3   OH229742   5.299   5.541   7.587
 2728TIP3    H129743   5.244   5.558   7.510
 2728TIP3    H229744   5.242   5.494   7.648
 2729TIP3   OH229745   4.473   0.826   1.527
 2729TIP3    H129746   4.413   0.900   1.524
 2729TIP3    H229747   4.429   0.762   1.583
 2730TIP3   OH229748   5.904   3.800   8.278
 2730TIP3    H129749   5.967   3.745   8.231
 2730TIP3    H229750   5.853   3.740   8.331
 2731TIP3   OH229751   6.037   5.954   7.586
 2731TIP3    H129752   6.127   5.982   7.601
 2731TIP3    H229753   6.007   6.007   7.512
 2732TIP3   OH229754   6.093   4.505   7.237
 2732TIP3    H129755   6.061   4.418   7.258
 2732TIP3    H229756   6.075   4.557   7.315
 2733TIP3   OH229757   5.462   6.248   0.752
 2733TIP3    H129758   5.394   6.205   0.804
 2733TIP3    H229759   5.506   6.307   0.814
 2734TIP3   OH229760   4.868   3.517   6.953
 2734TIP3    H129761   4.805   3.541   7.021
 2734TIP3    H229762   4.944   3.484   7.000
 2735TIP3   OH229763   4.370   5.989   7.139
 2735TIP3    H129764   4.328   5.922   7.085
 2735TIP3    H229765   4.297   6.037   7.178
 2736TIP3   OH229766   6.443   0.021   8.719
 2736TIP3    H129767   6.457   0.099   8.773
 2736TIP3    H229768   6.348   0.011   8.718
 2737TIP3   OH229769   0.772   1.527   7.114
 2737TIP3    H129770   0.726   1.450   7.080
 2737TIP3    H229771   0.769   1.590   7.042
 2738TIP3   OH229772   0.209   2.555   7.820
 2738TIP3    H129773   0.253   2.529   7.738
 2738TIP3    H229774   0.193   2.472   7.865
 2739TIP3   OH229775   5.625   1.149   0.446
 2739TIP3    H129776   5.636   1.244   0.452
 2739TIP3    H229777   5.698   1.113   0.497
 2740TIP3   OH229778   5.361   3.482   8.087
 2740TIP3    H129779   5.356   3.577   8.071
 2740TIP3    H229780   5.270   3.457   8.104
 2741TIP3   OH229781   2.844   4.187   8.603
 2741TIP3    H129782   2.802   4.110   8.642
 2741TIP3    H229783   2.807   4.192   8.515
 2742TIP3   OH229784   5.217   1.398   6.918
 2742TIP3    H129785   5.254   1.367   7.001
 2742TIP3    H229786   5.289   1.390   6.855
 2743TIP3   OH229787   3.886   3.281   8.314
 2743TIP3    H129788   3.952   3.212   8.307
 2743TIP3    H229789   3.805   3.241   8.283
 2744TIP3   OH229790   2.736   5.480   2.103
 2744TIP3    H129791   2.807   5.514   2.157
 2744TIP3    H229792   2.722   5.391   2.135
 2745TIP3   OH229793   1.224   3.528   0.649
 2745TIP3    H129794   1.209   3.617   0.681
 2745TIP3    H229795   1.172   3.473   0.707
 2746TIP3   OH229796   4.312   5.488   1.802
 2746TIP3    H129797   4.359   5.463   1.723
 2746TIP3    H229798   4.315   5.410   1.857
 2747TIP3   OH229799   1.851   6.620   1.338
 2747TIP3    H129800   1.758   6.641   1.326
 2747TIP3    H229801   1.860   6.531   1.305
 2748TIP3   OH229802   3.303   0.544   0.148
 2748TIP3    H129803   3.264   0.521   0.064
 2748TIP3    H229804   3.243   0.508   0.213
 2749TIP3   OH229805   1.885   1.022   6.919
 2749TIP3    H129806   1.912   1.102   6.962
 2749TIP3    H229807   1.909   1.035   6.827
 2750TIP3   OH229808   0.579   4.068   7.403
 2750TIP3    H129809   0.607   4.145   7.353
 2750TIP3    H229810   0.557   4.002   7.337
 2751TIP3   OH229811   4.228   4.516   8.205
 2751TIP3    H129812   4.226   4.551   8.116
 2751TIP3    H229813   4.263   4.427   8.195
 2752TIP3   OH229814   4.406   5.913   2.303
 2752TIP3    H129815   4.380   5.862   2.226
 2752TIP3    H229816   4.327   5.916   2.358
 2753TIP3   OH229817   6.171   2.838   0.675
 2753TIP3    H129818   6.249   2.870   0.720
 2753TIP3    H229819   6.138   2.914   0.626
 2754TIP3   OH229820   5.545   1.140   7.450
 2754TIP3    H129821   5.463   1.155   7.498
 2754TIP3    H229822   5.604   1.101   7.514
 2755TIP3   OH229823   0.780   2.774   6.346
 2755TIP3    H129824   0.778   2.707   6.414
 2755TIP3    H229825   0.873   2.797   6.337
 2756TIP3   OH229826   0.666   4.899   7.856
 2756TIP3    H129827   0.573   4.874   7.851
 2756TIP3    H229828   0.700   4.880   7.768
 2757TIP3   OH229829   6.588   4.292   6.113
 2757TIP3    H129830   6.517   4.261   6.057
 2757TIP3    H229831   6.620   4.213   6.157
 2758TIP3   OH229832   5.198   4.674   0.091
 2758TIP3    H129833   5.120   4.692   0.143
 2758TIP3    H229834   5.251   4.753   0.099
 2759TIP3   OH229835   0.745   2.588   1.673
 2759TIP3    H129836   0.802   2.558   1.743
 2759TIP3    H229837   0.801   2.591   1.595
 2760TIP3   OH229838   4.149   6.479   7.306
 2760TIP3    H129839   4.239   6.462   7.280
 2760TIP3    H229840   4.148   6.462   7.400
 2761TIP3   OH229841   0.588   5.645   7.504
 2761TIP3    H129842   0.501   5.621   7.536
 2761TIP3    H229843   0.648   5.602   7.565
 2762TIP3   OH229844   0.296   1.617   8.763
 2762TIP3    H129845   0.316   1.568   8.683
 2762TIP3    H229846   0.233   1.562   8.809
 2763TIP3   OH229847   6.145   3.562   0.787
 2763TIP3    H129848   6.158   3.587   0.696
 2763TIP3    H229849   6.229   3.579   0.829
 2764TIP3   OH229850   3.949   3.783   6.800
 2764TIP3    H129851   3.994   3.799   6.717
 2764TIP3    H229852   3.948   3.868   6.843
 2765TIP3   OH229853   3.523   1.331   0.127
 2765TIP3    H129854   3.601   1.319   0.072
 2765TIP3    H229855   3.478   1.247   0.124
 2766TIP3   OH229856   2.254   5.426   0.943
 2766TIP3    H129857   2.341   5.459   0.919
 2766TIP3    H229858   2.255   5.424   1.039
 2767TIP3   OH229859   2.125   4.860   8.204
 2767TIP3    H129860   2.150   4.773   8.172
 2767TIP3    H229861   2.036   4.873   8.173
 2768TIP3   OH229862   6.378   1.618   1.929
 2768TIP3    H129863   6.303   1.606   1.988
 2768TIP3    H229864   6.351   1.577   1.847
 2769TIP3   OH229865   5.145   1.210   0.741
 2769TIP3    H129866   5.077   1.274   0.721
 2769TIP3    H229867   5.110   1.160   0.814
 2770TIP3   OH229868   3.328   3.346   7.409
 2770TIP3    H129869   3.290   3.258   7.417
 2770TIP3    H229870   3.358   3.367   7.497
 2771TIP3   OH229871   0.026   5.683   8.615
 2771TIP3    H129872   0.076   5.765   8.608
 2771TIP3    H229873  -0.050   5.706   8.668
 2772TIP3   OH229874   0.354   2.828   7.576
 2772TIP3    H129875   0.290   2.847   7.645
 2772TIP3    H229876   0.394   2.913   7.558
 2773TIP3   OH229877   3.837   1.292   1.061
 2773TIP3    H129878   3.776   1.325   1.128
 2773TIP3    H229879   3.839   1.198   1.076
 2774TIP3   OH229880   6.083   1.598   7.421
 2774TIP3    H129881   6.102   1.505   7.414
 2774TIP3    H229882   6.111   1.622   7.510
 2775TIP3   OH229883   1.144   4.911   8.059
 2775TIP3    H129884   1.093   4.990   8.077
 2775TIP3    H229885   1.083   4.853   8.013
 2776TIP3   OH229886   6.664   2.695   1.544
 2776TIP3    H129887   6.575   2.660   1.548
 2776TIP3    H229888   6.660   2.763   1.477
 2777TIP3   OH229889   0.803   5.446   0.549
 2777TIP3    H129890   0.797   5.485   0.636
 2777TIP3    H229891   0.881   5.484   0.510
 2778TIP3   OH229892   1.320   5.687   1.009
 2778TIP3    H129893   1.411   5.704   1.032
 2778TIP3    H229894   1.322   5.604   0.961
 2779TIP3   OH229895   6.057   2.721   1.525
 2779TIP3    H129896   6.044   2.658   1.597
 2779TIP3    H229897   6.039   2.670   1.446
 2780TIP3   OH229898   5.420   3.870   1.008
 2780TIP3    H129899   5.504   3.850   0.966
 2780TIP3    H229900   5.377   3.929   0.946
 2781TIP3   OH229901   3.581   4.214   8.465
 2781TIP3    H129902   3.645   4.143   8.468
 2781TIP3    H229903   3.619   4.278   8.405
 2782TIP3   OH229904   0.580   0.859   1.606
 2782TIP3    H129905   0.571   0.873   1.700
 2782TIP3    H229906   0.506   0.907   1.568
 2783TIP3   OH229907   5.224   0.956   8.205
 2783TIP3    H129908   5.272   1.007   8.270
 2783TIP3    H229909   5.136   0.945   8.243
 2784TIP3   OH229910   3.690   6.288   1.095
 2784TIP3    H129911   3.641   6.358   1.052
 2784TIP3    H229912   3.656   6.208   1.055
 2785TIP3   OH229913   6.802   4.060   7.374
 2785TIP3    H129914   6.756   4.035   7.454
 2785TIP3    H229915   6.892   4.077   7.403
 2786TIP3   OH229916   1.377   1.058   1.295
 2786TIP3    H129917   1.411   1.104   1.218
 2786TIP3    H229918   1.291   1.026   1.268
 2787TIP3   OH229919   1.856   5.518   7.069
 2787TIP3    H129920   1.815   5.576   7.005
 2787TIP3    H229921   1.819   5.432   7.051
 2788TIP3   OH229922   6.325   1.197   0.890
 2788TIP3    H129923   6.285   1.176   0.806
 2788TIP3    H229924   6.357   1.286   0.881
 2789TIP3   OH229925   3.752   3.761   8.493
 2789TIP3    H129926   3.725   3.795   8.578
 2789TIP3    H229927   3.782   3.838   8.444
 2790TIP3   OH229928   3.758   1.023   2.655
 2790TIP3    H129929   3.795   1.086   2.594
 2790TIP3    H229930   3.823   1.015   2.725
 2791TIP3   OH229931   3.184   1.948   1.194
 2791TIP3    H129932   3.149   2.035   1.212
 2791TIP3    H229933   3.179   1.939   1.099
 2792TIP3   OH229934   3.782   4.793   2.159
 2792TIP3    H129935   3.778   4.880   2.197
 2792TIP3    H229936   3.706   4.747   2.194
 2793TIP3   OH229937   4.190   4.180   7.605
 2793TIP3    H129938   4.261   4.217   7.552
 2793TIP3    H229939   4.179   4.091   7.571
 2794TIP3   OH229940   3.917   3.720   0.097
 2794TIP3    H129941   3.931   3.647   0.156
 2794TIP3    H229942   4.002   3.734   0.055
 2795TIP3   OH229943   2.060   1.417   1.241
 2795TIP3    H129944   2.135   1.420   1.181
 2795TIP3    H229945   2.090   1.362   1.314
 2796TIP3   OH229946   0.742   6.674   7.357
 2796TIP3    H129947   0.803   6.740   7.325
 2796TIP3    H229948   0.693   6.718   7.426
 2797TIP3   OH229949   3.175   6.761   7.290
 2797TIP3    H129950   3.227   6.753   7.210
 2797TIP3    H229951   3.181   6.854   7.313
 2798TIP3   OH229952   4.303   4.122   2.071
 2798TIP3    H129953   4.215   4.158   2.067
 2798TIP3    H229954   4.355   4.180   2.015
 2799TIP3   OH229955   3.484   6.716   2.261
 2799TIP3    H129956   3.517   6.791   2.212
 2799TIP3    H229957   3.389   6.723   2.255
 2800TIP3   OH229958   6.131   0.437   7.292
 2800TIP3    H129959   6.191   0.367   7.268
 2800TIP3    H229960   6.049   0.393   7.314
 2801TIP3   OH229961   0.830   5.813   0.217
 2801TIP3    H129962   0.870   5.817   0.304
 2801TIP3    H229963   0.888   5.867   0.163
 2802TIP3   OH229964   1.394   0.238   7.114
 2802TIP3    H129965   1.392   0.310   7.052
 2802TIP3    H229966   1.333   0.173   7.079
 2803TIP3   OH229967   6.489   4.591   1.011
 2803TIP3    H129968   6.467   4.638   1.091
 2803TIP3    H229969   6.561   4.641   0.973
 2804TIP3   OH229970   3.543   0.938   1.435
 2804TIP3    H129971   3.505   1.007   1.490
 2804TIP3    H229972   3.560   0.981   1.351
 2805TIP3   OH229973   5.109   2.119   0.641
 2805TIP3    H129974   5.125   2.195   0.697
 2805TIP3    H229975   5.189   2.067   0.648
 2806TIP3   OH229976   5.390   2.088   8.545
 2806TIP3    H129977   5.386   2.182   8.558
 2806TIP3    H229978   5.299   2.061   8.534
 2807TIP3   OH229979   0.744   0.874   1.021
 2807TIP3    H129980   0.684   0.923   0.965
 2807TIP3    H229981   0.722   0.782   1.006
 2808TIP3   OH229982   0.634   3.684   6.134
 2808TIP3    H129983   0.592   3.730   6.062
 2808TIP3    H229984   0.593   3.597   6.135
 2809TIP3   OH229985   5.969   1.650   8.099
 2809TIP3    H129986   5.901   1.666   8.033
 2809TIP3    H229987   6.051   1.663   8.051
 2810TIP3   OH229988   0.239   4.178   7.465
 2810TIP3    H129989   0.330   4.207   7.454
 2810TIP3    H229990   0.197   4.248   7.516
 2811TIP3   OH229991   6.472   2.009   8.529
 2811TIP3    H129992   6.511   1.990   8.615
 2811TIP3    H229993   6.387   2.046   8.549
 2812TIP3   OH229994   6.302   4.095   7.696
 2812TIP3    H129995   6.364   4.105   7.768
 2812TIP3    H229996   6.218   4.076   7.740
 2813TIP3   OH229997   0.547   6.006   0.248
 2813TIP3    H129998   0.532   6.059   0.326
 2813TIP3    H229999   0.642   6.008   0.236
 2814TIP3   OH230000   4.377   0.071   1.017
 2814TIP3    H130001   4.291   0.040   0.988
 2814TIP3    H230002   4.409   0.002   1.074
 2815TIP3   OH230003   1.942   5.080   7.487
 2815TIP3    H130004   1.856   5.120   7.476
 2815TIP3    H230005   1.924   4.997   7.532
 2816TIP3   OH230006   3.716   4.353   6.877
 2816TIP3    H130007   3.740   4.418   6.811
 2816TIP3    H230008   3.773   4.278   6.858
 2817TIP3   OH230009   5.237   2.315   6.258
 2817TIP3    H130010   5.310   2.375   6.240
 2817TIP3    H230011   5.280   2.233   6.282
 2818TIP3   OH230012   6.668   2.389   6.966
 2818TIP3    H130013   6.708   2.466   6.926
 2818TIP3    H230014   6.742   2.330   6.983
 2819TIP3   OH230015   4.917   1.619   8.076
 2819TIP3    H130016   5.009   1.612   8.048
 2819TIP3    H230017   4.911   1.706   8.114
 2820TIP3   OH230018   0.430   3.078   7.582
 2820TIP3    H130019   0.510   3.071   7.529
 2820TIP3    H230020   0.456   3.132   7.657
 2821TIP3   OH230021   1.627   4.978   0.603
 2821TIP3    H130022   1.544   4.949   0.640
 2821TIP3    H230023   1.682   4.997   0.679
 2822TIP3   OH230024   2.118   1.249   1.443
 2822TIP3    H130025   2.130   1.276   1.534
 2822TIP3    H230026   2.130   1.154   1.445
 2823TIP3   OH230027   2.295   4.501   6.522
 2823TIP3    H130028   2.231   4.481   6.590
 2823TIP3    H230029   2.258   4.464   6.442
 2824TIP3   OH230030   4.078   3.276   6.965
 2824TIP3    H130031   4.074   3.331   6.886
 2824TIP3    H230032   3.989   3.240   6.973
 2825TIP3   OH230033   5.303   5.817   1.471
 2825TIP3    H130034   5.332   5.908   1.462
 2825TIP3    H230035   5.380   5.771   1.505
 2826TIP3   OH230036   0.434   0.439   0.783
 2826TIP3    H130037   0.373   0.512   0.779
 2826TIP3    H230038   0.501   0.461   0.719
 2827TIP3   OH230039   3.606   0.269   7.869
 2827TIP3    H130040   3.607   0.190   7.923
 2827TIP3    H230041   3.688   0.314   7.889
 2828TIP3   OH230042   3.141   2.961   1.641
 2828TIP3    H130043   3.203   2.982   1.572
 2828TIP3    H230044   3.125   2.867   1.631
 2829TIP3   OH230045   5.565   5.525   7.655
 2829TIP3    H130046   5.606   5.596   7.705
 2829TIP3    H230047   5.474   5.553   7.646
 2830TIP3   OH230048   4.956   6.641   8.766
 2830TIP3    H130049   4.913   6.651   8.851
 2830TIP3    H230050   4.930   6.719   8.717
 2831TIP3   OH230051   1.317   2.619   7.080
 2831TIP3    H130052   1.381   2.570   7.029
 2831TIP3    H230053   1.370   2.673   7.139
 2832TIP3   OH230054   4.014   3.295   1.239
 2832TIP3    H130055   4.014   3.354   1.314
 2832TIP3    H230056   4.100   3.307   1.198
 2833TIP3   OH230057   4.742   6.125   7.938
 2833TIP3    H130058   4.802   6.071   7.989
 2833TIP3    H230059   4.696   6.063   7.882
 2834TIP3   OH230060   4.676   1.175   2.200
 2834TIP3    H130061   4.716   1.176   2.113
 2834TIP3    H230062   4.618   1.099   2.198
 2835TIP3   OH230063   0.430   2.126   0.674
 2835TIP3    H130064   0.352   2.129   0.619
 2835TIP3    H230065   0.400   2.095   0.759
 2836TIP3   OH230066   2.976   6.226   8.305
 2836TIP3    H130067   2.958   6.146   8.255
 2836TIP3    H230068   3.060   6.208   8.349
 2837TIP3   OH230069   5.932   2.282   1.112
 2837TIP3    H130070   5.880   2.219   1.161
 2837TIP3    H230071   5.879   2.300   1.033
 2838TIP3   OH230072   4.197   0.851   8.534
 2838TIP3    H130073   4.148   0.770   8.531
 2838TIP3    H230074   4.148   0.907   8.594
 2839TIP3   OH230075   3.095   4.644   6.882
 2839TIP3    H130076   3.154   4.717   6.900
 2839TIP3    H230077   3.152   4.571   6.862
 2840TIP3   OH230078   3.433   5.139   8.140
 2840TIP3    H130079   3.371   5.148   8.068
 2840TIP3    H230080   3.451   5.045   8.145
 2841TIP3   OH230081   0.984   4.041   1.815
 2841TIP3    H130082   1.045   4.041   1.889
 2841TIP3    H230083   0.909   4.091   1.846
 2842TIP3   OH230084   1.283   5.026   2.116
 2842TIP3    H130085   1.304   4.935   2.136
 2842TIP3    H230086   1.338   5.048   2.041
 2843TIP3   OH230087   3.855   1.791   8.399
 2843TIP3    H130088   3.811   1.724   8.452
 2843TIP3    H230089   3.933   1.814   8.450
 2844TIP3   OH230090   5.752   0.063   7.215
 2844TIP3    H130091   5.697   0.054   7.294
 2844TIP3    H230092   5.689   0.066   7.143
 2845TIP3   OH230093   4.158   5.080   0.590
 2845TIP3    H130094   4.070   5.048   0.573
 2845TIP3    H230095   4.156   5.110   0.681
 2846TIP3   OH230096   2.238   4.355   6.885
 2846TIP3    H130097   2.249   4.395   6.971
 2846TIP3    H230098   2.324   4.360   6.844
 2847TIP3   OH230099   3.311   2.063   6.704
 2847TIP3    H130100   3.380   2.022   6.652
 2847TIP3    H230101   3.244   2.087   6.641
 2848TIP3   OH230102   1.220   1.023   7.326
 2848TIP3    H130103   1.249   1.109   7.357
 2848TIP3    H230104   1.301   0.974   7.311
 2849TIP3   OH230105   5.829   5.733   8.292
 2849TIP3    H130106   5.876   5.809   8.258
 2849TIP3    H230107   5.739   5.744   8.260
 2850TIP3   OH230108   5.898   4.172   1.204
 2850TIP3    H130109   5.919   4.128   1.122
 2850TIP3    H230110   5.805   4.154   1.218
 2851TIP3   OH230111   4.216   3.383   0.377
 2851TIP3    H130112   4.195   3.413   0.465
 2851TIP3    H230113   4.298   3.426   0.355
 2852TIP3   OH230114   2.061   5.602   1.731
 2852TIP3    H130115   2.069   5.605   1.827
 2852TIP3    H230116   2.133   5.545   1.703
 2853TIP3   OH230117   0.418   1.475   8.028
 2853TIP3    H130118   0.357   1.460   8.100
 2853TIP3    H230119   0.492   1.520   8.068
 2854TIP3   OH230120   3.100   4.334   8.459
 2854TIP3    H130121   3.032   4.361   8.521
 2854TIP3    H230122   3.127   4.416   8.417
 2855TIP3   OH230123   1.700   1.247   7.165
 2855TIP3    H130124   1.777   1.197   7.140
 2855TIP3    H230125   1.637   1.232   7.095
 2856TIP3   OH230126   5.751   5.195   7.886
 2856TIP3    H130127   5.751   5.136   7.810
 2856TIP3    H230128   5.782   5.278   7.850
 2857TIP3   OH230129   2.748   5.718   0.694
 2857TIP3    H130130   2.665   5.704   0.649
 2857TIP3    H230131   2.813   5.727   0.624
 2858TIP3   OH230132   0.504   1.222   6.257
 2858TIP3    H130133   0.587   1.229   6.305
 2858TIP3    H230134   0.518   1.270   6.176
 2859TIP3   OH230135   3.069   1.397   0.678
 2859TIP3    H130136   3.055   1.488   0.703
 2859TIP3    H230137   3.033   1.346   0.750
 2860TIP3   OH230138   4.301   1.037   0.081
 2860TIP3    H130139   4.352   0.961   0.111
 2860TIP3    H230140   4.269   1.077   0.161
 2861TIP3   OH230141   5.991   5.106   0.854
 2861TIP3    H130142   5.908   5.091   0.809
 2861TIP3    H230143   5.998   5.201   0.859
 2862TIP3   OH230144   4.664   0.811   0.537
 2862TIP3    H130145   4.670   0.762   0.455
 2862TIP3    H230146   4.622   0.751   0.598
 2863TIP3   OH230147   2.369   6.705   7.472
 2863TIP3    H130148   2.318   6.759   7.411
 2863TIP3    H230149   2.303   6.662   7.527
 2864TIP3   OH230150   1.091   3.248   2.140
 2864TIP3    H130151   1.101   3.322   2.079
 2864TIP3    H230152   1.163   3.190   2.120
 2865TIP3   OH230153   2.850   1.313   8.518
 2865TIP3    H130154   2.943   1.292   8.512
 2865TIP3    H230155   2.812   1.243   8.571
 2866TIP3   OH230156   3.092   1.686   0.566
 2866TIP3    H130157   3.100   1.746   0.492
 2866TIP3    H230158   3.012   1.637   0.548
 2867TIP3   OH230159   4.691   6.730   0.996
 2867TIP3    H130160   4.696   6.729   1.091
 2867TIP3    H230161   4.678   6.638   0.971
 2868TIP3   OH230162   5.289   6.529   0.162
 2868TIP3    H130163   5.259   6.616   0.189
 2868TIP3    H230164   5.227   6.468   0.202
 2869TIP3   OH230165   2.032   2.725   0.864
 2869TIP3    H130166   2.053   2.659   0.799
 2869TIP3    H230167   2.043   2.681   0.948
 2870TIP3   OH230168   0.109   2.613   8.472
 2870TIP3    H130169   0.181   2.670   8.500
 2870TIP3    H230170   0.098   2.551   8.545
 2871TIP3   OH230171   5.751   3.350   0.043
 2871TIP3    H130172   5.735   3.422   0.105
 2871TIP3    H230173   5.799   3.285   0.094
 2872TIP3   OH230174   3.288   2.703   7.104
 2872TIP3    H130175   3.266   2.612   7.083
 2872TIP3    H230176   3.266   2.752   7.025
 2873TIP3   OH230177   0.141   5.952   8.746
 2873TIP3    H130178   0.224   5.947   8.698
 2873TIP3    H230179   0.144   5.879   8.808
 2874TIP3   OH230180   0.046   3.142   7.722
 2874TIP3    H130181  -0.042   3.175   7.744
 2874TIP3    H230182   0.103   3.180   7.788
 2875TIP3   OH230183   4.415   3.044   6.068
 2875TIP3    H130184   4.480   3.064   6.135
 2875TIP3    H230185   4.362   3.123   6.062
 2876TIP3   OH230186   4.261   2.206   7.289
 2876TIP3    H130187   4.221   2.121   7.266
 2876TIP3    H230188   4.319   2.185   7.362
 2877TIP3   OH230189   6.346   3.594   8.342
 2877TIP3    H130190   6.295   3.537   8.284
 2877TIP3    H230191   6.429   3.549   8.354
 2878TIP3   OH230192   2.817   0.549   2.020
 2878TIP3    H130193   2.857   0.598   2.092
 2878TIP3    H230194   2.730   0.587   2.011
 2879TIP3   OH230195   1.193   2.631   0.958
 2879TIP3    H130196   1.125   2.680   1.003
 2879TIP3    H230197   1.197   2.669   0.871
 2880TIP3   OH230198   4.616   2.070   7.210
 2880TIP3    H130199   4.594   1.987   7.167
 2880TIP3    H230200   4.673   2.045   7.283
 2881TIP3   OH230201   2.769   6.123   0.964
 2881TIP3    H130202   2.772   6.185   1.037
 2881TIP3    H230203   2.676   6.110   0.948
 2882TIP3   OH230204   5.330   1.073   8.426
 2882TIP3    H130205   5.309   1.161   8.460
 2882TIP3    H230206   5.386   1.035   8.493
 2883TIP3   OH230207   3.727   0.534   1.495
 2883TIP3    H130208   3.694   0.534   1.405
 2883TIP3    H230209   3.691   0.454   1.534
 2884TIP3   OH230210   4.124   1.817   0.254
 2884TIP3    H130211   4.114   1.865   0.336
 2884TIP3    H230212   4.218   1.802   0.245
 2885TIP3   OH230213   3.193   3.503   8.776
 2885TIP3    H130214   3.105   3.536   8.796
 2885TIP3    H230215   3.210   3.531   8.686
 2886TIP3   OH230216   6.459   4.051   8.470
 2886TIP3    H130217   6.516   4.084   8.400
 2886TIP3    H230218   6.501   3.970   8.498
 2887TIP3   OH230219   3.687   2.358   0.757
 2887TIP3    H130220   3.745   2.394   0.690
 2887TIP3    H230221   3.640   2.287   0.712
 2888TIP3   OH230222   1.879   0.855   0.334
 2888TIP3    H130223   1.906   0.940   0.299
 2888TIP3    H230224   1.810   0.877   0.397
 2889TIP3   OH230225   4.026   5.706   7.648
 2889TIP3    H130226   4.059   5.671   7.730
 2889TIP3    H230227   3.932   5.689   7.650
 2890TIP3   OH230228   5.049   6.497   1.981
 2890TIP3    H130229   4.999   6.469   1.904
 2890TIP3    H230230   4.997   6.467   2.056
 2891TIP3   OH230231   3.383   6.380   8.426
 2891TIP3    H130232   3.411   6.469   8.445
 2891TIP3    H230233   3.459   6.339   8.383
 2892TIP3   OH230234   3.092   5.449   1.088
 2892TIP3    H130235   3.079   5.544   1.081
 2892TIP3    H230236   3.003   5.413   1.096
 2893TIP3   OH230237   1.383   1.571   6.334
 2893TIP3    H130238   1.455   1.566   6.397
 2893TIP3    H230239   1.388   1.659   6.298
 2894TIP3   OH230240   4.649   3.099   8.086
 2894TIP3    H130241   4.725   3.068   8.137
 2894TIP3    H230242   4.684   3.115   7.999
 2895TIP3   OH230243   0.825   5.143   7.936
 2895TIP3    H130244   0.782   5.059   7.954
 2895TIP3    H230245   0.772   5.183   7.867
 2896TIP3   OH230246   3.764   2.630   7.981
 2896TIP3    H130247   3.689   2.582   7.946
 2896TIP3    H230248   3.731   2.719   7.995
 2897TIP3   OH230249   6.134   6.366   8.677
 2897TIP3    H130250   6.057   6.416   8.652
 2897TIP3    H230251   6.204   6.401   8.622
 2898TIP3   OH230252   4.767   2.173   0.300
 2898TIP3    H130253   4.744   2.082   0.319
 2898TIP3    H230254   4.810   2.204   0.379
 2899TIP3   OH230255   1.510   2.610   0.719
 2899TIP3    H130256   1.462   2.544   0.670
 2899TIP3    H230257   1.526   2.570   0.805
 2900TIP3   OH230258   0.428   1.343   0.690
 2900TIP3    H130259   0.425   1.435   0.666
 2900TIP3    H230260   0.446   1.297   0.608
 2901TIP3   OH230261   3.707   5.153   8.666
 2901TIP3    H130262   3.715   5.144   8.761
 2901TIP3    H230263   3.646   5.085   8.640
 2902TIP3   OH230264   4.286   5.958   6.766
 2902TIP3    H130265   4.371   5.993   6.794
 2902TIP3    H230266   4.271   5.883   6.824
 2903TIP3   OH230267   1.452   0.573   8.013
 2903TIP3    H130268   1.362   0.602   8.027
 2903TIP3    H230269   1.466   0.581   7.919
 2904TIP3   OH230270   1.866   3.721   0.596
 2904TIP3    H130271   1.808   3.709   0.671
 2904TIP3    H230272   1.861   3.639   0.548
 2905TIP3   OH230273   2.657   5.221   2.203
 2905TIP3    H130274   2.603   5.176   2.138
 2905TIP3    H230275   2.695   5.150   2.255
 2906TIP3   OH230276   0.597   5.354   1.184
 2906TIP3    H130277   0.621   5.321   1.097
 2906TIP3    H230278   0.545   5.432   1.168
 2907TIP3   OH230279   2.598   1.259   8.425
 2907TIP3    H130280   2.599   1.296   8.336
 2907TIP3    H230281   2.689   1.262   8.453
 2908TIP3   OH230282   6.161   3.855   1.427
 2908TIP3    H130283   6.124   3.821   1.346
 2908TIP3    H230284   6.252   3.877   1.404
 2909TIP3   OH230285   6.018   0.358   0.817
 2909TIP3    H130286   6.035   0.287   0.755
 2909TIP3    H230287   5.924   0.374   0.810
 2910TIP3   OH230288   4.755   4.902   7.855
 2910TIP3    H130289   4.729   4.816   7.824
 2910TIP3    H230290   4.780   4.888   7.946
 2911TIP3   OH230291   5.545   6.065   6.407
 2911TIP3    H130292   5.540   6.125   6.333
 2911TIP3    H230293   5.627   6.088   6.451
 2912TIP3   OH230294   0.308   2.449   1.851
 2912TIP3    H130295   0.396   2.438   1.816
 2912TIP3    H230296   0.321   2.471   1.943
 2913TIP3   OH230297   5.080   2.433   1.141
 2913TIP3    H130298   5.038   2.497   1.085
 2913TIP3    H230299   5.084   2.475   1.227
 2914TIP3   OH230300   3.447   0.761   2.144
 2914TIP3    H130301   3.523   0.726   2.191
 2914TIP3    H230302   3.390   0.794   2.214
 2915TIP3   OH230303   4.215   3.536   7.206
 2915TIP3    H130304   4.174   3.577   7.130
 2915TIP3    H230305   4.167   3.572   7.281
 2916TIP3   OH230306   0.083   0.084   7.703
 2916TIP3    H130307   0.118  -0.003   7.718
 2916TIP3    H230308   0.070   0.089   7.608
 2917TIP3   OH230309   2.527   0.124   8.059
 2917TIP3    H130310   2.453   0.112   8.000
 2917TIP3    H230311   2.503   0.200   8.112
 2918TIP3   OH230312   5.261   5.281   8.159
 2918TIP3    H130313   5.304   5.263   8.076
 2918TIP3    H230314   5.318   5.241   8.225
 2919TIP3   OH230315   5.705   4.759   0.320
 2919TIP3    H130316   5.762   4.832   0.344
 2919TIP3    H230317   5.709   4.755   0.225
 2920TIP3   OH230318   2.973   6.280   2.041
 2920TIP3    H130319   2.938   6.368   2.052
 2920TIP3    H230320   2.902   6.231   2.001
 2921TIP3   OH230321   4.341   5.832   2.032
 2921TIP3    H130322   4.250   5.859   2.019
 2921TIP3    H230323   4.359   5.772   1.960
 2922TIP3   OH230324   0.362   5.476   7.520
 2922TIP3    H130325   0.410   5.395   7.502
 2922TIP3    H230326   0.280   5.447   7.559
 2923TIP3   OH230327   4.886   0.839   6.656
 2923TIP3    H130328   4.932   0.755   6.656
 2923TIP3    H230329   4.805   0.822   6.703
 2924TIP3   OH230330   4.842   2.526   1.595
 2924TIP3    H130331   4.794   2.463   1.648
 2924TIP3    H230332   4.833   2.609   1.643
 2925TIP3   OH230333   1.306   6.532   6.854
 2925TIP3    H130334   1.222   6.496   6.881
 2925TIP3    H230335   1.284   6.616   6.813
 2926TIP3   OH230336   2.451   4.247   8.147
 2926TIP3    H130337   2.538   4.223   8.115
 2926TIP3    H230338   2.391   4.217   8.078
 2927TIP3   OH230339   1.194   2.651   1.245
 2927TIP3    H130340   1.202   2.652   1.341
 2927TIP3    H230341   1.161   2.563   1.225
 2928TIP3   OH230342   2.369   2.398   6.823
 2928TIP3    H130343   2.428   2.473   6.815
 2928TIP3    H230344   2.367   2.359   6.736
 2929TIP3   OH230345   5.176   2.278   1.887
 2929TIP3    H130346   5.115   2.295   1.959
 2929TIP3    H230347   5.153   2.190   1.857
 2930TIP3   OH230348   1.294   3.343   8.438
 2930TIP3    H130349   1.251   3.421   8.403
 2930TIP3    H230350   1.345   3.308   8.365
 2931TIP3   OH230351   4.814   6.374   0.144
 2931TIP3    H130352   4.861   6.293   0.125
 2931TIP3    H230353   4.843   6.399   0.232
 2932TIP3   OH230354   1.980   0.246   7.707
 2932TIP3    H130355   1.890   0.277   7.713
 2932TIP3    H230356   2.032   0.326   7.696
 2933TIP3   OH230357   6.540   6.056   8.015
 2933TIP3    H130358   6.582   6.108   7.946
 2933TIP3    H230359   6.603   6.054   8.086
 2934TIP3   OH230360   5.914   3.729   0.720
 2934TIP3    H130361   6.005   3.714   0.746
 2934TIP3    H230362   5.900   3.823   0.733
 2935TIP3   OH230363   6.038   2.330   7.310
 2935TIP3    H130364   6.008   2.268   7.377
 2935TIP3    H230365   5.964   2.391   7.299
 2936TIP3   OH230366   2.936   0.776   6.738
 2936TIP3    H130367   2.987   0.748   6.814
 2936TIP3    H230368   2.845   0.763   6.764
 2937TIP3   OH230369   4.805   1.948   0.107
 2937TIP3    H130370   4.870   1.887   0.074
 2937TIP3    H230371   4.847   2.034   0.100
 2938TIP3   OH230372   0.055   4.505   1.848
 2938TIP3    H130373   0.064   4.538   1.938
 2938TIP3    H230374   0.135   4.454   1.833
 2939TIP3   OH230375   5.891   5.572   1.856
 2939TIP3    H130376   5.795   5.578   1.862
 2939TIP3    H230377   5.919   5.660   1.829
 2940TIP3   OH230378   5.798   4.303   6.674
 2940TIP3    H130379   5.709   4.336   6.678
 2940TIP3    H230380   5.794   4.230   6.612
 2941TIP3   OH230381   3.943   0.923   7.076
 2941TIP3    H130382   3.892   0.956   7.003
 2941TIP3    H230383   3.889   0.854   7.114
 2942TIP3   OH230384   1.965   0.354   8.220
 2942TIP3    H130385   2.003   0.268   8.205
 2942TIP3    H230386   2.004   0.410   8.153
 2943TIP3   OH230387   2.435   5.806   8.481
 2943TIP3    H130388   2.471   5.768   8.400
 2943TIP3    H230389   2.378   5.876   8.450
 2944TIP3   OH230390   5.994   1.989   6.659
 2944TIP3    H130391   5.976   2.035   6.577
 2944TIP3    H230392   6.022   2.057   6.720
 2945TIP3   OH230393   1.862   1.067   8.196
 2945TIP3    H130394   1.847   1.078   8.289
 2945TIP3    H230395   1.902   0.980   8.188
 2946TIP3   OH230396   1.159   3.851   6.409
 2946TIP3    H130397   1.168   3.939   6.372
 2946TIP3    H230398   1.228   3.846   6.475
 2947TIP3   OH230399   1.161   5.206   0.882
 2947TIP3    H130400   1.257   5.207   0.877
 2947TIP3    H230401   1.140   5.262   0.957
 2948TIP3   OH230402   5.241   4.978   6.683
 2948TIP3    H130403   5.267   4.888   6.661
 2948TIP3    H230404   5.147   4.981   6.662
 2949TIP3   OH230405   0.833   1.344   6.760
 2949TIP3    H130406   0.901   1.396   6.802
 2949TIP3    H230407   0.783   1.408   6.709
 2950TIP3   OH230408   2.936   2.581   8.204
 2950TIP3    H130409   2.915   2.642   8.274
 2950TIP3    H230410   2.902   2.623   8.125
 2951TIP3   OH230411   5.034   1.344   7.513
 2951TIP3    H130412   5.011   1.436   7.524
 2951TIP3    H230413   4.968   1.297   7.564
 2952TIP3   OH230414   4.958   2.214   1.616
 2952TIP3    H130415   4.902   2.259   1.680
 2952TIP3    H230416   4.939   2.121   1.628
 2953TIP3   OH230417   4.516   4.559   0.233
 2953TIP3    H130418   4.424   4.585   0.231
 2953TIP3    H230419   4.518   4.485   0.293
 2954TIP3   OH230420   1.533   6.579   8.719
 2954TIP3    H130421   1.525   6.491   8.754
 2954TIP3    H230422   1.512   6.569   8.626
 2955TIP3   OH230423   6.459   4.097   7.927
 2955TIP3    H130424   6.412   4.156   7.986
 2955TIP3    H230425   6.551   4.121   7.936
 2956TIP3   OH230426   3.791   6.281   0.382
 2956TIP3    H130427   3.880   6.313   0.391
 2956TIP3    H230428   3.769   6.296   0.290
 2957TIP3   OH230429   0.463   2.507   0.932
 2957TIP3    H130430   0.537   2.523   0.989
 2957TIP3    H230431   0.489   2.543   0.847
 2958TIP3   OH230432   0.794   3.762   1.133
 2958TIP3    H130433   0.780   3.835   1.072
 2958TIP3    H230434   0.708   3.747   1.173
 2959TIP3   OH230435   4.596   2.701   8.109
 2959TIP3    H130436   4.629   2.710   8.019
 2959TIP3    H230437   4.513   2.653   8.099
 2960TIP3   OH230438   5.017   2.918   6.867
 2960TIP3    H130439   4.967   2.928   6.786
 2960TIP3    H230440   4.988   2.834   6.903
 2961TIP3   OH230441   3.305   0.709   1.733
 2961TIP3    H130442   3.399   0.692   1.736
 2961TIP3    H230443   3.272   0.647   1.668
 2962TIP3   OH230444   1.690   2.468   0.180
 2962TIP3    H130445   1.598   2.445   0.164
 2962TIP3    H230446   1.728   2.481   0.093
 2963TIP3   OH230447   5.386   4.261   8.570
 2963TIP3    H130448   5.328   4.194   8.534
 2963TIP3    H230449   5.354   4.273   8.660
 2964TIP3   OH230450   5.013   2.983   0.457
 2964TIP3    H130451   4.970   3.044   0.517
 2964TIP3    H230452   4.941   2.932   0.419
 2965TIP3   OH230453   5.604   6.498   1.460
 2965TIP3    H130454   5.539   6.569   1.469
 2965TIP3    H230455   5.685   6.536   1.493
 2966TIP3   OH230456   0.633   0.376   7.102
 2966TIP3    H130457   0.679   0.311   7.049
 2966TIP3    H230458   0.586   0.430   7.039
 2967TIP3   OH230459   5.349   0.613   0.152
 2967TIP3    H130460   5.444   0.606   0.164
 2967TIP3    H230461   5.338   0.654   0.066
 2968TIP3   OH230462   0.667   6.670   1.026
 2968TIP3    H130463   0.754   6.705   1.010
 2968TIP3    H230464   0.619   6.684   0.944
 2969TIP3   OH230465   5.188   5.426   1.180
 2969TIP3    H130466   5.149   5.455   1.263
 2969TIP3    H230467   5.129   5.357   1.149
 2970TIP3   OH230468   4.452   2.331   1.737
 2970TIP3    H130469   4.422   2.383   1.662
 2970TIP3    H230470   4.396   2.358   1.810
 2971TIP3   OH230471   0.942   5.201   7.452
 2971TIP3    H130472   0.861   5.159   7.483
 2971TIP3    H230473   0.912   5.263   7.386
 2972TIP3   OH230474   6.738   6.223   7.657
 2972TIP3    H130475   6.689   6.268   7.726
 2972TIP3    H230476   6.676   6.161   7.620
 2973TIP3   OH230477   2.699   5.931   0.099
 2973TIP3    H130478   2.697   6.026   0.106
 2973TIP3    H230479   2.625   5.909   0.043
 2974TIP3   OH230480   4.090   5.570   0.215
 2974TIP3    H130481   4.120   5.532   0.298
 2974TIP3    H230482   4.163   5.557   0.155
 2975TIP3   OH230483   0.464   1.248   6.992
 2975TIP3    H130484   0.416   1.312   7.044
 2975TIP3    H230485   0.418   1.247   6.908
 2976TIP3   OH230486   0.428   0.234   0.586
 2976TIP3    H130487   0.408   0.141   0.577
 2976TIP3    H230488   0.376   0.262   0.661
 2977TIP3   OH230489   6.521   6.694   1.944
 2977TIP3    H130490   6.451   6.629   1.941
 2977TIP3    H230491   6.601   6.642   1.951
 2978TIP3   OH230492   3.113   3.559   7.390
 2978TIP3    H130493   3.169   3.482   7.384
 2978TIP3    H230494   3.172   3.629   7.418
 2979TIP3   OH230495   3.358   5.707   7.572
 2979TIP3    H130496   3.421   5.635   7.568
 2979TIP3    H230497   3.273   5.665   7.555
 2980TIP3   OH230498   0.699   4.811   7.165
 2980TIP3    H130499   0.668   4.892   7.203
 2980TIP3    H230500   0.633   4.788   7.100
 2981TIP3   OH230501   5.252   2.382   0.306
 2981TIP3    H130502   5.312   2.375   0.232
 2981TIP3    H230503   5.272   2.468   0.345
 2982TIP3   OH230504   1.359   6.592   1.919
 2982TIP3    H130505   1.454   6.584   1.928
 2982TIP3    H230506   1.345   6.675   1.873
 2983TIP3   OH230507   3.520   3.853   1.154
 2983TIP3    H130508   3.535   3.947   1.141
 2983TIP3    H230509   3.479   3.848   1.241
 2984TIP3   OH230510   2.256   2.539   8.176
 2984TIP3    H130511   2.325   2.552   8.110
 2984TIP3    H230512   2.292   2.472   8.234
 2985TIP3   OH230513   3.546   5.707   6.840
 2985TIP3    H130514   3.490   5.667   6.773
 2985TIP3    H230515   3.629   5.723   6.796
 2986TIP3   OH230516   5.586   4.310   1.959
 2986TIP3    H130517   5.631   4.386   1.994
 2986TIP3    H230518   5.600   4.315   1.864
 2987TIP3   OH230519   3.816   2.074   1.682
 2987TIP3    H130520   3.821   2.005   1.616
 2987TIP3    H230521   3.740   2.051   1.735
 2988TIP3   OH230522   5.990   1.909   7.071
 2988TIP3    H130523   6.079   1.873   7.072
 2988TIP3    H230524   6.001   2.000   7.098
 2989TIP3   OH230525   0.574   1.162   7.929
 2989TIP3    H130526   0.626   1.236   7.961
 2989TIP3    H230527   0.603   1.088   7.984
 2990TIP3   OH230528   1.222   4.767   1.300
 2990TIP3    H130529   1.179   4.707   1.240
 2990TIP3    H230530   1.170   4.763   1.380
 2991TIP3   OH230531   0.218   1.740   7.655
 2991TIP3    H130532   0.297   1.726   7.708
 2991TIP3    H230533   0.246   1.723   7.565
 2992TIP3   OH230534   5.720   0.802   0.540
 2992TIP3    H130535   5.653   0.837   0.599
 2992TIP3    H230536   5.706   0.707   0.542
 2993TIP3   OH230537   4.832   3.076   0.686
 2993TIP3    H130538   4.805   3.127   0.762
 2993TIP3    H230539   4.771   3.102   0.616
 2994TIP3   OH230540   6.620   1.539   6.327
 2994TIP3    H130541   6.531   1.554   6.359
 2994TIP3    H230542   6.657   1.626   6.318
 2995TIP3   OH230543   1.531   4.071   7.481
 2995TIP3    H130544   1.495   4.043   7.396
 2995TIP3    H230545   1.499   4.005   7.543
 2996TIP3   OH230546   2.328   3.487   7.928
 2996TIP3    H130547   2.316   3.581   7.921
 2996TIP3    H230548   2.315   3.468   8.021
 2997TIP3   OH230549   3.988   1.026   8.677
 2997TIP3    H130550   3.901   1.040   8.639
 2997TIP3    H230551   4.006   1.106   8.726
 2998TIP3   OH230552   1.190   1.208   0.145
 2998TIP3    H130553   1.096   1.225   0.142
 2998TIP3    H230554   1.199   1.132   0.202
 2999TIP3   OH230555   0.079   4.977   1.115
 2999TIP3    H130556   0.166   4.965   1.154
 2999TIP3    H230557   0.094   4.973   1.021
 3000TIP3   OH230558   5.963   5.298   1.900
 3000TIP3    H130559   5.936   5.377   1.853
 3000TIP3    H230560   5.968   5.325   1.992
 3001TIP3   OH230561   4.697   3.783   1.518
 3001TIP3    H130562   4.753   3.768   1.442
 3001TIP3    H230563   4.611   3.801   1.482
 3002TIP3   OH230564   0.028   6.761   2.178
 3002TIP3    H130565   0.109   6.784   2.134
 3002TIP3    H230566   0.040   6.670   2.207
 3003TIP3   OH230567   5.967   3.410   0.939
 3003TIP3    H130568   6.012   3.439   0.860
 3003TIP3    H230569   6.031   3.425   1.010
 3004TIP3   OH230570   3.776   3.908   1.604
 3004TIP3    H130571   3.733   3.984   1.564
 3004TIP3    H230572   3.858   3.900   1.556
 3005TIP3   OH230573   6.700   0.521   6.807
 3005TIP3    H130574   6.620   0.557   6.770
 3005TIP3    H230575   6.670   0.449   6.862
 3006TIP3   OH230576   4.106   4.799   7.754
 3006TIP3    H130577   4.114   4.868   7.820
 3006TIP3    H230578   4.166   4.826   7.684
 3007TIP3   OH230579   3.995   3.705   1.115
 3007TIP3    H130580   3.941   3.751   1.050
 3007TIP3    H230581   3.956   3.729   1.199
 3008TIP3   OH230582   5.788   2.382   7.564
 3008TIP3    H130583   5.741   2.396   7.483
 3008TIP3    H230584   5.849   2.457   7.569
 3009TIP3   OH230585   6.169   3.191   0.185
 3009TIP3    H130586   6.226   3.167   0.258
 3009TIP3    H230587   6.200   3.278   0.159
 3010TIP3   OH230588   1.248   2.240   8.294
 3010TIP3    H130589   1.290   2.248   8.380
 3010TIP3    H230590   1.321   2.244   8.232
 3011TIP3   OH230591   6.120   6.728   0.618
 3011TIP3    H130592   6.070   6.673   0.678
 3011TIP3    H230593   6.059   6.796   0.591
 3012TIP3   OH230594   2.277   0.491   1.199
 3012TIP3    H130595   2.240   0.487   1.287
 3012TIP3    H230596   2.298   0.400   1.177
 3013TIP3   OH230597   1.782   5.650   0.746
 3013TIP3    H130598   1.768   5.675   0.837
 3013TIP3    H230599   1.861   5.595   0.748
 3014TIP3   OH230600   0.998   4.420   7.710
 3014TIP3    H130601   1.050   4.438   7.632
 3014TIP3    H230602   0.975   4.328   7.703
 3015TIP3   OH230603   0.297   2.710   7.340
 3015TIP3    H130604   0.236   2.645   7.375
 3015TIP3    H230605   0.304   2.777   7.408
 3016TIP3   OH230606   5.777   6.652   6.168
 3016TIP3    H130607   5.790   6.723   6.106
 3016TIP3    H230608   5.683   6.635   6.166
 3017TIP3   OH230609   1.225   4.126   0.413
 3017TIP3    H130610   1.233   4.222   0.416
 3017TIP3    H230611   1.315   4.095   0.401
 3018TIP3   OH230612   1.481   1.227   1.098
 3018TIP3    H130613   1.467   1.322   1.104
 3018TIP3    H230614   1.493   1.211   1.005
 3019TIP3   OH230615   0.489   6.400   7.985
 3019TIP3    H130616   0.579   6.367   7.978
 3019TIP3    H230617   0.437   6.342   7.930
 3020TIP3   OH230618   5.728   0.441   8.560
 3020TIP3    H130619   5.793   0.403   8.618
 3020TIP3    H230620   5.742   0.396   8.476
 3021TIP3   OH230621   5.199   5.572   7.329
 3021TIP3    H130622   5.160   5.524   7.257
 3021TIP3    H230623   5.245   5.645   7.287
 3022TIP3   OH230624   5.596   3.473   7.005
 3022TIP3    H130625   5.656   3.400   7.023
 3022TIP3    H230626   5.513   3.430   6.982
 3023TIP3   OH230627   4.713   4.902   0.512
 3023TIP3    H130628   4.728   4.821   0.561
 3023TIP3    H230629   4.720   4.875   0.420
 3024TIP3   OH230630   1.858   6.711   0.548
 3024TIP3    H130631   1.908   6.647   0.497
 3024TIP3    H230632   1.856   6.789   0.493
 3025TIP3   OH230633   5.132   1.767   7.396
 3025TIP3    H130634   5.073   1.692   7.403
 3025TIP3    H230635   5.210   1.732   7.353
 3026TIP3   OH230636   1.899   4.290   7.698
 3026TIP3    H130637   1.879   4.257   7.610
 3026TIP3    H230638   1.838   4.243   7.756
 3027TIP3   OH230639   5.232   4.030   0.868
 3027TIP3    H130640   5.184   3.948   0.872
 3027TIP3    H230641   5.219   4.070   0.954
 3028TIP3   OH230642   0.766   0.964   0.445
 3028TIP3    H130643   0.694   0.918   0.402
 3028TIP3    H230644   0.840   0.903   0.439
 3029TIP3   OH230645   4.488   4.917   8.620
 3029TIP3    H130646   4.578   4.949   8.624
 3029TIP3    H230647   4.450   4.941   8.704
 3030TIP3   OH230648   3.436   6.062   1.942
 3030TIP3    H130649   3.360   6.115   1.969
 3030TIP3    H230650   3.412   6.027   1.857
 3031TIP3   OH230651   2.942   4.528   6.660
 3031TIP3    H130652   3.004   4.482   6.604
 3031TIP3    H230653   2.996   4.574   6.724
 3032TIP3   OH230654   1.672   5.223   7.686
 3032TIP3    H130655   1.655   5.308   7.644
 3032TIP3    H230656   1.602   5.166   7.655
 3033TIP3   OH230657   2.486   4.634   6.940
 3033TIP3    H130658   2.533   4.608   7.019
 3033TIP3    H230659   2.509   4.567   6.875
 3034TIP3   OH230660   0.322   5.818   8.572
 3034TIP3    H130661   0.381   5.848   8.503
 3034TIP3    H230662   0.379   5.778   8.637
 3035TIP3   OH230663   6.404   5.417   0.898
 3035TIP3    H130664   6.406   5.329   0.935
 3035TIP3    H230665   6.474   5.464   0.944
 3036TIP3   OH230666   4.036   0.799   7.689
 3036TIP3    H130667   3.981   0.731   7.651
 3036TIP3    H230668   3.990   0.881   7.671
 3037TIP3   OH230669   0.363   6.356   8.538
 3037TIP3    H130670   0.297   6.424   8.556
 3037TIP3    H230671   0.444   6.405   8.524
 3038TIP3   OH230672   0.796   0.252   8.217
 3038TIP3    H130673   0.736   0.262   8.291
 3038TIP3    H230674   0.740   0.258   8.139
 3039TIP3   OH230675   0.208   4.266   0.602
 3039TIP3    H130676   0.169   4.200   0.544
 3039TIP3    H230677   0.277   4.306   0.550
 3040TIP3   OH230678   5.526   6.700   0.312
 3040TIP3    H130679   5.507   6.657   0.228
 3040TIP3    H230680   5.480   6.783   0.307
 3041TIP3   OH230681   2.876   2.709   8.474
 3041TIP3    H130682   2.924   2.656   8.537
 3041TIP3    H230683   2.873   2.796   8.514
 3042TIP3   OH230684   0.992   4.961   7.101
 3042TIP3    H130685   1.023   5.051   7.096
 3042TIP3    H230686   0.902   4.964   7.069
 3043TIP3   OH230687   1.156   4.617   1.075
 3043TIP3    H130688   1.062   4.637   1.074
 3043TIP3    H230689   1.164   4.539   1.130
 3044TIP3   OH230690   3.015   4.767   7.158
 3044TIP3    H130691   3.105   4.770   7.191
 3044TIP3    H230692   2.964   4.733   7.232
 3045TIP3   OH230693   5.085   5.923   7.269
 3045TIP3    H130694   5.083   5.934   7.364
 3045TIP3    H230695   5.001   5.883   7.248
 3046TIP3   OH230696   4.060   5.393   7.907
 3046TIP3    H130697   4.094   5.398   7.817
 3046TIP3    H230698   4.048   5.485   7.932
 3047TIP3   OH230699   3.491   6.143   1.615
 3047TIP3    H130700   3.399   6.167   1.630
 3047TIP3    H230701   3.494   6.049   1.634
 3048TIP3   OH230702   2.695   6.258   0.723
 3048TIP3    H130703   2.687   6.196   0.796
 3048TIP3    H230704   2.762   6.219   0.667
 3049TIP3   OH230705   5.182   6.557   8.550
 3049TIP3    H130706   5.202   6.648   8.530
 3049TIP3    H230707   5.107   6.562   8.609
 3050TIP3   OH230708   6.025   0.689   7.222
 3050TIP3    H130709   6.099   0.669   7.280
 3050TIP3    H230710   5.948   0.669   7.274
 3051TIP3   OH230711   2.206   5.572   7.562
 3051TIP3    H130712   2.180   5.586   7.653
 3051TIP3    H230713   2.172   5.648   7.515
 3052TIP3   OH230714   3.849   3.532   6.747
 3052TIP3    H130715   3.934   3.494   6.723
 3052TIP3    H230716   3.870   3.623   6.772
 3053TIP3   OH230717   3.914   4.045   6.855
 3053TIP3    H130718   3.854   4.083   6.790
 3053TIP3    H230719   3.978   4.114   6.871
 3054TIP3   OH230720   2.654   5.195   1.777
 3054TIP3    H130721   2.739   5.164   1.808
 3054TIP3    H230722   2.670   5.225   1.687
 3055TIP3   OH230723   0.311   0.767   8.680
 3055TIP3    H130724   0.285   0.857   8.663
 3055TIP3    H230725   0.295   0.755   8.774
 3056TIP3   OH230726   2.901   5.995   8.202
 3056TIP3    H130727   2.916   5.907   8.235
 3056TIP3    H230728   2.853   5.982   8.120
 3057TIP3   OH230729   2.222   4.083   0.033
 3057TIP3    H130730   2.240   4.039   0.116
 3057TIP3    H230731   2.234   4.015  -0.033
 3058TIP3   OH230732   6.029   0.765   1.023
 3058TIP3    H130733   6.097   0.750   0.958
 3058TIP3    H230734   6.060   0.840   1.074
 3059TIP3   OH230735   4.956   5.956   0.571
 3059TIP3    H130736   4.878   5.988   0.526
 3059TIP3    H230737   4.941   5.979   0.663
 3060TIP3   OH230738   2.999   1.586   1.976
 3060TIP3    H130739   2.943   1.525   2.024
 3060TIP3    H230740   2.961   1.672   1.993
 3061TIP3   OH230741   4.319   2.836   0.097
 3061TIP3    H130742   4.231   2.831   0.060
 3061TIP3    H230743   4.306   2.879   0.182
 3062TIP3   OH230744   1.959   5.727   8.356
 3062TIP3    H130745   1.870   5.754   8.334
 3062TIP3    H230746   2.010   5.743   8.277
 3063TIP3   OH230747   0.523   5.081   0.113
 3063TIP3    H130748   0.460   5.052   0.178
 3063TIP3    H230749   0.584   5.007   0.104
 3064TIP3   OH230750   6.027   2.884   8.280
 3064TIP3    H130751   5.953   2.944   8.289
 3064TIP3    H230752   6.074   2.891   8.363
 3065TIP3   OH230753   4.593   4.991   0.162
 3065TIP3    H130754   4.564   5.076   0.197
 3065TIP3    H230755   4.566   4.992   0.071
 3066TIP3   OH230756   1.959   0.557   1.653
 3066TIP3    H130757   1.881   0.582   1.603
 3066TIP3    H230758   1.969   0.463   1.637
 3067TIP3   OH230759   3.268   5.959   8.127
 3067TIP3    H130760   3.190   5.910   8.155
 3067TIP3    H230761   3.288   5.923   8.040
 3068TIP3   OH230762   3.672   3.365   7.050
 3068TIP3    H130763   3.685   3.402   7.137
 3068TIP3    H230764   3.577   3.354   7.043
 3069TIP3   OH230765   4.967   3.541   0.553
 3069TIP3    H130766   4.874   3.525   0.540
 3069TIP3    H230767   4.994   3.476   0.617
 3070TIP3   OH230768   2.712   2.609   0.144
 3070TIP3    H130769   2.766   2.560   0.082
 3070TIP3    H230770   2.625   2.570   0.135
 3071TIP3   OH230771   2.564   3.094   0.828
 3071TIP3    H130772   2.564   3.179   0.785
 3071TIP3    H230773   2.478   3.089   0.871
 3072TIP3   OH230774   0.122   5.627   8.369
 3072TIP3    H130775   0.130   5.532   8.376
 3072TIP3    H230776   0.068   5.652   8.445
 3073TIP3   OH230777   3.035   4.866   0.865
 3073TIP3    H130778   3.032   4.914   0.782
 3073TIP3    H230779   3.125   4.834   0.871
 3074TIP3   OH230780   2.008   3.799   0.317
 3074TIP3    H130781   2.034   3.825   0.405
 3074TIP3    H230782   1.931   3.743   0.329
 3075TIP3   OH230783   2.671   3.275   8.524
 3075TIP3    H130784   2.635   3.259   8.611
 3075TIP3    H230785   2.620   3.349   8.490
 3076TIP3   OH230786   4.164   2.342   6.711
 3076TIP3    H130787   4.103   2.416   6.709
 3076TIP3    H230788   4.246   2.379   6.676
 3077TIP3   OH230789   4.435   0.726   8.717
 3077TIP3    H130790   4.412   0.802   8.771
 3077TIP3    H230791   4.528   0.713   8.733
 3078TIP3   OH230792   3.313   2.129   7.646
 3078TIP3    H130793   3.350   2.042   7.631
 3078TIP3    H230794   3.226   2.127   7.605
 3079TIP3   OH230795   0.024   0.671   7.951
 3079TIP3    H130796   0.036   0.766   7.955
 3079TIP3    H230797   0.098   0.636   8.000
 3080TIP3   OH230798   4.084   2.541   1.400
 3080TIP3    H130799   4.135   2.500   1.470
 3080TIP3    H230800   4.149   2.569   1.335
 3081TIP3   OH230801   4.246   4.163   1.179
 3081TIP3    H130802   4.239   4.090   1.117
 3081TIP3    H230803   4.156   4.176   1.211
 3082TIP3   OH230804   0.914   4.826   8.683
 3082TIP3    H130805   0.967   4.746   8.690
 3082TIP3    H230806   0.973   4.896   8.711
 3083TIP3   OH230807   4.020   5.522   1.295
 3083TIP3    H130808   4.015   5.430   1.268
 3083TIP3    H230809   3.941   5.535   1.348
 3084TIP3   OH230810   2.082   4.511   6.712
 3084TIP3    H130811   2.078   4.602   6.743
 3084TIP3    H230812   2.121   4.462   6.785
 3085TIP3   OH230813   2.768   4.413   6.948
 3085TIP3    H130814   2.853   4.456   6.955
 3085TIP3    H230815   2.739   4.431   6.859
 3086TIP3   OH230816   0.392   2.614   6.806
 3086TIP3    H130817   0.457   2.555   6.844
 3086TIP3    H230818   0.354   2.660   6.881
 3087TIP3   OH230819   3.793   2.403   6.727
 3087TIP3    H130820   3.786   2.399   6.822
 3087TIP3    H230821   3.861   2.468   6.710
 3088TIP3   OH230822   6.192   4.184   6.891
 3088TIP3    H130823   6.254   4.256   6.907
 3088TIP3    H230824   6.136   4.217   6.821
 3089TIP3   OH230825   3.480   2.039   1.226
 3089TIP3    H130826   3.524   2.032   1.141
 3089TIP3    H230827   3.493   2.130   1.253
 3090TIP3   OH230828   5.622   5.740   7.824
 3090TIP3    H130829   5.604   5.826   7.862
 3090TIP3    H230830   5.700   5.754   7.770
 3091TIP3   OH230831   1.647   0.192   7.463
 3091TIP3    H130832   1.623   0.099   7.456
 3091TIP3    H230833   1.635   0.212   7.556
 3092TIP3   OH230834   2.382   3.650   1.341
 3092TIP3    H130835   2.473   3.642   1.368
 3092TIP3    H230836   2.371   3.583   1.273
 3093TIP3   OH230837   5.745   2.765   7.331
 3093TIP3    H130838   5.660   2.743   7.367
 3093TIP3    H230839   5.726   2.807   7.247
 3094TIP3   OH230840   0.059   5.573   1.010
 3094TIP3    H130841   0.129   5.509   1.006
 3094TIP3    H230842   0.069   5.615   1.095
 3095TIP3   OH230843   0.168   4.167   7.779
 3095TIP3    H130844   0.076   4.188   7.763
 3095TIP3    H230845   0.186   4.094   7.719
 3096TIP3   OH230846   5.397   3.246   0.292
 3096TIP3    H130847   5.304   3.236   0.272
 3096TIP3    H230848   5.432   3.157   0.291
 3097TIP3   OH230849   2.414   6.285   7.524
 3097TIP3    H130850   2.481   6.216   7.528
 3097TIP3    H230851   2.458   6.360   7.485
 3098TIP3   OH230852   1.284   0.521   1.284
 3098TIP3    H130853   1.298   0.548   1.375
 3098TIP3    H230854   1.197   0.482   1.284
 3099TIP3   OH230855   2.085   0.097   1.485
 3099TIP3    H130856   2.059   0.116   1.396
 3099TIP3    H230857   2.177   0.125   1.490
 3100TIP3   OH230858   1.882   1.397   8.444
 3100TIP3    H130859   1.829   1.471   8.474
 3100TIP3    H230860   1.929   1.430   8.367
 3101TIP3   OH230861   4.822   2.604   1.094
 3101TIP3    H130862   4.844   2.694   1.118
 3101TIP3    H230863   4.829   2.555   1.175
 3102TIP3   OH230864   3.045   2.632   7.424
 3102TIP3    H130865   3.067   2.540   7.437
 3102TIP3    H230866   3.010   2.660   7.508
 3103TIP3   OH230867   5.153   5.553   2.154
 3103TIP3    H130868   5.069   5.598   2.146
 3103TIP3    H230869   5.159   5.500   2.074
 3104TIP3   OH230870   6.721   1.687   7.135
 3104TIP3    H130871   6.665   1.710   7.209
 3104TIP3    H230872   6.670   1.711   7.057
 3105TIP3   OH230873   4.172   3.275   7.201
 3105TIP3    H130874   4.139   3.257   7.113
 3105TIP3    H230875   4.182   3.371   7.203
 3106TIP3   OH230876   4.737   0.943   2.407
 3106TIP3    H130877   4.827   0.910   2.411
 3106TIP3    H230878   4.686   0.871   2.369
 3107TIP3   OH230879   5.649   5.520   1.196
 3107TIP3    H130880   5.716   5.571   1.241
 3107TIP3    H230881   5.575   5.518   1.257
 3108TIP3   OH230882   5.076   3.153   0.870
 3108TIP3    H130883   5.071   3.059   0.886
 3108TIP3    H230884   5.170   3.172   0.871
 3109TIP3   OH230885   2.704   5.083   0.793
 3109TIP3    H130886   2.734   5.037   0.871
 3109TIP3    H230887   2.756   5.045   0.722
 3110TIP3   OH230888   2.090   0.494   1.402
 3110TIP3    H130889   2.011   0.447   1.426
 3110TIP3    H230890   2.083   0.578   1.447
 3111TIP3   OH230891   1.974   0.698   6.450
 3111TIP3    H130892   2.055   0.725   6.493
 3111TIP3    H230893   2.003   0.640   6.379
 3112TIP3   OH230894   3.422   2.256   0.862
 3112TIP3    H130895   3.378   2.294   0.786
 3112TIP3    H230896   3.493   2.317   0.881
 3113TIP3   OH230897   0.257   0.212   6.673
 3113TIP3    H130898   0.266   0.264   6.594
 3113TIP3    H230899   0.321   0.142   6.665
 3114TIP3   OH230900   2.270   6.135   6.872
 3114TIP3    H130901   2.325   6.122   6.795
 3114TIP3    H230902   2.256   6.230   6.876
 3115TIP3   OH230903   5.616   0.156   7.686
 3115TIP3    H130904   5.525   0.178   7.667
 3115TIP3    H230905   5.637   0.208   7.764
 3116TIP3   OH230906   1.787   0.285   8.809
 3116TIP3    H130907   1.748   0.200   8.788
 3116TIP3    H230908   1.745   0.310   8.891
 3117TIP3   OH230909   4.753   6.219   6.774
 3117TIP3    H130910   4.828   6.205   6.832
 3117TIP3    H230911   4.780   6.290   6.716
 3118TIP3   OH230912   3.727   0.574   1.220
 3118TIP3    H130913   3.649   0.630   1.214
 3118TIP3    H230914   3.801   0.635   1.219
 3119TIP3   OH230915   2.721   4.206   7.800
 3119TIP3    H130916   2.681   4.291   7.782
 3119TIP3    H230917   2.795   4.201   7.739
 3120TIP3   OH230918   5.999   2.980   1.682
 3120TIP3    H130919   5.967   2.996   1.593
 3120TIP3    H230920   5.949   3.041   1.737
 3121TIP3   OH230921   4.677   2.891   8.509
 3121TIP3    H130922   4.720   2.812   8.477
 3121TIP3    H230923   4.611   2.911   8.442
 3122TIP3   OH230924   0.998   2.715   8.635
 3122TIP3    H130925   0.912   2.694   8.672
 3122TIP3    H230926   1.056   2.719   8.711
 3123TIP3   OH230927   0.617   1.734   8.500
 3123TIP3    H130928   0.658   1.768   8.420
 3123TIP3    H230929   0.566   1.658   8.472
 3124TIP3   OH230930   1.564   5.885   7.748
 3124TIP3    H130931   1.556   5.836   7.666
 3124TIP3    H230932   1.643   5.938   7.738
 3125TIP3   OH230933   1.545   3.398   6.857
 3125TIP3    H130934   1.511   3.324   6.907
 3125TIP3    H230935   1.606   3.359   6.794
 3126TIP3   OH230936   1.206   3.162   0.131
 3126TIP3    H130937   1.118   3.134   0.105
 3126TIP3    H230938   1.265   3.096   0.095
 3127TIP3   OH230939   3.918   5.046   7.728
 3127TIP3    H130940   3.975   5.062   7.803
 3127TIP3    H230941   3.966   5.080   7.653
 3128TIP3   OH230942   4.258   2.186   1.990
 3128TIP3    H130943   4.277   2.279   1.991
 3128TIP3    H230944   4.314   2.148   2.057
 3129TIP3   OH230945   0.544   6.440   0.860
 3129TIP3    H130946   0.533   6.533   0.881
 3129TIP3    H230947   0.492   6.427   0.781
 3130TIP3   OH230948   6.381   0.667   8.625
 3130TIP3    H130949   6.401   0.576   8.647
 3130TIP3    H230950   6.387   0.713   8.709
 3131TIP3   OH230951   6.327   4.134   7.430
 3131TIP3    H130952   6.338   4.106   7.521
 3131TIP3    H230953   6.385   4.210   7.422
 3132TIP3   OH230954   4.524   3.923   0.887
 3132TIP3    H130955   4.499   4.005   0.844
 3132TIP3    H230956   4.587   3.949   0.954
 3133TIP3   OH230957   3.362   1.750   1.646
 3133TIP3    H130958   3.318   1.696   1.712
 3133TIP3    H230959   3.306   1.827   1.637
 3134TIP3   OH230960   4.946   1.614   7.577
 3134TIP3    H130961   4.995   1.689   7.611
 3134TIP3    H230962   4.863   1.616   7.625
 3135TIP3   OH230963   5.386   5.977   1.713
 3135TIP3    H130964   5.413   5.889   1.686
 3135TIP3    H230965   5.429   5.991   1.797
 3136TIP3   OH230966   5.943   0.925   7.103
 3136TIP3    H130967   5.904   0.922   7.016
 3136TIP3    H230968   5.968   0.835   7.122
 3137TIP3   OH230969   6.143   5.482   7.495
 3137TIP3    H130970   6.176   5.554   7.549
 3137TIP3    H230971   6.097   5.525   7.423
 3138TIP3   OH230972   4.552   4.148   8.310
 3138TIP3    H130973   4.601   4.186   8.382
 3138TIP3    H230974   4.551   4.054   8.328
 3139TIP3   OH230975   6.261   5.421   2.673
 3139TIP3    H130976   6.296   5.338   2.639
 3139TIP3    H230977   6.325   5.487   2.647
 3140TIP3   OH230978   5.341   2.990   7.715
 3140TIP3    H130979   5.326   2.933   7.790
 3140TIP3    H230980   5.264   2.978   7.660
 3141TIP3   OH230981   0.299   5.204   6.297
 3141TIP3    H130982   0.278   5.111   6.303
 3141TIP3    H230983   0.217   5.249   6.317
 3142TIP3   OH230984   4.135   1.125   0.523
 3142TIP3    H130985   4.171   1.059   0.582
 3142TIP3    H230986   4.200   1.132   0.453
 3143TIP3   OH230987   5.714   1.213   7.682
 3143TIP3    H130988   5.771   1.185   7.754
 3143TIP3    H230989   5.688   1.302   7.706
 3144TIP3   OH230990   2.385   6.607   8.269
 3144TIP3    H130991   2.418   6.627   8.181
 3144TIP3    H230992   2.310   6.665   8.280
 3145TIP3   OH230993   4.287   5.827   1.382
 3145TIP3    H130994   4.371   5.815   1.336
 3145TIP3    H230995   4.241   5.893   1.329
 3146TIP3   OH230996   5.482   2.597   7.704
 3146TIP3    H130997   5.554   2.588   7.766
 3146TIP3    H230998   5.404   2.609   7.759
 3147TIP3   OH230999   3.164   5.656   1.331
 3147TIP3    H131000   3.078   5.622   1.307
 3147TIP3    H231001   3.214   5.657   1.249
 3148TIP3   OH231002   5.013   4.613   8.727
 3148TIP3    H131003   5.089   4.644   8.775
 3148TIP3    H231004   4.958   4.690   8.715
 3149TIP3   OH231005   6.504   1.669   6.645
 3149TIP3    H131006   6.475   1.627   6.564
 3149TIP3    H231007   6.512   1.597   6.708
 3150TIP3   OH231008   0.940   0.513   8.700
 3150TIP3    H131009   1.010   0.577   8.682
 3150TIP3    H231010   0.986   0.436   8.734
 3151TIP3   OH231011   2.805   6.787   0.287
 3151TIP3    H131012   2.832   6.831   0.207
 3151TIP3    H231013   2.883   6.787   0.342
 3152TIP3   OH231014   2.900   5.337   0.143
 3152TIP3    H131015   2.943   5.258   0.176
 3152TIP3    H231016   2.807   5.320   0.157
 3153TIP3   OH231017   1.591   2.952   7.426
 3153TIP3    H131018   1.684   2.953   7.450
 3153TIP3    H231019   1.551   3.017   7.484
 3154TIP3   OH231020   5.563   1.651   0.140
 3154TIP3    H131021   5.498   1.585   0.116
 3154TIP3    H231022   5.586   1.630   0.231
 3155TIP3   OH231023   4.374   2.400   7.794
 3155TIP3    H131024   4.310   2.334   7.821
 3155TIP3    H231025   4.441   2.350   7.746
 3156TIP3   OH231026   6.536   0.190   8.155
 3156TIP3    H131027   6.581   0.204   8.238
 3156TIP3    H231028   6.576   0.252   8.094
 3157TIP3   OH231029   2.626   6.271   7.824
 3157TIP3    H131030   2.649   6.307   7.738
 3157TIP3    H231031   2.710   6.261   7.868
 3158TIP3   OH231032   1.498   2.601   2.111
 3158TIP3    H131033   1.480   2.534   2.044
 3158TIP3    H231034   1.523   2.550   2.188
 3159TIP3   OH231035   2.706   3.418   7.863
 3159TIP3    H131036   2.749   3.365   7.796
 3159TIP3    H231037   2.616   3.385   7.865
 3160TIP3   OH231038   5.751   4.326   6.957
 3160TIP3    H131039   5.686   4.395   6.970
 3160TIP3    H231040   5.778   4.336   6.866
 3161TIP3   OH231041   3.277   4.451   6.905
 3161TIP3    H131042   3.241   4.363   6.911
 3161TIP3    H231043   3.355   4.450   6.960
 3162TIP3   OH231044   2.467   4.663   7.735
 3162TIP3    H131045   2.390   4.614   7.763
 3162TIP3    H231046   2.498   4.707   7.814
 3163TIP3   OH231047   5.854   5.889   0.665
 3163TIP3    H131048   5.773   5.938   0.652
 3163TIP3    H231049   5.854   5.824   0.595
 3164TIP3   OH231050   6.258   4.029   1.133
 3164TIP3    H131051   6.171   4.009   1.099
 3164TIP3    H231052   6.284   3.951   1.181
 3165TIP3   OH231053   0.413   1.275   1.651
 3165TIP3    H131054   0.335   1.256   1.598
 3165TIP3    H231055   0.487   1.255   1.592
 3166TIP3   OH231056   3.211   5.602   8.773
 3166TIP3    H131057   3.300   5.625   8.799
 3166TIP3    H231058   3.170   5.570   8.854
 3167TIP3   OH231059   3.600   6.064   6.744
 3167TIP3    H131060   3.667   6.127   6.772
 3167TIP3    H231061   3.648   5.983   6.729
 3168TIP3   OH231062   6.316   0.820   0.799
 3168TIP3    H131063   6.391   0.820   0.859
 3168TIP3    H231064   6.298   0.727   0.784
 3169TIP3   OH231065   0.969   4.274   8.539
 3169TIP3    H131066   0.918   4.248   8.462
 3169TIP3    H231067   1.044   4.321   8.502
 3170TIP3   OH231068   4.393   0.510   0.388
 3170TIP3    H131069   4.474   0.541   0.347
 3170TIP3    H231070   4.413   0.422   0.418
 3171TIP3   OH231071   4.014   6.542   6.872
 3171TIP3    H131072   4.057   6.550   6.787
 3171TIP3    H231073   3.930   6.586   6.862
 3172TIP3   OH231074   5.129   3.988   6.730
 3172TIP3    H131075   5.080   3.996   6.648
 3172TIP3    H231076   5.206   4.043   6.718
 3173TIP3   OH231077   2.974   1.093   1.562
 3173TIP3    H131078   2.930   1.011   1.540
 3173TIP3    H231079   2.995   1.084   1.655
 3174TIP3   OH231080   4.708   2.737   6.305
 3174TIP3    H131081   4.721   2.657   6.253
 3174TIP3    H231082   4.753   2.720   6.388
 3175TIP3   OH231083   5.869   4.974   8.257
 3175TIP3    H131084   5.908   5.045   8.206
 3175TIP3    H231085   5.939   4.908   8.261
 3176TIP3   OH231086   3.062   5.571   0.168
 3176TIP3    H131087   3.000   5.644   0.160
 3176TIP3    H231088   3.011   5.494   0.144
 3177TIP3   OH231089   1.321   5.442   7.422
 3177TIP3    H131090   1.322   5.494   7.341
 3177TIP3    H231091   1.295   5.354   7.393
 3178TIP3   OH231092   0.620   0.664   8.587
 3178TIP3    H131093   0.617   0.752   8.550
 3178TIP3    H231094   0.677   0.615   8.528
 3179TIP3   OH231095   2.273   3.247   6.523
 3179TIP3    H131096   2.360   3.285   6.535
 3179TIP3    H231097   2.221   3.316   6.482
 3180TIP3   OH231098   5.219   2.206   6.836
 3180TIP3    H131099   5.131   2.216   6.801
 3180TIP3    H231100   5.267   2.282   6.805
 3181TIP3   OH231101   3.990   5.042   1.392
 3181TIP3    H131102   3.929   5.065   1.462
 3181TIP3    H231103   3.933   5.025   1.316
 3182TIP3   OH231104   6.399   5.681   0.154
 3182TIP3    H131105   6.467   5.614   0.152
 3182TIP3    H231106   6.323   5.638   0.115
 3183TIP3   OH231107   0.740   2.978   1.101
 3183TIP3    H131108   0.663   2.921   1.103
 3183TIP3    H231109   0.732   3.028   1.021
 3184TIP3   OH231110   5.210   3.614   8.750
 3184TIP3    H131111   5.210   3.600   8.845
 3184TIP3    H231112   5.299   3.595   8.723
 3185TIP3   OH231113   6.660   3.876   7.521
 3185TIP3    H131114   6.712   3.809   7.566
 3185TIP3    H231115   6.613   3.827   7.453
 3186TIP3   OH231116   0.380   2.089   7.236
 3186TIP3    H131117   0.449   2.080   7.302
 3186TIP3    H231118   0.324   2.159   7.269
 3187TIP3   OH231119   4.560   5.814   8.495
 3187TIP3    H131120   4.623   5.829   8.425
 3187TIP3    H231121   4.612   5.776   8.566
 3188TIP3   OH231122   2.527   1.028   7.970
 3188TIP3    H131123   2.580   1.108   7.972
 3188TIP3    H231124   2.553   0.985   7.888
 3189TIP3   OH231125   1.951   4.148   8.124
 3189TIP3    H131126   1.973   4.234   8.159
 3189TIP3    H231127   1.857   4.139   8.140
 3190TIP3   OH231128   0.199   1.007   2.030
 3190TIP3    H131129   0.155   1.067   1.970
 3190TIP3    H231130   0.249   0.948   1.973
 3191TIP3   OH231131   1.586   2.097   8.516
 3191TIP3    H131132   1.525   2.163   8.548
 3191TIP3    H231133   1.560   2.017   8.561
 3192TIP3   OH231134   4.824   6.758   1.734
 3192TIP3    H131135   4.820   6.833   1.793
 3192TIP3    H231136   4.774   6.689   1.777
 3193TIP3   OH231137   6.531   0.279   7.769
 3193TIP3    H131138   6.565   0.357   7.725
 3193TIP3    H231139   6.437   0.295   7.779
 3194TIP3   OH231140   0.817   5.942   6.910
 3194TIP3    H131141   0.736   5.990   6.894
 3194TIP3    H231142   0.818   5.874   6.842
 3195TIP3   OH231143   6.119   0.631   1.708
 3195TIP3    H131144   6.194   0.583   1.673
 3195TIP3    H231145   6.071   0.660   1.631
 3196TIP3   OH231146   0.045   6.649   1.216
 3196TIP3    H131147   0.046   6.714   1.146
 3196TIP3    H231148   0.136   6.643   1.245
 3197TIP3   OH231149   4.766   6.311   1.259
 3197TIP3    H131150   4.784   6.382   1.319
 3197TIP3    H231151   4.672   6.318   1.241
 3198TIP3   OH231152   1.037   3.668   8.027
 3198TIP3    H131153   1.049   3.685   7.933
 3198TIP3    H231154   0.942   3.658   8.038
 3199TIP3   OH231155   0.912   4.631   1.516
 3199TIP3    H131156   0.848   4.699   1.539
 3199TIP3    H231157   0.992   4.660   1.559
 3200TIP3   OH231158   3.438   6.511   8.772
 3200TIP3    H131159   3.522   6.524   8.728
 3200TIP3    H231160   3.461   6.505   8.865
 3201TIP3   OH231161   3.333   5.832   7.895
 3201TIP3    H131162   3.318   5.851   7.802
 3201TIP3    H231163   3.405   5.769   7.896
 3202TIP3   OH231164   6.384   6.314   2.265
 3202TIP3    H131165   6.444   6.375   2.306
 3202TIP3    H231166   6.369   6.246   2.331
 3203TIP3   OH231167   5.313   2.324   1.470
 3203TIP3    H131168   5.240   2.353   1.525
 3203TIP3    H231169   5.390   2.365   1.508
 3204TIP3   OH231170   2.952   1.736   7.847
 3204TIP3    H131171   2.947   1.645   7.874
 3204TIP3    H231172   2.889   1.782   7.902
 3205TIP3   OH231173   3.127   2.211   1.516
 3205TIP3    H131174   3.069   2.241   1.586
 3205TIP3    H231175   3.068   2.185   1.446
 3206TIP3   OH231176   1.362   6.337   0.236
 3206TIP3    H131177   1.447   6.312   0.201
 3206TIP3    H231178   1.323   6.392   0.168
 3207TIP3   OH231179   1.805   4.763   1.445
 3207TIP3    H131180   1.758   4.701   1.501
 3207TIP3    H231181   1.829   4.711   1.368
 3208TIP3   OH231182   0.175   1.904   7.152
 3208TIP3    H131183   0.246   1.963   7.178
 3208TIP3    H231184   0.103   1.926   7.211
 3209TIP3   OH231185   1.717   3.703   0.262
 3209TIP3    H131186   1.691   3.741   0.346
 3209TIP3    H231187   1.664   3.749   0.197
 3210TIP3   OH231188   3.563   1.412   0.729
 3210TIP3    H131189   3.658   1.411   0.726
 3210TIP3    H231190   3.536   1.418   0.637
 3211TIP3   OH231191   2.908   3.270   7.637
 3211TIP3    H131192   2.917   3.365   7.632
 3211TIP3    H231193   2.995   3.237   7.615
 3212TIP3   OH231194   6.620   6.016   7.153
 3212TIP3    H131195   6.692   6.078   7.150
 3212TIP3    H231196   6.644   5.947   7.091
 3213TIP3   OH231197   3.651   2.428   0.298
 3213TIP3    H131198   3.604   2.485   0.237
 3213TIP3    H231199   3.729   2.401   0.250
 3214TIP3   OH231200   6.181   1.344   8.180
 3214TIP3    H131201   6.194   1.404   8.253
 3214TIP3    H231202   6.086   1.334   8.172
 3215TIP3   OH231203   3.527   2.293   7.622
 3215TIP3    H131204   3.492   2.373   7.582
 3215TIP3    H231205   3.450   2.237   7.633
 3216TIP3   OH231206   4.322   1.640   7.518
 3216TIP3    H131207   4.368   1.640   7.602
 3216TIP3    H231208   4.239   1.684   7.537
 3217TIP3   OH231209   3.457   4.423   8.613
 3217TIP3    H131210   3.404   4.425   8.693
 3217TIP3    H231211   3.462   4.330   8.591
 3218TIP3   OH231212   2.826   3.569   8.571
 3218TIP3    H131213   2.911   3.549   8.531
 3218TIP3    H231214   2.762   3.554   8.501
 3219TIP3   OH231215   3.091   6.680   0.049
 3219TIP3    H131216   3.023   6.737   0.016
 3219TIP3    H231217   3.139   6.652  -0.029
 3220TIP3   OH231218   2.233   4.733   1.084
 3220TIP3    H131219   2.183   4.788   1.023
 3220TIP3    H231220   2.175   4.721   1.159
 3221TIP3   OH231221   4.612   6.606   8.289
 3221TIP3    H131222   4.571   6.566   8.212
 3221TIP3    H231223   4.538   6.628   8.346
 3222TIP3   OH231224   3.757   0.166   1.452
 3222TIP3    H131225   3.680   0.151   1.397
 3222TIP3    H231226   3.724   0.220   1.524
 3223TIP3   OH231227   3.507   5.598   7.876
 3223TIP3    H131228   3.538   5.524   7.928
 3223TIP3    H231229   3.454   5.558   7.806
 3224TIP3   OH231230   0.534   3.727   1.208
 3224TIP3    H131231   0.540   3.661   1.277
 3224TIP3    H231232   0.443   3.723   1.179
 3225TIP3   OH231233   0.159   2.819   7.807
 3225TIP3    H131234   0.069   2.847   7.825
 3225TIP3    H231235   0.164   2.731   7.845
 3226TIP3   OH231236   2.418   3.862   6.048
 3226TIP3    H131237   2.500   3.897   6.084
 3226TIP3    H231238   2.445   3.791   5.991
 3227TIP3   OH231239   5.334   1.315   0.556
 3227TIP3    H131240   5.318   1.409   0.548
 3227TIP3    H231241   5.272   1.286   0.622
 3228TIP3   OH231242   2.916   1.921   6.783
 3228TIP3    H131243   2.876   1.953   6.702
 3228TIP3    H231244   2.978   1.854   6.754
 3229TIP3   OH231245   6.735   4.868   0.882
 3229TIP3    H131246   6.727   4.784   0.837
 3229TIP3    H231247   6.655   4.877   0.933
 3230TIP3   OH231248   5.292   3.092   1.127
 3230TIP3    H131249   5.262   3.177   1.096
 3230TIP3    H231250   5.318   3.107   1.218
 3231TIP3   OH231251   6.714   2.369   8.367
 3231TIP3    H131252   6.746   2.331   8.285
 3231TIP3    H231253   6.773   2.442   8.384
 3232TIP3   OH231254   5.909   4.846   0.009
 3232TIP3    H131255   5.954   4.921   0.046
 3232TIP3    H231256   5.910   4.862  -0.086
 3233TIP3   OH231257   1.996   6.549   6.817
 3233TIP3    H131258   1.933   6.483   6.789
 3233TIP3    H231259   2.069   6.500   6.853
 3234TIP3   OH231260   0.042   6.203   8.146
 3234TIP3    H131261   0.041   6.138   8.076
 3234TIP3    H231262   0.016   6.155   8.225
 3235TIP3   OH231263   4.153   1.976   0.486
 3235TIP3    H131264   4.128   2.064   0.513
 3235TIP3    H231265   4.129   1.921   0.561
 3236TIP3   OH231266   6.449   0.100   8.446
 3236TIP3    H131267   6.540   0.106   8.417
 3236TIP3    H231268   6.452   0.047   8.525
 3237TIP3   OH231269   6.635   4.970   0.189
 3237TIP3    H131270   6.565   4.975   0.254
 3237TIP3    H231271   6.692   5.044   0.210
 3238TIP3   OH231272   1.999   2.682   6.995
 3238TIP3    H131273   2.056   2.757   7.012
 3238TIP3    H231274   2.056   2.606   7.005
 3239TIP3   OH231275   2.969   5.509   6.559
 3239TIP3    H131276   2.932   5.595   6.580
 3239TIP3    H231277   3.011   5.480   6.639
 3240TIP3   OH231278   5.001   0.578   1.033
 3240TIP3    H131279   5.056   0.623   1.097
 3240TIP3    H231280   4.978   0.646   0.970
 3241TIP3   OH231281   1.935   5.243   7.793
 3241TIP3    H131282   1.980   5.278   7.716
 3241TIP3    H231283   1.842   5.241   7.767
 3242TIP3   OH231284   3.943   4.192   1.648
 3242TIP3    H131285   3.930   4.284   1.672
 3242TIP3    H231286   3.907   4.142   1.721
 3243TIP3   OH231287   6.564   4.900   7.088
 3243TIP3    H131288   6.639   4.931   7.037
 3243TIP3    H231289   6.488   4.919   7.033
 3244TIP3   OH231290   6.586   3.216   7.163
 3244TIP3    H131291   6.679   3.194   7.161
 3244TIP3    H231292   6.572   3.253   7.251
 3245TIP3   OH231293   1.014   4.725   0.269
 3245TIP3    H131294   1.050   4.657   0.213
 3245TIP3    H231295   1.016   4.687   0.357
 3246TIP3   OH231296   6.232   0.323   1.157
 3246TIP3    H131297   6.293   0.278   1.099
 3246TIP3    H231298   6.163   0.259   1.175
 3247TIP3   OH231299   2.526   2.413   8.654
 3247TIP3    H131300   2.499   2.433   8.743
 3247TIP3    H231301   2.517   2.318   8.646
 3248TIP3   OH231302   1.975   3.806   7.107
 3248TIP3    H131303   2.008   3.890   7.141
 3248TIP3    H231304   2.024   3.791   7.027
 3249TIP3   OH231305   0.996   5.621   7.612
 3249TIP3    H131306   0.950   5.673   7.546
 3249TIP3    H231307   1.040   5.685   7.667
 3250TIP3   OH231308   3.355   5.401   0.376
 3250TIP3    H131309   3.295   5.473   0.394
 3250TIP3    H231310   3.329   5.332   0.437
 3251TIP3   OH231311   5.122   6.705   1.644
 3251TIP3    H131312   5.129   6.760   1.722
 3251TIP3    H231313   5.030   6.678   1.643
 3252TIP3   OH231314   4.806   0.222   6.698
 3252TIP3    H131315   4.857   0.276   6.637
 3252TIP3    H231316   4.810   0.271   6.781
 3253TIP3   OH231317   3.348   0.491   0.916
 3253TIP3    H131318   3.362   0.447   1.000
 3253TIP3    H231319   3.417   0.557   0.911
 3254TIP3   OH231320   3.290   1.093   8.015
 3254TIP3    H131321   3.215   1.145   8.044
 3254TIP3    H231322   3.259   1.003   8.017
 3255TIP3   OH231323   5.946   4.370   0.262
 3255TIP3    H131324   5.920   4.418   0.341
 3255TIP3    H231325   5.904   4.417   0.190
 3256TIP3   OH231326   6.545   4.234   6.841
 3256TIP3    H131327   6.577   4.227   6.751
 3256TIP3    H231328   6.575   4.319   6.871
 3257TIP3   OH231329   1.183   5.575   7.929
 3257TIP3    H131330   1.230   5.538   7.854
 3257TIP3    H231331   1.105   5.520   7.938
 3258TIP3   OH231332   2.661   0.991   0.818
 3258TIP3    H131333   2.677   0.952   0.904
 3258TIP3    H231334   2.602   0.930   0.775
 3259TIP3   OH231335   4.223   0.285   1.934
 3259TIP3    H131336   4.233   0.329   2.018
 3259TIP3    H231337   4.291   0.325   1.878
 3260TIP3   OH231338   4.131   3.137   7.425
 3260TIP3    H131339   4.047   3.102   7.398
 3260TIP3    H231340   4.156   3.197   7.355
 3261TIP3   OH231341   3.912   2.014   0.876
 3261TIP3    H131342   4.008   2.020   0.873
 3261TIP3    H231343   3.882   2.098   0.841
 3262TIP3   OH231344   0.870   3.495   7.792
 3262TIP3    H131345   0.797   3.555   7.803
 3262TIP3    H231346   0.829   3.408   7.784
 3263TIP3   OH231347   6.356   0.977   8.669
 3263TIP3    H131348   6.403   0.921   8.607
 3263TIP3    H231349   6.416   1.049   8.688
 3264TIP3   OH231350   6.289   0.454   1.598
 3264TIP3    H131351   6.236   0.387   1.554
 3264TIP3    H231352   6.380   0.428   1.582
 3265TIP3   OH231353   3.553   1.052   2.202
 3265TIP3    H131354   3.639   1.037   2.162
 3265TIP3    H231355   3.567   1.042   2.296
 3266TIP3   OH231356   6.328   5.379   1.578
 3266TIP3    H131357   6.351   5.435   1.503
 3266TIP3    H231358   6.238   5.403   1.599
 3267TIP3   OH231359   4.740   0.977   7.437
 3267TIP3    H131360   4.828   1.008   7.416
 3267TIP3    H231361   4.702   1.046   7.491
 3268TIP3   OH231362   1.514   1.669   8.150
 3268TIP3    H131363   1.598   1.626   8.169
 3268TIP3    H231364   1.534   1.762   8.153
 3269TIP3   OH231365   6.168   6.710   7.619
 3269TIP3    H131366   6.257   6.675   7.607
 3269TIP3    H231367   6.176   6.803   7.598
 3270TIP3   OH231368   4.314   5.839   0.337
 3270TIP3    H131369   4.340   5.869   0.424
 3270TIP3    H231370   4.290   5.747   0.349
 3271TIP3   OH231371   1.517   6.295   6.498
 3271TIP3    H131372   1.485   6.265   6.413
 3271TIP3    H231373   1.613   6.292   6.489
 3272TIP3   OH231374   6.615   0.026   7.700
 3272TIP3    H131375   6.707   0.051   7.688
 3272TIP3    H231376   6.590   0.067   7.783
 3273TIP3   OH231377   6.400   1.828   8.344
 3273TIP3    H131378   6.424   1.906   8.394
 3273TIP3    H231379   6.305   1.833   8.336
 3274TIP3   OH231380   2.508   5.497   0.345
 3274TIP3    H131381   2.576   5.559   0.319
 3274TIP3    H231382   2.438   5.511   0.280
 3275TIP3   OH231383   4.266   6.396   0.660
 3275TIP3    H131384   4.341   6.336   0.657
 3275TIP3    H231385   4.219   6.379   0.578
 3276TIP3   OH231386   1.882   5.341   1.895
 3276TIP3    H131387   1.932   5.315   1.973
 3276TIP3    H231388   1.872   5.436   1.904
 3277TIP3   OH231389   6.603   5.722   7.236
 3277TIP3    H131390   6.580   5.813   7.221
 3277TIP3    H231391   6.555   5.698   7.316
 3278TIP3   OH231392   2.073   4.832   1.744
 3278TIP3    H131393   2.148   4.861   1.692
 3278TIP3    H231394   2.069   4.893   1.817
 3279TIP3   OH231395   3.801   4.933   1.238
 3279TIP3    H131396   3.811   4.898   1.150
 3279TIP3    H231397   3.707   4.931   1.255
 3280TIP3   OH231398   4.247   2.915   2.179
 3280TIP3    H131399   4.204   2.933   2.096
 3280TIP3    H231400   4.195   2.843   2.217
 3281TIP3   OH231401   6.250   0.888   0.294
 3281TIP3    H131402   6.312   0.824   0.328
 3281TIP3    H231403   6.203   0.920   0.371
 3282TIP3   OH231404   6.629   3.780   0.760
 3282TIP3    H131405   6.620   3.754   0.668
 3282TIP3    H231406   6.663   3.870   0.756
 3283TIP3   OH231407   3.623   2.930   7.946
 3283TIP3    H131408   3.588   2.955   8.031
 3283TIP3    H231409   3.604   3.004   7.888
 3284TIP3   OH231410   6.387   0.789   1.621
 3284TIP3    H131411   6.415   0.746   1.540
 3284TIP3    H231412   6.450   0.859   1.635
 3285TIP3   OH231413   1.758   0.800   0.804
 3285TIP3    H131414   1.696   0.872   0.790
 3285TIP3    H231415   1.843   0.837   0.779
 3286TIP3   OH231416   0.183   5.818   7.996
 3286TIP3    H131417   0.122   5.750   8.027
 3286TIP3    H231418   0.264   5.770   7.979
 3287TIP3   OH231419   0.812   6.314   0.270
 3287TIP3    H131420   0.786   6.358   0.189
 3287TIP3    H231421   0.755   6.351   0.337
 3288TIP3   OH231422   3.514   1.982   7.374
 3288TIP3    H131423   3.517   1.950   7.464
 3288TIP3    H231424   3.523   2.077   7.382
 3289TIP3   OH231425   4.623   3.181   0.502
 3289TIP3    H131426   4.563   3.106   0.500
 3289TIP3    H231427   4.630   3.207   0.410
 3290TIP3   OH231428   6.454   4.771   8.320
 3290TIP3    H131429   6.494   4.814   8.396
 3290TIP3    H231430   6.479   4.679   8.330
 3291TIP3   OH231431   5.429   1.936   8.193
 3291TIP3    H131432   5.491   2.000   8.227
 3291TIP3    H231433   5.482   1.876   8.140
 3292TIP3   OH231434   6.099   2.995   8.782
 3292TIP3    H131435   6.116   3.074   8.833
 3292TIP3    H231436   6.135   2.924   8.836
 3293TIP3   OH231437   0.065   1.944   1.648
 3293TIP3    H131438  -0.001   1.899   1.702
 3293TIP3    H231439   0.084   2.024   1.695
 3294TIP3   OH231440   5.720   1.835   7.534
 3294TIP3    H131441   5.795   1.801   7.486
 3294TIP3    H231442   5.691   1.911   7.483
 3295TIP3   OH231443   4.747   2.631   7.081
 3295TIP3    H131444   4.707   2.674   7.157
 3295TIP3    H231445   4.750   2.539   7.105
 3296TIP3   OH231446   6.622   3.342   7.405
 3296TIP3    H131447   6.628   3.436   7.420
 3296TIP3    H231448   6.707   3.318   7.368
 3297TIP3   OH231449   1.632   6.316   2.329
 3297TIP3    H131450   1.571   6.378   2.369
 3297TIP3    H231451   1.664   6.362   2.251
 3298TIP3   OH231452   4.815   1.235   0.922
 3298TIP3    H131453   4.848   1.290   0.851
 3298TIP3    H231454   4.880   1.244   0.991
 3299TIP3   OH231455   3.328   5.927   7.215
 3299TIP3    H131456   3.389   6.001   7.205
 3299TIP3    H231457   3.375   5.852   7.178
 3300TIP3   OH231458   2.484   1.764   1.377
 3300TIP3    H131459   2.417   1.721   1.323
 3300TIP3    H231460   2.435   1.800   1.451
 3301TIP3   OH231461   3.391   1.284   7.662
 3301TIP3    H131462   3.350   1.333   7.733
 3301TIP3    H231463   3.434   1.351   7.609
 3302TIP3   OH231464   2.871   3.083   8.119
 3302TIP3    H131465   2.866   3.178   8.113
 3302TIP3    H231466   2.805   3.059   8.185
 3303TIP3   OH231467   3.403   0.750   8.095
 3303TIP3    H131468   3.344   0.752   8.019
 3303TIP3    H231469   3.411   0.841   8.122
 3304TIP3   OH231470   4.071   1.208   1.635
 3304TIP3    H131471   4.012   1.245   1.570
 3304TIP3    H231472   4.069   1.271   1.707
 3305TIP3   OH231473   6.733   3.397   1.042
 3305TIP3    H131474   6.721   3.465   0.976
 3305TIP3    H231475   6.722   3.314   0.994
 3306TIP3   OH231476   5.944   4.616   6.310
 3306TIP3    H131477   6.009   4.665   6.360
 3306TIP3    H231478   5.993   4.541   6.276
 3307TIP3   OH231479   3.446   3.592   1.694
 3307TIP3    H131480   3.494   3.521   1.652
 3307TIP3    H231481   3.366   3.601   1.643
 3308TIP3   OH231482   4.959   3.692   7.911
 3308TIP3    H131483   4.943   3.701   7.817
 3308TIP3    H231484   4.905   3.761   7.951
 3309TIP3   OH231485   6.581   6.156   0.202
 3309TIP3    H131486   6.671   6.158   0.169
 3309TIP3    H231487   6.528   6.192   0.131
 3310TIP3   OH231488   1.721   1.106   0.782
 3310TIP3    H131489   1.763   1.191   0.771
 3310TIP3    H231490   1.741   1.059   0.700
 3311TIP3   OH231491   0.901   5.861   0.743
 3311TIP3    H131492   0.945   5.783   0.709
 3311TIP3    H231493   0.971   5.923   0.759
 3312TIP3   OH231494   0.462   4.703   7.054
 3312TIP3    H131495   0.411   4.784   7.053
 3312TIP3    H231496   0.396   4.634   7.067
 3313TIP3   OH231497   5.490   3.416   6.642
 3313TIP3    H131498   5.417   3.472   6.616
 3313TIP3    H231499   5.557   3.477   6.673
 3314TIP3   OH231500   2.513   4.816   0.099
 3314TIP3    H131501   2.517   4.857   0.186
 3314TIP3    H231502   2.561   4.734   0.110
 3315TIP3   OH231503   0.256   3.118   1.535
 3315TIP3    H131504   0.224   3.081   1.617
 3315TIP3    H231505   0.318   3.186   1.563
 3316TIP3   OH231506   3.025   2.414   1.691
 3316TIP3    H131507   3.083   2.466   1.747
 3316TIP3    H231508   2.937   2.439   1.718
 3317TIP3   OH231509   1.362   3.663   8.657
 3317TIP3    H131510   1.385   3.756   8.665
 3317TIP3    H231511   1.358   3.632   8.747
 3318TIP3   OH231512   0.535   1.148   0.401
 3318TIP3    H131513   0.533   1.101   0.318
 3318TIP3    H231514   0.572   1.085   0.463
 3319TIP3   OH231515   0.241   3.348   0.755
 3319TIP3    H131516   0.279   3.404   0.823
 3319TIP3    H231517   0.272   3.385   0.673
 3320TIP3   OH231518   5.852   2.022   0.534
 3320TIP3    H131519   5.809   1.940   0.509
 3320TIP3    H231520   5.781   2.081   0.556
 3321TIP3   OH231521   6.487   5.416   0.362
 3321TIP3    H131522   6.558   5.479   0.354
 3321TIP3    H231523   6.414   5.456   0.313
 3322TIP3   OH231524   4.262   4.524   0.265
 3322TIP3    H131525   4.228   4.445   0.223
 3322TIP3    H231526   4.229   4.518   0.355
 3323TIP3   OH231527   6.346   3.256   1.224
 3323TIP3    H131528   6.331   3.163   1.240
 3323TIP3    H231529   6.382   3.260   1.136
 3324TIP3   OH231530   4.910   1.374   0.702
 3324TIP3    H131531   4.885   1.458   0.739
 3324TIP3    H231532   4.962   1.396   0.625
 3325TIP3   OH231533   5.944   6.255   0.002
 3325TIP3    H131534   5.942   6.161   0.018
 3325TIP3    H231535   6.019   6.268  -0.056
 3326TIP3   OH231536   2.299   5.681   1.488
 3326TIP3    H131537   2.350   5.639   1.420
 3326TIP3    H231538   2.270   5.610   1.545
 3327TIP3   OH231539   3.040   6.583   0.800
 3327TIP3    H131540   3.130   6.576   0.767
 3327TIP3    H231541   3.051   6.611   0.891
 3328TIP3   OH231542   6.004   1.006   8.398
 3328TIP3    H131543   6.077   0.969   8.348
 3328TIP3    H231544   5.961   0.930   8.437
 3329TIP3   OH231545   3.830   6.533   7.102
 3329TIP3    H131546   3.843   6.456   7.158
 3329TIP3    H231547   3.870   6.605   7.150
 3330TIP3   OH231548   3.599   0.287   8.646
 3330TIP3    H131549   3.678   0.334   8.673
 3330TIP3    H231550   3.538   0.356   8.622
 3331TIP3   OH231551   0.959   4.586   0.544
 3331TIP3    H131552   0.949   4.640   0.623
 3331TIP3    H231553   1.033   4.529   0.564
 3332TIP3   OH231554   5.185   6.399   1.172
 3332TIP3    H131555   5.274   6.431   1.159
 3332TIP3    H231556   5.130   6.477   1.163
 3333TIP3   OH231557   3.503   6.437   7.224
 3333TIP3    H131558   3.513   6.531   7.209
 3333TIP3    H231559   3.555   6.421   7.303
 3334TIP3   OH231560   4.903   3.751   1.685
 3334TIP3    H131561   4.844   3.751   1.609
 3334TIP3    H231562   4.845   3.753   1.761
 3335TIP3   OH231563   2.811   5.346   6.304
 3335TIP3    H131564   2.729   5.323   6.349
 3335TIP3    H231565   2.790   5.428   6.258
 3336TIP3   OH231566   3.088   6.749   8.053
 3336TIP3    H131567   3.057   6.817   7.994
 3336TIP3    H231568   3.118   6.796   8.131
 3337TIP3   OH231569   3.723   5.133   1.051
 3337TIP3    H131570   3.688   5.066   1.109
 3337TIP3    H231571   3.705   5.216   1.097
 3338TIP3   OH231572   4.840   1.998   7.823
 3338TIP3    H131573   4.870   2.088   7.810
 3338TIP3    H231574   4.786   2.002   7.902
 3339TIP3   OH231575   1.930   5.542   8.091
 3339TIP3    H131576   1.879   5.509   8.164
 3339TIP3    H231577   2.016   5.561   8.130
 3340TIP3   OH231578   2.456   3.267   7.807
 3340TIP3    H131579   2.392   3.337   7.821
 3340TIP3    H231580   2.453   3.251   7.713
 3341TIP3   OH231581   6.357   3.041   1.969
 3341TIP3    H131582   6.362   2.945   1.964
 3341TIP3    H231583   6.413   3.064   2.043
 3342TIP3   OH231584   0.334   0.962   1.578
 3342TIP3    H131585   0.303   1.004   1.658
 3342TIP3    H231586   0.318   0.869   1.592
 3343TIP3   OH231587   1.754   0.809   2.147
 3343TIP3    H131588   1.814   0.734   2.144
 3343TIP3    H231589   1.801   0.875   2.198
 3344TIP3   OH231590   3.864   2.641   7.249
 3344TIP3    H131591   3.818   2.563   7.280
 3344TIP3    H231592   3.827   2.713   7.300
 3345TIP3   OH231593   5.928   0.470   0.548
 3345TIP3    H131594   5.852   0.471   0.490
 3345TIP3    H231595   5.891   0.467   0.637
 3346TIP3   OH231596   1.210   1.879   7.118
 3346TIP3    H131597   1.119   1.876   7.088
 3346TIP3    H231598   1.262   1.870   7.038
 3347TIP3   OH231599   5.335   4.702   1.398
 3347TIP3    H131600   5.300   4.626   1.444
 3347TIP3    H231601   5.409   4.667   1.348
 3348TIP3   OH231602   6.153   2.316   1.529
 3348TIP3    H131603   6.120   2.230   1.553
 3348TIP3    H231604   6.241   2.300   1.494
 3349TIP3   OH231605   1.477   2.220   8.156
 3349TIP3    H131606   1.507   2.299   8.201
 3349TIP3    H231607   1.446   2.251   8.071
 3350TIP3   OH231608   5.459   2.323   0.109
 3350TIP3    H131609   5.457   2.245   0.055
 3350TIP3    H231610   5.545   2.362   0.093
 3351TIP3   OH231611   0.054   1.359   7.397
 3351TIP3    H131612  -0.015   1.299   7.425
 3351TIP3    H231613   0.122   1.350   7.464
 3352TIP3   OH231614   1.892   3.265   2.454
 3352TIP3    H131615   1.847   3.336   2.499
 3352TIP3    H231616   1.939   3.308   2.382
 3353TIP3   OH231617   3.928   6.189   8.584
 3353TIP3    H131618   3.940   6.178   8.679
 3353TIP3    H231619   4.014   6.216   8.553
 3354TIP3   OH231620   4.528   5.845   6.106
 3354TIP3    H131621   4.493   5.915   6.051
 3354TIP3    H231622   4.460   5.831   6.173
 3355TIP3   OH231623   0.914   4.640   1.233
 3355TIP3    H131624   0.909   4.619   1.326
 3355TIP3    H231625   0.873   4.566   1.189
 3356TIP3   OH231626   0.128   6.021   7.103
 3356TIP3    H131627   0.181   6.099   7.121
 3356TIP3    H231628   0.191   5.954   7.076
 3357TIP3   OH231629   1.139   2.929   7.970
 3357TIP3    H131630   1.115   3.021   7.959
 3357TIP3    H231631   1.150   2.895   7.881
 3358TIP3   OH231632   1.326   3.566   7.884
 3358TIP3    H131633   1.301   3.500   7.948
 3358TIP3    H231634   1.244   3.590   7.841
 3359TIP3   OH231635   1.402   1.827   8.439
 3359TIP3    H131636   1.437   1.883   8.370
 3359TIP3    H231637   1.308   1.845   8.439
 3360TIP3   OH231638   5.333   5.815   8.384
 3360TIP3    H131639   5.262   5.877   8.368
 3360TIP3    H231640   5.311   5.774   8.468
 3361TIP3   OH231641   0.628   4.512   1.270
 3361TIP3    H131642   0.560   4.446   1.261
 3361TIP3    H231643   0.655   4.531   1.180
 3362TIP3   OH231644   6.176   0.099   8.752
 3362TIP3    H131645   6.153   0.192   8.757
 3362TIP3    H231646   6.092   0.054   8.763
 3363TIP3   OH231647   5.782   4.318   7.959
 3363TIP3    H131648   5.792   4.254   7.890
 3363TIP3    H231649   5.750   4.397   7.915
 3364TIP3   OH231650   0.777   1.797   0.880
 3364TIP3    H131651   0.699   1.826   0.832
 3364TIP3    H231652   0.750   1.717   0.924
 3365TIP3   OH231653   2.911   6.574   7.134
 3365TIP3    H131654   2.966   6.604   7.061
 3365TIP3    H231655   2.918   6.479   7.131
 3366TIP3   OH231656   6.539   6.250   7.384
 3366TIP3    H131657   6.577   6.162   7.388
 3366TIP3    H231658   6.601   6.300   7.330
 3367TIP3   OH231659   0.707   4.220   7.961
 3367TIP3    H131660   0.779   4.183   7.910
 3367TIP3    H231661   0.628   4.187   7.918
 3368TIP3   OH231662   2.773   3.616   8.164
 3368TIP3    H131663   2.850   3.655   8.123
 3368TIP3    H231664   2.701   3.673   8.139
 3369TIP3   OH231665   4.608   1.231   1.678
 3369TIP3    H131666   4.643   1.294   1.741
 3369TIP3    H231667   4.677   1.222   1.612
 3370TIP3   OH231668   0.213   6.460   8.145
 3370TIP3    H131669   0.170   6.375   8.159
 3370TIP3    H231670   0.306   6.442   8.155
 3371TIP3   OH231671   0.703   3.382   0.625
 3371TIP3    H131672   0.680   3.312   0.686
 3371TIP3    H231673   0.749   3.337   0.554
 3372TIP3   OH231674   1.943   1.918   2.349
 3372TIP3    H131675   1.921   1.912   2.256
 3372TIP3    H231676   1.968   1.829   2.374
 3373TIP3   OH231677   5.629   6.756   0.626
 3373TIP3    H131678   5.663   6.787   0.710
 3373TIP3    H231679   5.543   6.719   0.646
 3374TIP3   OH231680   0.613   1.922   6.809
 3374TIP3    H131681   0.622   2.015   6.788
 3374TIP3    H231682   0.638   1.877   6.728
 3375TIP3   OH231683   4.658   5.140   7.164
 3375TIP3    H131684   4.656   5.046   7.184
 3375TIP3    H231685   4.588   5.152   7.099
 3376TIP3   OH231686   2.043   2.119   6.639
 3376TIP3    H131687   2.064   2.128   6.732
 3376TIP3    H231688   2.005   2.031   6.631
 3377TIP3   OH231689   1.254   4.753   2.268
 3377TIP3    H131690   1.329   4.773   2.324
 3377TIP3    H231691   1.258   4.659   2.255
 3378TIP3   OH231692   0.762   2.244   1.642
 3378TIP3    H131693   0.830   2.279   1.700
 3378TIP3    H231694   0.679   2.267   1.685
 3379TIP3   OH231695   6.044   2.913   7.319
 3379TIP3    H131696   6.064   3.000   7.353
 3379TIP3    H231697   5.971   2.882   7.372
 3380TIP3   OH231698   0.404   1.813   6.941
 3380TIP3    H131699   0.342   1.886   6.952
 3380TIP3    H231700   0.479   1.852   6.896
 3381TIP3   OH231701   5.590   2.095   0.638
 3381TIP3    H131702   5.567   2.172   0.586
 3381TIP3    H231703   5.572   2.121   0.729
 3382TIP3   OH231704   2.989   3.727   6.873
 3382TIP3    H131705   3.064   3.777   6.842
 3382TIP3    H231706   3.015   3.696   6.960
 3383TIP3   OH231707   1.438   1.464   7.545
 3383TIP3    H131708   1.499   1.419   7.486
 3383TIP3    H231709   1.423   1.549   7.502
 3384TIP3   OH231710   6.800   1.513   0.743
 3384TIP3    H131711   6.816   1.484   0.653
 3384TIP3    H231712   6.705   1.519   0.750
 3385TIP3   OH231713   3.254   4.385   8.788
 3385TIP3    H131714   3.166   4.347   8.781
 3385TIP3    H231715   3.239   4.479   8.793
 3386TIP3   OH231716   0.785   6.590   7.758
 3386TIP3    H131717   0.827   6.671   7.731
 3386TIP3    H231718   0.712   6.617   7.814
 3387TIP3   OH231719   1.994   2.210   2.005
 3387TIP3    H131720   2.047   2.289   2.009
 3387TIP3    H231721   1.966   2.204   1.914
 3388TIP3   OH231722   2.812   1.574   7.216
 3388TIP3    H131723   2.873   1.586   7.144
 3388TIP3    H231724   2.801   1.662   7.253
 3389TIP3   OH231725   4.574   3.013   7.598
 3389TIP3    H131726   4.567   3.097   7.552
 3389TIP3    H231727   4.623   2.957   7.538
 3390TIP3   OH231728   3.225   0.607   7.553
 3390TIP3    H131729   3.264   0.577   7.635
 3390TIP3    H231730   3.257   0.545   7.487
 3391TIP3   OH231731   5.529   5.814   0.294
 3391TIP3    H131732   5.440   5.783   0.310
 3391TIP3    H231733   5.531   5.902   0.332
 3392TIP3   OH231734   5.559   5.458   8.314
 3392TIP3    H131735   5.530   5.370   8.288
 3392TIP3    H231736   5.586   5.499   8.232
 3393TIP3   OH231737   0.527   4.089   6.823
 3393TIP3    H131738   0.487   4.166   6.782
 3393TIP3    H231739   0.621   4.102   6.811
 3394TIP3   OH231740   4.379   0.832   6.807
 3394TIP3    H131741   4.338   0.746   6.812
 3394TIP3    H231742   4.425   0.842   6.891
 3395TIP3   OH231743   4.220   2.974   0.861
 3395TIP3    H131744   4.176   3.054   0.890
 3395TIP3    H231745   4.281   2.954   0.932
 3396TIP3   OH231746   6.679   0.203   7.159
 3396TIP3    H131747   6.649   0.174   7.073
 3396TIP3    H231748   6.743   0.138   7.186
 3397TIP3   OH231749   1.880   2.628   8.791
 3397TIP3    H131750   1.960   2.631   8.738
 3397TIP3    H231751   1.816   2.582   8.736
 3398TIP3   OH231752   0.080   0.027   1.014
 3398TIP3    H131753   0.071   0.118   1.039
 3398TIP3    H231754   0.174   0.016   0.997
 3399TIP3   OH231755   5.648   6.590   7.619
 3399TIP3    H131756   5.663   6.616   7.528
 3399TIP3    H231757   5.570   6.536   7.617
 3400TIP3   OH231758   1.651   5.173   1.938
 3400TIP3    H131759   1.729   5.202   1.891
 3400TIP3    H231760   1.668   5.195   2.030
 3401TIP3   OH231761   4.717   2.293   7.967
 3401TIP3    H131762   4.754   2.350   8.035
 3401TIP3    H231763   4.622   2.310   7.971
 3402TIP3   OH231764   2.258   5.586   8.461
 3402TIP3    H131765   2.295   5.497   8.455
 3402TIP3    H231766   2.333   5.642   8.482
 3403TIP3   OH231767   1.501   5.725   0.216
 3403TIP3    H131768   1.565   5.739   0.147
 3403TIP3    H231769   1.495   5.810   0.261
 3404TIP3   OH231770   1.728   5.846   2.365
 3404TIP3    H131771   1.655   5.865   2.306
 3404TIP3    H231772   1.725   5.750   2.376
 3405TIP3   OH231773   3.258   5.170   0.523
 3405TIP3    H131774   3.241   5.130   0.438
 3405TIP3    H231775   3.173   5.204   0.552
 3406TIP3   OH231776   2.874   3.444   0.707
 3406TIP3    H131777   2.836   3.529   0.727
 3406TIP3    H231778   2.936   3.428   0.778
 3407TIP3   OH231779   6.332   3.101   8.600
 3407TIP3    H131780   6.244   3.068   8.578
 3407TIP3    H231781   6.318   3.194   8.618
 3408TIP3   OH231782   3.310   0.803   0.060
 3408TIP3    H131783   3.364   0.819  -0.017
 3408TIP3    H231784   3.334   0.714   0.087
 3409TIP3   OH231785   2.630   5.082   8.787
 3409TIP3    H131786   2.708   5.049   8.742
 3409TIP3    H231787   2.563   5.015   8.771
 3410TIP3   OH231788   5.811   2.417   8.102
 3410TIP3    H131789   5.887   2.359   8.092
 3410TIP3    H231790   5.835   2.474   8.175
 3411TIP3   OH231791   4.334   5.240   0.450
 3411TIP3    H131792   4.417   5.192   0.438
 3411TIP3    H231793   4.275   5.176   0.489
 3412TIP3   OH231794   4.877   2.408   8.554
 3412TIP3    H131795   4.820   2.485   8.554
 3412TIP3    H231796   4.945   2.430   8.618
 3413TIP3   OH231797   0.776   1.543   0.270
 3413TIP3    H131798   0.837   1.557   0.198
 3413TIP3    H231799   0.705   1.491   0.231
 3414TIP3   OH231800   4.695   2.429   7.294
 3414TIP3    H131801   4.751   2.363   7.334
 3414TIP3    H231802   4.643   2.464   7.367
 3415TIP3   OH231803   5.759   1.380   0.552
 3415TIP3    H131804   5.737   1.442   0.622
 3415TIP3    H231805   5.829   1.326   0.588
 3416TIP3   OH231806   5.943   4.706   7.876
 3416TIP3    H131807   5.980   4.794   7.882
 3416TIP3    H231808   6.012   4.649   7.908
 3417TIP3   OH231809   1.835   6.169   0.233
 3417TIP3    H131810   1.895   6.163   0.158
 3417TIP3    H231811   1.834   6.080   0.269
 3418TIP3   OH231812   5.854   2.128   7.974
 3418TIP3    H131813   5.900   2.206   7.946
 3418TIP3    H231814   5.868   2.065   7.904
 3419TIP3   OH231815   0.231   3.242   7.961
 3419TIP3    H131816   0.320   3.227   7.992
 3419TIP3    H231817   0.211   3.332   7.989
 3420TIP3   OH231818   3.583   6.090   0.535
 3420TIP3    H131819   3.523   6.060   0.603
 3420TIP3    H231820   3.530   6.149   0.480
 3421TIP3   OH231821   1.359   1.901   0.654
 3421TIP3    H131822   1.284   1.854   0.619
 3421TIP3    H231823   1.435   1.846   0.632
 3422TIP3   OH231824   5.461   0.459   8.666
 3422TIP3    H131825   5.556   0.469   8.665
 3422TIP3    H231826   5.442   0.402   8.591
 3423TIP3   OH231827   2.769   3.602   0.143
 3423TIP3    H131828   2.710   3.588   0.069
 3423TIP3    H231829   2.714   3.589   0.220
 3424TIP3   OH231830   1.164   4.178   0.775
 3424TIP3    H131831   1.143   4.135   0.858
 3424TIP3    H231832   1.256   4.159   0.761
 3425TIP3   OH231833   3.428   5.197   0.730
 3425TIP3    H131834   3.365   5.226   0.796
 3425TIP3    H231835   3.373   5.164   0.658
 3426TIP3   OH231836   5.877   0.025   8.817
 3426TIP3    H131837   5.885  -0.070   8.808
 3426TIP3    H231838   5.783   0.040   8.824
 3427TIP3   OH231839   6.312   5.489   1.317
 3427TIP3    H131840   6.252   5.456   1.251
 3427TIP3    H231841   6.391   5.513   1.268
 3428TIP3   OH231842   5.826   2.813   6.095
 3428TIP3    H131843   5.778   2.847   6.019
 3428TIP3    H231844   5.841   2.721   6.074
 3429TIP3   OH231845   2.949   1.073   0.226
 3429TIP3    H131846   3.006   1.097   0.153
 3429TIP3    H231847   2.944   1.152   0.279
 3430TIP3   OH231848   5.217   4.922   8.456
 3430TIP3    H131849   5.145   4.863   8.430
 3430TIP3    H231850   5.294   4.884   8.415
 3431TIP3   OH231851   6.291   6.378   1.061
 3431TIP3    H131852   6.239   6.350   1.137
 3431TIP3    H231853   6.257   6.324   0.989
 3432TIP3   OH231854   2.950   3.868   2.016
 3432TIP3    H131855   2.955   3.883   2.111
 3432TIP3    H231856   2.985   3.948   1.977
 3433TIP3   OH231857   6.098   1.054   1.988
 3433TIP3    H131858   6.140   1.021   2.067
 3433TIP3    H231859   6.004   1.041   2.003
 3434TIP3   OH231860   0.962   1.989   0.824
 3434TIP3    H131861   0.953   1.893   0.828
 3434TIP3    H231862   0.902   2.021   0.892
 3435TIP3   OH231863   3.004   0.791   8.428
 3435TIP3    H131864   2.998   0.701   8.394
 3435TIP3    H231865   3.062   0.784   8.504
 3436TIP3   OH231866   1.168   5.520   0.631
 3436TIP3    H131867   1.147   5.470   0.552
 3436TIP3    H231868   1.245   5.571   0.607
 3437TIP3   OH231869   3.873   0.165   0.389
 3437TIP3    H131870   3.854   0.140   0.479
 3437TIP3    H231871   3.841   0.255   0.381
 3438TIP3   OH231872   1.123   6.400   8.014
 3438TIP3    H131873   1.166   6.420   7.930
 3438TIP3    H231874   1.038   6.444   8.009
 3439TIP3   OH231875   4.761   1.091   7.161
 3439TIP3    H131876   4.803   1.010   7.131
 3439TIP3    H231877   4.716   1.066   7.241
 3440TIP3   OH231878   5.722   2.161   8.216
 3440TIP3    H131879   5.766   2.111   8.147
 3440TIP3    H231880   5.736   2.253   8.191
 3441TIP3   OH231881   1.363   1.105   7.811
 3441TIP3    H131882   1.411   1.024   7.797
 3441TIP3    H231883   1.271   1.082   7.795
 3442TIP3   OH231884   5.565   1.905   2.284
 3442TIP3    H131885   5.572   1.949   2.199
 3442TIP3    H231886   5.522   1.969   2.341
 3443TIP3   OH231887   0.610   5.311   0.895
 3443TIP3    H131888   0.676   5.244   0.913
 3443TIP3    H231889   0.598   5.309   0.800
 3444TIP3   OH231890   1.354   1.881   1.109
 3444TIP3    H131891   1.338   1.964   1.064
 3444TIP3    H231892   1.395   1.825   1.042
 3445TIP3   OH231893   6.259   1.666   8.644
 3445TIP3    H131894   6.190   1.602   8.663
 3445TIP3    H231895   6.238   1.741   8.700
 3446TIP3   OH231896   3.687   4.940   7.520
 3446TIP3    H131897   3.663   4.920   7.611
 3446TIP3    H231898   3.764   4.886   7.504
 3447TIP3   OH231899   3.522   5.205   1.493
 3447TIP3    H131900   3.481   5.128   1.456
 3447TIP3    H231901   3.491   5.209   1.584
 3448TIP3   OH231902   0.360   2.091   6.733
 3448TIP3    H131903   0.355   2.124   6.822
 3448TIP3    H231904   0.307   2.012   6.733
 3449TIP3   OH231905   3.544   2.698   6.885
 3449TIP3    H131906   3.579   2.753   6.956
 3449TIP3    H231907   3.466   2.743   6.856
 3450TIP3   OH231908   1.273   3.007   0.958
 3450TIP3    H131909   1.221   2.932   0.928
 3450TIP3    H231910   1.352   2.968   0.996
 3451TIP3   OH231911   0.259   2.806   2.089
 3451TIP3    H131912   0.192   2.746   2.056
 3451TIP3    H231913   0.342   2.763   2.067
 3452TIP3   OH231914   1.583   1.563   6.936
 3452TIP3    H131915   1.542   1.584   7.020
 3452TIP3    H231916   1.509   1.538   6.880
 3453TIP3   OH231917   6.207   4.036   6.557
 3453TIP3    H131918   6.178   4.103   6.619
 3453TIP3    H231919   6.167   3.955   6.590
 3454TIP3   OH231920   1.585   3.802   1.110
 3454TIP3    H131921   1.511   3.754   1.148
 3454TIP3    H231922   1.662   3.767   1.155
 3455TIP3   OH231923   1.978   5.511   0.157
 3455TIP3    H131924   1.924   5.577   0.201
 3455TIP3    H231925   2.032   5.561   0.096
 3456TIP3   OH231926   6.626   4.330   0.966
 3456TIP3    H131927   6.588   4.415   0.943
 3456TIP3    H231928   6.579   4.267   0.911
 3457TIP3   OH231929   1.095   3.191   7.862
 3457TIP3    H131930   1.092   3.265   7.922
 3457TIP3    H231931   1.051   3.222   7.783
 3458TIP3   OH231932   1.244   1.379   8.121
 3458TIP3    H131933   1.304   1.323   8.072
 3458TIP3    H231934   1.299   1.421   8.187
 3459TIP3   OH231935   6.553   0.074   2.164
 3459TIP3    H131936   6.503   0.011   2.112
 3459TIP3    H231937   6.635   0.030   2.183
 3460TIP3   OH231938   0.277   1.088   2.502
 3460TIP3    H131939   0.360   1.112   2.461
 3460TIP3    H231940   0.222   1.166   2.493
 3461TIP3   OH231941   6.591   4.636   7.153
 3461TIP3    H131942   6.505   4.595   7.145
 3461TIP3    H231943   6.574   4.729   7.143
 3462TIP3   OH231944   5.681   5.365   1.457
 3462TIP3    H131945   5.773   5.379   1.435
 3462TIP3    H231946   5.661   5.436   1.519
 3463TIP3   OH231947   3.825   2.726   8.614
 3463TIP3    H131948   3.913   2.751   8.586
 3463TIP3    H231949   3.832   2.715   8.709
 3464TIP3   OH231950   6.584   1.479   0.999
 3464TIP3    H131951   6.673   1.448   0.985
 3464TIP3    H231952   6.551   1.497   0.911
 3465TIP3   OH231953   5.859   3.407   8.122
 3465TIP3    H131954   5.772   3.428   8.155
 3465TIP3    H231955   5.855   3.428   8.029
 3466TIP3   OH231956   1.086   3.842   1.516
 3466TIP3    H131957   1.147   3.769   1.527
 3466TIP3    H231958   1.000   3.802   1.520
 3467TIP3   OH231959   2.988   5.496   1.857
 3467TIP3    H131960   3.040   5.416   1.867
 3467TIP3    H231961   2.941   5.504   1.941
 3468TIP3   OH231962   6.064   5.640   1.069
 3468TIP3    H131963   5.993   5.673   1.015
 3468TIP3    H231964   6.073   5.548   1.043
 3469TIP3   OH231965   1.279   3.323   1.128
 3469TIP3    H131966   1.281   3.415   1.101
 3469TIP3    H231967   1.210   3.319   1.195
 3470TIP3   OH231968   0.975   1.688   5.906
 3470TIP3    H131969   1.035   1.614   5.916
 3470TIP3    H231970   0.903   1.653   5.854
 3471TIP3   OH231971   1.172   3.291   8.723
 3471TIP3    H131972   1.245   3.247   8.680
 3471TIP3    H231973   1.132   3.343   8.654
 3472TIP3   OH231974   1.497   1.377   8.628
 3472TIP3    H131975   1.419   1.352   8.579
 3472TIP3    H231976   1.544   1.295   8.641
 3473TIP3   OH231977   2.252   6.015   2.321
 3473TIP3    H131978   2.321   5.965   2.365
 3473TIP3    H231979   2.230   6.085   2.383
 3474TIP3   OH231980   2.243   6.062   0.192
 3474TIP3    H131981   2.271   5.972   0.175
 3474TIP3    H231982   2.318   6.102   0.237
 3475TIP3   OH231983   6.446   5.012   7.443
 3475TIP3    H131984   6.372   5.059   7.403
 3475TIP3    H231985   6.415   4.988   7.530
 3476TIP3   OH231986   2.497   3.367   1.256
 3476TIP3    H131987   2.425   3.385   1.196
 3476TIP3    H231988   2.534   3.284   1.226
 3477TIP3   OH231989   3.633   6.732   1.673
 3477TIP3    H131990   3.599   6.813   1.636
 3477TIP3    H231991   3.716   6.717   1.627
 3478TIP3   OH231992   4.964   0.879   1.199
 3478TIP3    H131993   4.875   0.878   1.165
 3478TIP3    H231994   5.014   0.926   1.132
 3479TIP3   OH231995   6.742   6.149   1.266
 3479TIP3    H131996   6.736   6.179   1.357
 3479TIP3    H231997   6.791   6.067   1.271
 3480TIP3   OH231998   3.820   3.696   2.102
 3480TIP3    H131999   3.820   3.666   2.193
 3480TIP3    H232000   3.728   3.719   2.085
 3481TIP3   OH232001   1.727   2.764   6.477
 3481TIP3    H132002   1.801   2.756   6.418
 3481TIP3    H232003   1.738   2.691   6.539
 3482TIP3   OH232004   5.380   2.735   0.017
 3482TIP3    H132005   5.412   2.691   0.096
 3482TIP3    H232006   5.415   2.683  -0.055
 3483TIP3   OH232007   0.255   5.616   6.620
 3483TIP3    H132008   0.210   5.628   6.704
 3483TIP3    H232009   0.185   5.610   6.556
 3484TIP3   OH232010   1.862   5.666   7.589
 3484TIP3    H132011   1.912   5.628   7.661
 3484TIP3    H232012   1.841   5.591   7.533
 3485TIP3   OH232013   4.843   0.852   0.156
 3485TIP3    H132014   4.804   0.786   0.213
 3485TIP3    H232015   4.938   0.841   0.167
 3486TIP3   OH232016   0.831   6.225   1.249
 3486TIP3    H132017   0.827   6.234   1.154
 3486TIP3    H232018   0.781   6.145   1.268
 3487TIP3   OH232019   0.976   0.072   1.464
 3487TIP3    H132020   0.908   0.139   1.469
 3487TIP3    H232021   1.038   0.095   1.534
 3488TIP3   OH232022   3.912   1.043   0.369
 3488TIP3    H132023   3.991   1.019   0.417
 3488TIP3    H232024   3.867   1.105   0.426
 3489TIP3   OH232025   3.567   1.112   7.094
 3489TIP3    H132026   3.548   1.020   7.080
 3489TIP3    H232027   3.515   1.137   7.170
 3490TIP3   OH232028   4.474   2.966   0.409
 3490TIP3    H132029   4.394   3.013   0.388
 3490TIP3    H232030   4.449   2.874   0.406
 3491TIP3   OH232031   1.063   5.629   7.016
 3491TIP3    H132032   1.143   5.652   6.967
 3491TIP3    H232033   1.040   5.542   6.982
 3492TIP3   OH232034   4.784   4.173   7.729
 3492TIP3    H132035   4.717   4.215   7.783
 3492TIP3    H232036   4.853   4.239   7.721
 3493TIP3   OH232037   5.330   2.582   0.497
 3493TIP3    H132038   5.293   2.659   0.541
 3493TIP3    H232039   5.354   2.524   0.569
 3494TIP3   OH232040   6.082   2.289   0.410
 3494TIP3    H132041   6.036   2.212   0.377
 3494TIP3    H232042   6.089   2.346   0.333
 3495TIP3   OH232043   1.506   1.680   0.117
 3495TIP3    H132044   1.526   1.588   0.101
 3495TIP3    H232045   1.463   1.710   0.037
 3496TIP3   OH232046   0.407   3.424   0.971
 3496TIP3    H132047   0.461   3.346   0.981
 3496TIP3    H232048   0.333   3.410   1.031
 3497TIP3   OH232049   3.104   5.421   8.263
 3497TIP3    H132050   3.152   5.350   8.305
 3497TIP3    H232051   3.167   5.494   8.260
 3498TIP3   OH232052   4.315   4.738   8.470
 3498TIP3    H132053   4.358   4.728   8.385
 3498TIP3    H232054   4.373   4.797   8.519
 3499TIP3   OH232055   1.260   5.180   7.706
 3499TIP3    H132056   1.278   5.193   7.800
 3499TIP3    H232057   1.234   5.267   7.675
 3500TIP3   OH232058   3.656   4.709   7.094
 3500TIP3    H132059   3.634   4.791   7.050
 3500TIP3    H232060   3.750   4.717   7.112
 3501TIP3   OH232061   6.256   6.751   1.257
 3501TIP3    H132062   6.343   6.787   1.275
 3501TIP3    H232063   6.261   6.725   1.165
 3502TIP3   OH232064   1.479   3.290   0.012
 3502TIP3    H132065   1.548   3.251   0.066
 3502TIP3    H232066   1.469   3.229  -0.062
 3503TIP3   OH232067   0.145   4.790   0.657
 3503TIP3    H132068   0.212   4.810   0.722
 3503TIP3    H232069   0.062   4.811   0.700
 3504TIP3   OH232070   3.195   2.538   8.443
 3504TIP3    H132071   3.281   2.557   8.479
 3504TIP3    H232072   3.189   2.593   8.364
 3505TIP3   OH232073   4.527   1.530   0.001
 3505TIP3    H132074   4.544   1.624  -0.002
 3505TIP3    H232075   4.542   1.500  -0.088
 3506TIP3   OH232076   2.481   3.400   6.938
 3506TIP3    H132077   2.551   3.349   6.897
 3506TIP3    H232078   2.461   3.470   6.875
 3507TIP3   OH232079   5.852   4.055   6.483
 3507TIP3    H132080   5.915   4.005   6.535
 3507TIP3    H232081   5.893   4.062   6.397
 3508TIP3   OH232082   5.875   4.455   0.512
 3508TIP3    H132083   5.857   4.467   0.605
 3508TIP3    H232084   5.788   4.452   0.471
 3509TIP3   OH232085   0.510   3.234   8.016
 3509TIP3    H132086   0.526   3.257   7.924
 3509TIP3    H232087   0.558   3.152   8.029
 3510TIP3   OH232088   5.808   3.445   6.424
 3510TIP3    H132089   5.898   3.465   6.450
 3510TIP3    H232090   5.765   3.531   6.418
 3511TIP3   OH232091   6.040   0.756   6.297
 3511TIP3    H132092   6.119   0.810   6.300
 3511TIP3    H232093   5.970   0.817   6.271
 3512TIP3   OH232094   5.516   0.486   7.217
 3512TIP3    H132095   5.581   0.511   7.152
 3512TIP3    H232096   5.467   0.566   7.235
 3513TIP3   OH232097   3.900   4.758   7.560
 3513TIP3    H132098   3.941   4.702   7.494
 3513TIP3    H232099   3.957   4.750   7.637
 3514TIP3   OH232100   0.658   3.741   6.585
 3514TIP3    H132101   0.707   3.666   6.619
 3514TIP3    H232102   0.587   3.702   6.534
 3515TIP3   OH232103   0.868   2.423   0.126
 3515TIP3    H132104   0.924   2.377   0.189
 3515TIP3    H232105   0.808   2.355   0.093
 3516TIP3   OH232106   0.185   6.680   7.527
 3516TIP3    H132107   0.259   6.626   7.500
 3516TIP3    H232108   0.108   6.624   7.515
 3517TIP3   OH232109   3.280   3.036   8.672
 3517TIP3    H132110   3.203   3.087   8.696
 3517TIP3    H232111   3.347   3.101   8.650
 3518TIP3   OH232112   0.822   3.405   0.025
 3518TIP3    H132113   0.730   3.394   0.047
 3518TIP3    H232114   0.822   3.428  -0.068
 3519TIP3   OH232115   3.267   2.853   8.040
 3519TIP3    H132116   3.175   2.837   8.020
 3519TIP3    H232117   3.290   2.929   7.988
 3520TIP3   OH232118   2.480   3.395   7.502
 3520TIP3    H132119   2.500   3.488   7.492
 3520TIP3    H232120   2.525   3.353   7.429
 3521TIP3   OH232121   1.831   5.747   1.762
 3521TIP3    H132122   1.913   5.703   1.744
 3521TIP3    H232123   1.841   5.782   1.851
 3522TIP3   OH232124   5.327   3.551   0.569
 3522TIP3    H132125   5.262   3.616   0.542
 3522TIP3    H232126   5.275   3.473   0.589
 3523TIP3   OH232127   1.960   2.666   8.094
 3523TIP3    H132128   2.036   2.686   8.148
 3523TIP3    H232129   1.909   2.747   8.092
 3524TIP3   OH232130   6.237   6.734   0.356
 3524TIP3    H132131   6.188   6.687   0.289
 3524TIP3    H232132   6.175   6.745   0.428
 3525TIP3   OH232133   4.151   3.140   0.036
 3525TIP3    H132134   4.118   3.223   0.002
 3525TIP3    H232135   4.222   3.116  -0.024
 3526TIP3   OH232136   0.473   3.831   0.714
 3526TIP3    H132137   0.487   3.740   0.740
 3526TIP3    H232138   0.395   3.828   0.659
 3527TIP3   OH232139   4.184   2.335   8.456
 3527TIP3    H132140   4.182   2.270   8.527
 3527TIP3    H232141   4.264   2.314   8.407
 3528TIP3   OH232142   4.101   5.840   0.103
 3528TIP3    H132143   4.130   5.759   0.062
 3528TIP3    H232144   4.122   5.829   0.195
 3529TIP3   OH232145   4.793   0.634   7.715
 3529TIP3    H132146   4.824   0.662   7.801
 3529TIP3    H232147   4.805   0.539   7.714
 3530TIP3   OH232148   5.371   3.065   8.124
 3530TIP3    H132149   5.443   3.043   8.183
 3530TIP3    H232150   5.301   3.097   8.182
 3531TIP3   OH232151   0.902   0.618   1.764
 3531TIP3    H132152   0.913   0.525   1.748
 3531TIP3    H232153   0.953   0.636   1.843
 3532TIP3   OH232154   5.920   5.661   1.299
 3532TIP3    H132155   5.953   5.586   1.348
 3532TIP3    H232156   5.981   5.670   1.225
 3533TIP3   OH232157   6.788   6.629   0.818
 3533TIP3    H132158   6.769   6.702   0.758
 3533TIP3    H232159   6.818   6.672   0.898
 3534TIP3   OH232160   0.281   0.701   7.038
 3534TIP3    H132161   0.227   0.766   7.083
 3534TIP3    H232162   0.369   0.739   7.038
 3535TIP3   OH232163   4.019   6.293   8.291
 3535TIP3    H132164   4.035   6.286   8.385
 3535TIP3    H232165   4.073   6.224   8.252
 3536TIP3   OH232166   0.493   3.130   7.168
 3536TIP3    H132167   0.542   3.100   7.091
 3536TIP3    H232168   0.542   3.094   7.243
 3537TIP3   OH232169   0.788   0.129   7.311
 3537TIP3    H132170   0.829   0.216   7.313
 3537TIP3    H232171   0.694   0.148   7.307
 3538TIP3   OH232172   0.002   0.629   6.241
 3538TIP3    H132173  -0.064   0.613   6.308
 3538TIP3    H232174  -0.035   0.698   6.186
 3539TIP3   OH232175   4.628   5.664   7.954
 3539TIP3    H132176   4.701   5.616   7.914
 3539TIP3    H232177   4.657   5.682   8.043
 3540TIP3   OH232178   0.433   3.304   1.639
 3540TIP3    H132179   0.515   3.267   1.672
 3540TIP3    H232180   0.458   3.354   1.561
 3541TIP3   OH232181   0.331   1.108   1.018
 3541TIP3    H132182   0.303   1.198   1.031
 3541TIP3    H232183   0.312   1.065   1.101
 3542TIP3   OH232184   5.098   1.279   8.051
 3542TIP3    H132185   5.044   1.340   8.100
 3542TIP3    H232186   5.100   1.315   7.962
 3543TIP3   OH232187   2.046   4.008   6.753
 3543TIP3    H132188   1.985   3.975   6.687
 3543TIP3    H232189   2.022   4.100   6.764
 3544TIP3   OH232190   0.386   5.767   1.671
 3544TIP3    H132191   0.410   5.732   1.756
 3544TIP3    H232192   0.300   5.807   1.684
 3545TIP3   OH232193   4.202   6.666   1.320
 3545TIP3    H132194   4.201   6.759   1.341
 3545TIP3    H232195   4.281   6.653   1.268
 3546TIP3   OH232196   1.472   4.743   1.601
 3546TIP3    H132197   1.508   4.719   1.687
 3546TIP3    H232198   1.429   4.663   1.570
 3547TIP3   OH232199   2.203   4.760   1.460
 3547TIP3    H132200   2.159   4.721   1.536
 3547TIP3    H232201   2.204   4.853   1.479
 3548TIP3   OH232202   2.505   4.306   1.501
 3548TIP3    H132203   2.409   4.304   1.512
 3548TIP3    H232204   2.538   4.320   1.590
 3549TIP3   OH232205   1.065   1.753   6.912
 3549TIP3    H132206   1.055   1.658   6.915
 3549TIP3    H232207   1.003   1.782   6.846
 3550TIP3   OH232208   3.660   2.694   7.596
 3550TIP3    H132209   3.587   2.695   7.658
 3550TIP3    H232210   3.640   2.622   7.536
 3551TIP3   OH232211   4.291   1.702   1.015
 3551TIP3    H132212   4.282   1.793   0.986
 3551TIP3    H232213   4.221   1.690   1.078
 3552TIP3   OH232214   1.524   5.975   0.319
 3552TIP3    H132215   1.520   6.015   0.232
 3552TIP3    H232216   1.469   6.030   0.373
 3553TIP3   OH232217   6.291   6.309   7.479
 3553TIP3    H132218   6.244   6.293   7.397
 3553TIP3    H232219   6.377   6.270   7.465
 3554TIP3   OH232220   1.198   1.344   7.631
 3554TIP3    H132221   1.276   1.386   7.595
 3554TIP3    H232222   1.231   1.266   7.676
 3555TIP3   OH232223   4.939   1.842   8.216
 3555TIP3    H132224   4.921   1.936   8.222
 3555TIP3    H232225   5.027   1.832   8.254
 3556TIP3   OH232226   2.045   3.280   0.572
 3556TIP3    H132227   2.117   3.227   0.607
 3556TIP3    H232228   2.048   3.264   0.478
 3557TIP3   OH232229   3.089   3.765   8.311
 3557TIP3    H132230   3.029   3.712   8.363
 3557TIP3    H232231   3.101   3.845   8.361
 3558TIP3   OH232232   4.763   6.263   7.674
 3558TIP3    H132233   4.753   6.233   7.765
 3558TIP3    H232234   4.777   6.183   7.624
 3559TIP3   OH232235   3.350   3.074   0.378
 3559TIP3    H132236   3.270   3.078   0.325
 3559TIP3    H232237   3.386   2.986   0.360
 3560TIP3   OH232238   6.562   4.702   7.621
 3560TIP3    H132239   6.502   4.666   7.556
 3560TIP3    H232240   6.638   4.729   7.571
 3561TIP3   OH232241   1.114   3.742   0.815
 3561TIP3    H132242   1.098   3.824   0.863
 3561TIP3    H232243   1.044   3.683   0.845
 3562TIP3   OH232244   0.013   6.776   7.213
 3562TIP3    H132245   0.074   6.743   7.147
 3562TIP3    H232246  -0.068   6.726   7.198
 3563TIP3   OH232247   0.555   3.653   7.601
 3563TIP3    H132248   0.472   3.699   7.588
 3563TIP3    H232249   0.578   3.621   7.514
 3564TIP3   OH232250   3.912   1.234   7.441
 3564TIP3    H132251   3.876   1.227   7.353
 3564TIP3    H232252   3.980   1.301   7.435
 3565TIP3   OH232253   2.109   1.061   7.399
 3565TIP3    H132254   2.028   1.110   7.409
 3565TIP3    H232255   2.123   1.057   7.304
 3566TIP3   OH232256   0.264   0.303   1.139
 3566TIP3    H132257   0.312   0.290   1.221
 3566TIP3    H232258   0.208   0.378   1.155
 3567TIP3   OH232259   2.418   2.739   6.994
 3567TIP3    H132260   2.454   2.697   6.916
 3567TIP3    H232261   2.411   2.669   7.058
 3568TIP3   OH232262   5.898   0.316   1.362
 3568TIP3    H132263   5.949   0.235   1.360
 3568TIP3    H232264   5.959   0.384   1.334
 3569TIP3   OH232265   3.397   1.304   6.864
 3569TIP3    H132266   3.486   1.334   6.877
 3569TIP3    H232267   3.380   1.318   6.771
 3570TIP3   OH232268   4.486   6.321   7.517
 3570TIP3    H132269   4.569   6.317   7.565
 3570TIP3    H232270   4.462   6.230   7.503
 3571TIP3   OH232271   2.745   4.975   1.988
 3571TIP3    H132272   2.665   4.923   1.979
 3571TIP3    H232273   2.790   4.936   2.062
 3572TIP3   OH232274   4.601   6.205   8.470
 3572TIP3    H132275   4.618   6.296   8.496
 3572TIP3    H232276   4.602   6.208   8.374
 3573TIP3   OH232277   4.428   5.446   8.698
 3573TIP3    H132278   4.393   5.363   8.666
 3573TIP3    H232279   4.515   5.424   8.731
 3574TIP3   OH232280   6.296   4.647   7.109
 3574TIP3    H132281   6.224   4.600   7.151
 3574TIP3    H232282   6.253   4.720   7.063
 3575TIP3   OH232283   1.754   2.853   0.889
 3575TIP3    H132284   1.707   2.900   0.959
 3575TIP3    H232285   1.832   2.818   0.931
 3576TIP3   OH232286   2.130   1.004   8.389
 3576TIP3    H132287   2.192   0.936   8.417
 3576TIP3    H232288   2.065   0.957   8.337
 3577TIP3   OH232289   3.974   5.220   0.042
 3577TIP3    H132290   3.992   5.287  -0.024
 3577TIP3    H232291   4.058   5.207   0.087
 3578TIP3   OH232292   0.734   5.303   1.436
 3578TIP3    H132293   0.807   5.248   1.406
 3578TIP3    H232294   0.690   5.331   1.356
 3579TIP3   OH232295   2.893   5.545   1.251
 3579TIP3    H132296   2.828   5.488   1.292
 3579TIP3    H232297   2.873   5.633   1.284
 3580TIP3   OH232298   2.175   0.089   6.937
 3580TIP3    H132299   2.223   0.045   6.865
 3580TIP3    H232300   2.221   0.061   7.016
 3581TIP3   OH232301   5.540   1.813   7.860
 3581TIP3    H132302   5.525   1.743   7.923
 3581TIP3    H232303   5.493   1.784   7.781
 3582TIP3   OH232304   3.549   2.900   1.827
 3582TIP3    H132305   3.525   2.984   1.787
 3582TIP3    H232306   3.644   2.898   1.823
 3583TIP3   OH232307   6.782   5.099   0.742
 3583TIP3    H132308   6.776   5.008   0.772
 3583TIP3    H232309   6.712   5.108   0.678
 3584TIP3   OH232310   0.083   2.909   0.533
 3584TIP3    H132311   0.167   2.866   0.548
 3584TIP3    H232312   0.082   2.928   0.439
 3585TIP3   OH232313   3.153   5.296   8.598
 3585TIP3    H132314   3.214   5.361   8.632
 3585TIP3    H232315   3.173   5.290   8.505
 3586TIP3   OH232316   2.031   3.688   7.716
 3586TIP3    H132317   1.956   3.745   7.699
 3586TIP3    H232318   2.087   3.698   7.638
 3587TIP3   OH232319   0.727   5.813   8.290
 3587TIP3    H132320   0.754   5.724   8.313
 3587TIP3    H232321   0.684   5.847   8.369
 3588TIP3   OH232322   3.074   2.696   1.558
 3588TIP3    H132323   3.066   2.736   1.471
 3588TIP3    H232324   2.984   2.686   1.589
 3589TIP3   OH232325   5.678   1.735   8.723
 3589TIP3    H132326   5.659   1.699   8.810
 3589TIP3    H232327   5.594   1.737   8.678
 3590TIP3   OH232328   1.652   3.917   8.314
 3590TIP3    H132329   1.648   3.962   8.230
 3590TIP3    H232330   1.585   3.959   8.368
 3591TIP3   OH232331   3.770   3.200   2.011
 3591TIP3    H132332   3.754   3.188   1.918
 3591TIP3    H232333   3.865   3.202   2.019
 3592TIP3   OH232334   4.715   3.336   1.901
 3592TIP3    H132335   4.740   3.428   1.895
 3592TIP3    H232336   4.798   3.289   1.909
 3593TIP3   OH232337   2.232   3.771   7.897
 3593TIP3    H132338   2.179   3.696   7.870
 3593TIP3    H232339   2.170   3.832   7.936
 3594TIP3   OH232340   1.608   4.054   0.977
 3594TIP3    H132341   1.585   3.985   1.039
 3594TIP3    H232342   1.658   4.010   0.909
 3595TIP3   OH232343   2.488   4.563   0.648
 3595TIP3    H132344   2.572   4.607   0.661
 3595TIP3    H232345   2.458   4.541   0.736
 3596TIP3   OH232346   1.014   5.460   2.573
 3596TIP3    H132347   1.008   5.370   2.540
 3596TIP3    H232348   1.100   5.490   2.545
 3597TIP3   OH232349   4.086   0.136   7.315
 3597TIP3    H132350   4.150   0.103   7.378
 3597TIP3    H232351   4.032   0.060   7.293
 3598TIP3   OH232352   0.717   2.150   0.367
 3598TIP3    H132353   0.769   2.154   0.447
 3598TIP3    H232354   0.626   2.146   0.397
 3599TIP3   OH232355   5.368   0.224   2.040
 3599TIP3    H132356   5.462   0.203   2.043
 3599TIP3    H232357   5.364   0.305   1.989
 3600TIP3   OH232358   0.387   1.460   2.442
 3600TIP3    H132359   0.350   1.406   2.372
 3600TIP3    H232360   0.456   1.406   2.480
 3601TIP3   OH232361   0.516   3.778   8.233
 3601TIP3    H132362   0.457   3.728   8.288
 3601TIP3    H232363   0.462   3.807   8.160
 3602TIP3   OH232364   4.269   2.052   1.148
 3602TIP3    H132365   4.276   2.130   1.202
 3602TIP3    H232366   4.257   1.980   1.211
 3603TIP3   OH232367   5.633   2.385   2.093
 3603TIP3    H132368   5.681   2.346   2.167
 3603TIP3    H232369   5.621   2.477   2.119
 3604TIP3   OH232370   4.494   5.819   0.089
 3604TIP3    H132371   4.421   5.848   0.145
 3604TIP3    H232372   4.572   5.851   0.134
 3605TIP3   OH232373   4.543   1.450   7.736
 3605TIP3    H132374   4.511   1.433   7.825
 3605TIP3    H232375   4.491   1.391   7.681
 3606TIP3   OH232376   6.679   5.028   8.766
 3606TIP3    H132377   6.645   5.006   8.852
 3606TIP3    H232378   6.710   5.118   8.774
 3607TIP3   OH232379   4.510   5.286   6.169
 3607TIP3    H132380   4.469   5.339   6.238
 3607TIP3    H232381   4.591   5.254   6.208
 3608TIP3   OH232382   1.663   4.981   1.145
 3608TIP3    H132383   1.600   4.938   1.202
 3608TIP3    H232384   1.686   5.062   1.192
 3609TIP3   OH232385   3.236   5.050   7.057
 3609TIP3    H132386   3.233   4.957   7.032
 3609TIP3    H232387   3.252   5.048   7.152
 3610TIP3   OH232388   5.391   1.032   6.249
 3610TIP3    H132389   5.419   1.117   6.284
 3610TIP3    H232390   5.472   0.983   6.239
 3611TIP3   OH232391   0.171   6.689   8.354
 3611TIP3    H132392   0.182   6.652   8.266
 3611TIP3    H232393   0.178   6.784   8.341
 3612TIP3   OH232394   2.097   6.169   0.440
 3612TIP3    H132395   2.138   6.127   0.364
 3612TIP3    H232396   2.116   6.262   0.429
 3613TIP3   OH232397   0.526   2.798   8.326
 3613TIP3    H132398   0.581   2.855   8.272
 3613TIP3    H232399   0.465   2.858   8.369
 3614TIP3   OH232400   0.934   1.038   7.286
 3614TIP3    H132401   0.867   1.021   7.352
 3614TIP3    H232402   1.017   1.033   7.334
 3615TIP3   OH232403   6.152   2.898   8.032
 3615TIP3    H132404   6.096   2.895   8.109
 3615TIP3    H232405   6.093   2.878   7.959
 3616TIP3   OH232406   4.052   2.849   1.256
 3616TIP3    H132407   4.146   2.847   1.237
 3616TIP3    H232408   4.046   2.865   1.350
 3617TIP3   OH232409   4.984   1.064   0.530
 3617TIP3    H132410   4.920   1.063   0.602
 3617TIP3    H232411   5.063   1.102   0.568
 3618TIP3   OH232412   1.824   4.981   1.737
 3618TIP3    H132413   1.882   4.913   1.702
 3618TIP3    H232414   1.821   5.047   1.668
 3619TIP3   OH232415   3.166   0.499   1.593
 3619TIP3    H132416   3.117   0.499   1.511
 3619TIP3    H232417   3.101   0.483   1.660
 3620TIP3   OH232418   3.821   4.672   8.454
 3620TIP3    H132419   3.867   4.756   8.457
 3620TIP3    H232420   3.883   4.611   8.414
 3621TIP3   OH232421   4.435   1.233   2.028
 3621TIP3    H132422   4.479   1.149   2.010
 3621TIP3    H232423   4.393   1.219   2.113
 3622TIP3   OH232424   4.702   4.218   1.222
 3622TIP3    H132425   4.629   4.245   1.166
 3622TIP3    H232426   4.698   4.277   1.297
 3623TIP3   OH232427   1.732   6.204   8.649
 3623TIP3    H132428   1.775   6.211   8.563
 3623TIP3    H232429   1.774   6.129   8.690
 3624TIP3   OH232430   4.632   6.764   0.719
 3624TIP3    H132431   4.615   6.769   0.813
 3624TIP3    H232432   4.723   6.733   0.713
 3625TIP3   OH232433   1.224   0.198   1.319
 3625TIP3    H132434   1.186   0.139   1.384
 3625TIP3    H232435   1.197   0.161   1.235
 3626TIP3   OH232436   0.869   6.063   7.680
 3626TIP3    H132437   0.912   6.019   7.606
 3626TIP3    H232438   0.807   5.999   7.714
 3627TIP3   OH232439   2.197   3.237   0.023
 3627TIP3    H132440   2.111   3.272  -0.001
 3627TIP3    H232441   2.259   3.304  -0.007
 3628TIP3   OH232442   5.573   2.752   1.749
 3628TIP3    H132443   5.528   2.824   1.794
 3628TIP3    H232444   5.502   2.697   1.716
 3629TIP3   OH232445   6.169   3.211   0.539
 3629TIP3    H132446   6.221   3.291   0.532
 3629TIP3    H232447   6.205   3.152   0.473
 3630TIP3   OH232448   3.577   0.039   8.054
 3630TIP3    H132449   3.557   0.001   8.139
 3630TIP3    H232450   3.619  -0.032   8.005
 3631TIP3   OH232451   3.325   3.045   1.447
 3631TIP3    H132452   3.403   2.990   1.451
 3631TIP3    H232453   3.349   3.117   1.387
 3632TIP3   OH232454   0.598   0.159   8.687
 3632TIP3    H132455   0.505   0.184   8.689
 3632TIP3    H232456   0.643   0.231   8.730
 3633TIP3   OH232457   3.288   1.663   1.247
 3633TIP3    H132458   3.285   1.652   1.152
 3633TIP3    H232459   3.281   1.573   1.281
 3634TIP3   OH232460   2.957   1.980   1.660
 3634TIP3    H132461   2.866   1.954   1.646
 3634TIP3    H232462   3.003   1.952   1.581
 3635TIP3   OH232463   5.258   5.303   0.136
 3635TIP3    H132464   5.204   5.226   0.119
 3635TIP3    H232465   5.324   5.303   0.068
 3636TIP3   OH232466   2.008   2.601   7.682
 3636TIP3    H132467   2.057   2.527   7.646
 3636TIP3    H232468   2.070   2.675   7.677
 3637TIP3   OH232469   3.364   4.677   1.365
 3637TIP3    H132470   3.297   4.727   1.318
 3637TIP3    H232471   3.327   4.590   1.376
 3638TIP3   OH232472   0.526   3.162   0.730
 3638TIP3    H132473   0.510   3.079   0.684
 3638TIP3    H232474   0.439   3.192   0.756
 3639TIP3   OH232475   4.053   6.740   0.231
 3639TIP3    H132476   4.126   6.690   0.267
 3639TIP3    H232477   4.021   6.685   0.159
 3640TIP3   OH232478   2.861   5.250   1.031
 3640TIP3    H132479   2.946   5.206   1.036
 3640TIP3    H232480   2.799   5.179   1.018
 3641TIP3   OH232481   5.465   4.478   7.846
 3641TIP3    H132482   5.492   4.444   7.931
 3641TIP3    H232483   5.546   4.491   7.797
 3642TIP3   OH232484   2.024   4.705   0.741
 3642TIP3    H132485   2.036   4.789   0.786
 3642TIP3    H232486   1.931   4.684   0.753
 3643TIP3   OH232487   1.790   6.798   7.139
 3643TIP3    H132488   1.858   6.730   7.133
 3643TIP3    H232489   1.835   6.879   7.116
 3644TIP3   OH232490   4.819   3.297   1.175
 3644TIP3    H132491   4.841   3.380   1.131
 3644TIP3    H232492   4.748   3.320   1.235
 3645TIP3   OH232493   1.365   3.797   0.693
 3645TIP3    H132494   1.299   3.750   0.745
 3645TIP3    H232495   1.367   3.885   0.731
 3646TIP3   OH232496   1.857   3.500   7.257
 3646TIP3    H132497   1.851   3.588   7.294
 3646TIP3    H232498   1.850   3.513   7.163
 3647TIP3   OH232499   5.525   2.472   1.551
 3647TIP3    H132500   5.505   2.521   1.472
 3647TIP3    H232501   5.612   2.435   1.536
 3648TIP3   OH232502   0.891   2.955   0.141
 3648TIP3    H132503   0.911   2.863   0.126
 3648TIP3    H232504   0.875   2.991   0.054
 3649TIP3   OH232505   5.799   6.338   7.502
 3649TIP3    H132506   5.717   6.380   7.529
 3649TIP3    H232507   5.862   6.365   7.568
 3650TIP3   OH232508   2.433   2.442   1.719
 3650TIP3    H132509   2.493   2.517   1.714
 3650TIP3    H232510   2.426   2.423   1.813
 3651TIP3   OH232511   5.574   6.056   0.393
 3651TIP3    H132512   5.571   6.037   0.487
 3651TIP3    H232513   5.526   6.138   0.383
 3652TIP3   OH232514   6.780   4.706   1.165
 3652TIP3    H132515   6.804   4.796   1.142
 3652TIP3    H232516   6.808   4.697   1.257
 3653TIP3   OH232517   0.926   5.368   2.328
 3653TIP3    H132518   0.835   5.367   2.297
 3653TIP3    H232519   0.968   5.296   2.282
 3654TIP3   OH232520   5.281   2.861   1.556
 3654TIP3    H132521   5.196   2.825   1.531
 3654TIP3    H232522   5.303   2.815   1.637
 3655TIP3   OH232523   0.976   3.558   0.967
 3655TIP3    H132524   1.063   3.522   0.949
 3655TIP3    H232525   0.979   3.584   1.059
 3656TIP3   OH232526   5.431   2.971   1.916
 3656TIP3    H132527   5.410   2.932   2.001
 3656TIP3    H232528   5.501   3.033   1.935
 3657TIP3   OH232529   5.391   3.631   7.438
 3657TIP3    H132530   5.405   3.591   7.524
 3657TIP3    H232531   5.348   3.714   7.456
 3658TIP3   OH232532   4.583   1.403   2.300
 3658TIP3    H132533   4.520   1.458   2.253
 3658TIP3    H232534   4.611   1.338   2.235
 3659TIP3   OH232535   6.679   5.902   0.370
 3659TIP3    H132536   6.617   5.949   0.313
 3659TIP3    H232537   6.626   5.836   0.415
 3660TIP3   OH232538   5.412   1.708   7.270
 3660TIP3    H132539   5.440   1.659   7.192
 3660TIP3    H232540   5.491   1.755   7.297
 3661TIP3   OH232541   1.975   4.273   2.171
 3661TIP3    H132542   1.895   4.325   2.160
 3661TIP3    H232543   2.035   4.332   2.217
 3662TIP3   OH232544   1.593   2.898   0.659
 3662TIP3    H132545   1.530   2.828   0.644
 3662TIP3    H232546   1.630   2.879   0.745
 3663TIP3   OH232547   6.167   1.774   6.702
 3663TIP3    H132548   6.135   1.856   6.664
 3663TIP3    H232549   6.167   1.712   6.629
 3664TIP3   OH232550   1.095   0.863   7.993
 3664TIP3    H132551   1.131   0.775   7.990
 3664TIP3    H232552   1.051   0.868   8.078
 3665TIP3   OH232553   6.636   1.686   2.338
 3665TIP3    H132554   6.628   1.757   2.274
 3665TIP3    H232555   6.697   1.719   2.404
 3666TIP3   OH232556   2.352   2.452   7.852
 3666TIP3    H132557   2.331   2.512   7.780
 3666TIP3    H232558   2.267   2.421   7.883
 3667TIP3   OH232559   1.260   2.876   7.495
 3667TIP3    H132560   1.234   2.914   7.412
 3667TIP3    H232561   1.324   2.809   7.472
 3668TIP3   OH232562   3.217   5.479   7.441
 3668TIP3    H132563   3.122   5.485   7.443
 3668TIP3    H232564   3.236   5.417   7.370
 3669TIP3   OH232565   6.299   5.650   8.703
 3669TIP3    H132566   6.243   5.600   8.643
 3669TIP3    H232567   6.242   5.673   8.776
 3670TIP3   OH232568   0.609   0.017   8.442
 3670TIP3    H132569   0.533   0.069   8.415
 3670TIP3    H232570   0.629   0.047   8.530
 3671TIP3   OH232571   1.742   4.334   1.504
 3671TIP3    H132572   1.675   4.371   1.446
 3671TIP3    H232573   1.731   4.239   1.496
 3672TIP3   OH232574   3.945   2.285   0.835
 3672TIP3    H132575   3.975   2.327   0.916
 3672TIP3    H232576   3.861   2.328   0.816
 3673TIP3   OH232577   5.246   6.013   0.042
 3673TIP3    H132578   5.241   5.977  -0.047
 3673TIP3    H232579   5.256   6.107   0.029
 3674TIP3   OH232580   6.310   4.267   8.588
 3674TIP3    H132581   6.324   4.321   8.510
 3674TIP3    H232582   6.376   4.198   8.581
 3675TIP3   OH232583   5.063   1.415   0.479
 3675TIP3    H132584   5.156   1.439   0.471
 3675TIP3    H232585   5.035   1.398   0.389
 3676TIP3   OH232586   1.179   2.398   7.630
 3676TIP3    H132587   1.144   2.456   7.697
 3676TIP3    H232588   1.190   2.314   7.674
 3677TIP3   OH232589   2.505   5.890   8.752
 3677TIP3    H132590   2.532   5.876   8.661
 3677TIP3    H232591   2.418   5.851   8.757
 3678TIP3   OH232592   5.580   5.857   8.307
 3678TIP3    H132593   5.625   5.909   8.374
 3678TIP3    H232594   5.501   5.824   8.351
 3679TIP3   OH232595   5.295   3.274   8.776
 3679TIP3    H132596   5.312   3.186   8.741
 3679TIP3    H232597   5.205   3.270   8.806
 3680TIP3   OH232598   0.177   5.429   0.625
 3680TIP3    H132599   0.092   5.391   0.606
 3680TIP3    H232600   0.240   5.366   0.590
 3681TIP3   OH232601   1.599   2.321   0.602
 3681TIP3    H132602   1.550   2.275   0.534
 3681TIP3    H232603   1.673   2.361   0.556
 3682TIP3   OH232604   0.827   5.686   1.878
 3682TIP3    H132605   0.791   5.641   1.801
 3682TIP3    H232606   0.915   5.711   1.852
 3683TIP3   OH232607   2.865   6.204   7.943
 3683TIP3    H132608   2.871   6.294   7.910
 3683TIP3    H232609   2.835   6.213   8.033
 3684TIP3   OH232610   4.640   4.958   1.069
 3684TIP3    H132611   4.567   4.947   1.129
 3684TIP3    H232612   4.604   5.007   0.995
 3685TIP3   OH232613   2.956   1.275   1.901
 3685TIP3    H132614   2.927   1.188   1.873
 3685TIP3    H232615   2.893   1.301   1.969
 3686TIP3   OH232616   6.427   3.777   6.634
 3686TIP3    H132617   6.473   3.713   6.580
 3686TIP3    H232618   6.371   3.725   6.691
 3687TIP3   OH232619   4.321   2.536   0.055
 3687TIP3    H132620   4.399   2.489   0.025
 3687TIP3    H232621   4.355   2.621   0.084
 3688TIP3   OH232622   3.086   2.510   1.163
 3688TIP3    H132623   3.043   2.481   1.244
 3688TIP3    H232624   3.157   2.566   1.193
 3689TIP3   OH232625   4.699   4.294   0.910
 3689TIP3    H132626   4.605   4.281   0.919
 3689TIP3    H232627   4.714   4.384   0.939
 3690TIP3   OH232628   4.793   3.365   8.485
 3690TIP3    H132629   4.868   3.422   8.503
 3690TIP3    H232630   4.733   3.420   8.435
 3691TIP3   OH232631   6.473   0.761   6.868
 3691TIP3    H132632   6.543   0.702   6.898
 3691TIP3    H232633   6.451   0.728   6.781
 3692TIP3   OH232634   4.505   1.188   7.413
 3692TIP3    H132635   4.546   1.184   7.499
 3692TIP3    H232636   4.437   1.121   7.415
 3693TIP3   OH232637   5.216   5.146   6.925
 3693TIP3    H132638   5.130   5.131   6.963
 3693TIP3    H232639   5.226   5.076   6.860
 3694TIP3   OH232640   1.255   6.039   8.381
 3694TIP3    H132641   1.331   5.999   8.339
 3694TIP3    H232642   1.269   6.133   8.370
 3695TIP3   OH232643   0.486   5.735   6.891
 3695TIP3    H132644   0.482   5.647   6.854
 3695TIP3    H232645   0.485   5.793   6.814
 3696TIP3   OH232646   0.261   3.874   7.874
 3696TIP3    H132647   0.229   3.907   7.958
 3696TIP3    H232648   0.343   3.921   7.859
 3697TIP3   OH232649   1.766   0.032   7.783
 3697TIP3    H132650   1.805  -0.004   7.863
 3697TIP3    H232651   1.752   0.125   7.803
 3698TIP3   OH232652   0.664   6.232   7.374
 3698TIP3    H132653   0.598   6.206   7.437
 3698TIP3    H232654   0.717   6.298   7.420
 3699TIP3   OH232655   6.635   6.421   0.799
 3699TIP3    H132656   6.692   6.489   0.835
 3699TIP3    H232657   6.556   6.425   0.852
 3700TIP3   OH232658   3.324   6.631   0.755
 3700TIP3    H132659   3.385   6.558   0.740
 3700TIP3    H232660   3.359   6.676   0.832
 3701TIP3   OH232661   4.775   0.356   0.193
 3701TIP3    H132662   4.824   0.347   0.111
 3701TIP3    H232663   4.756   0.449   0.199
 3702TIP3   OH232664   4.851   6.466   1.537
 3702TIP3    H132665   4.943   6.474   1.511
 3702TIP3    H232666   4.853   6.432   1.627
 3703TIP3   OH232667   0.280   5.114   1.505
 3703TIP3    H132668   0.329   5.033   1.518
 3703TIP3    H232669   0.342   5.183   1.525
 3704TIP3   OH232670   3.768   0.714   7.115
 3704TIP3    H132671   3.688   0.766   7.115
 3704TIP3    H232672   3.780   0.689   7.207
 3705TIP3   OH232673   4.403   2.398   0.757
 3705TIP3    H132674   4.337   2.328   0.760
 3705TIP3    H232675   4.399   2.438   0.844
 3706TIP3   OH232676   4.557   3.996   7.143
 3706TIP3    H132677   4.469   4.032   7.144
 3706TIP3    H232678   4.545   3.905   7.114
 3707TIP3   OH232679   4.314   4.527   7.560
 3707TIP3    H132680   4.343   4.609   7.601
 3707TIP3    H232681   4.277   4.476   7.632
 3708TIP3   OH232682   1.537   4.643   8.732
 3708TIP3    H132683   1.462   4.583   8.725
 3708TIP3    H232684   1.524   4.688   8.815
 3709TIP3   OH232685   4.211   0.700   0.842
 3709TIP3    H132686   4.251   0.667   0.762
 3709TIP3    H232687   4.172   0.784   0.817
 3710TIP3   OH232688   2.321   5.958   0.553
 3710TIP3    H132689   2.248   5.952   0.615
 3710TIP3    H232690   2.346   6.050   0.555
 3711TIP3   OH232691   0.674   2.608   0.318
 3711TIP3    H132692   0.732   2.545   0.274
 3711TIP3    H232693   0.592   2.561   0.328
 3712TIP3   OH232694   6.724   1.814   1.224
 3712TIP3    H132695   6.651   1.762   1.259
 3712TIP3    H232696   6.802   1.763   1.244
 3713TIP3   OH232697   4.959   4.308   1.501
 3713TIP3    H132698   4.935   4.233   1.556
 3713TIP3    H232699   4.883   4.366   1.505
 3714TIP3   OH232700   3.474   3.475   0.501
 3714TIP3    H132701   3.401   3.466   0.440
 3714TIP3    H232702   3.436   3.464   0.588
 3715TIP3   OH232703   2.643   3.114   8.290
 3715TIP3    H132704   2.648   3.119   8.386
 3715TIP3    H232705   2.560   3.156   8.268
 3716TIP3   OH232706   1.984   4.080   1.949
 3716TIP3    H132707   1.925   4.059   2.021
 3716TIP3    H232708   2.030   4.159   1.978
 3717TIP3   OH232709   3.693   2.882   0.993
 3717TIP3    H132710   3.682   2.977   0.998
 3717TIP3    H232711   3.657   2.858   0.908
 3718TIP3   OH232712   3.257   1.650   1.927
 3718TIP3    H132713   3.298   1.718   1.980
 3718TIP3    H232714   3.166   1.650   1.955
 3719TIP3   OH232715   4.775   1.314   0.072
 3719TIP3    H132716   4.710   1.272   0.129
 3719TIP3    H232717   4.734   1.396   0.045
 3720TIP3   OH232718   5.532   0.028   7.462
 3720TIP3    H132719   5.552   0.020   7.556
 3720TIP3    H232720   5.507   0.120   7.452
 3721TIP3   OH232721   0.442   0.034   6.652
 3721TIP3    H132722   0.472   0.017   6.563
 3721TIP3    H232723   0.484  -0.032   6.706
 3722TIP3   OH232724   4.874   3.170   7.544
 3722TIP3    H132725   4.796   3.165   7.489
 3722TIP3    H232726   4.854   3.239   7.607
 3723TIP3   OH232727   0.196   3.398   8.625
 3723TIP3    H132728   0.157   3.439   8.702
 3723TIP3    H232729   0.175   3.457   8.553
 3724TIP3   OH232730   1.780   4.689   8.581
 3724TIP3    H132731   1.858   4.707   8.634
 3724TIP3    H232732   1.717   4.652   8.642
 3725TIP3   OH232733   5.488   1.264   6.417
 3725TIP3    H132734   5.556   1.329   6.402
 3725TIP3    H232735   5.508   1.228   6.504
 3726TIP3   OH232736   5.347   6.047   8.105
 3726TIP3    H132737   5.409   6.091   8.164
 3726TIP3    H232738   5.320   6.115   8.044
 3727TIP3   OH232739   4.969   4.109   1.704
 3727TIP3    H132740   5.023   4.149   1.772
 3727TIP3    H232741   4.908   4.053   1.752
 3728TIP3   OH232742   1.948   1.807   6.813
 3728TIP3    H132743   2.042   1.789   6.810
 3728TIP3    H232744   1.931   1.857   6.733
 3729TIP3   OH232745   2.034   2.410   7.369
 3729TIP3    H132746   2.120   2.435   7.337
 3729TIP3    H232747   2.051   2.361   7.450
 3730TIP3   OH232748   0.325   2.794   0.599
 3730TIP3    H132749   0.339   2.776   0.692
 3730TIP3    H232750   0.397   2.853   0.575
 3731TIP3   OH232751   5.454   3.033   7.276
 3731TIP3    H132752   5.449   2.943   7.309
 3731TIP3    H232753   5.507   3.026   7.196
 3732TIP3   OH232754   1.941   2.091   0.124
 3732TIP3    H132755   1.955   2.073   0.031
 3732TIP3    H232756   1.945   2.004   0.165
 3733TIP3   OH232757   5.635   0.111   1.404
 3733TIP3    H132758   5.550   0.074   1.430
 3733TIP3    H232759   5.686   0.113   1.484
 3734TIP3   OH232760   5.198   6.333   1.697
 3734TIP3    H132761   5.284   6.319   1.736
 3734TIP3    H232762   5.163   6.409   1.744
 3735TIP3   OH232763   1.490   3.327   2.013
 3735TIP3    H132764   1.510   3.241   1.976
 3735TIP3    H232765   1.503   3.317   2.107
 3736TIP3   OH232766   1.968   4.283   0.993
 3736TIP3    H132767   1.937   4.232   0.918
 3736TIP3    H232768   1.999   4.366   0.956
 3737TIP3   OH232769   2.177   4.884   7.535
 3737TIP3    H132770   2.161   4.820   7.465
 3737TIP3    H232771   2.105   4.947   7.526
 3738TIP3   OH232772   2.909   5.419   8.660
 3738TIP3    H132773   2.868   5.351   8.713
 3738TIP3    H232774   2.993   5.381   8.634
 3739TIP3   OH232775   1.351   6.294   6.703
 3739TIP3    H132776   1.413   6.312   6.633
 3739TIP3    H232777   1.334   6.380   6.742
 3740TIP3   OH232778   6.801   5.047   7.888
 3740TIP3    H132779   6.808   4.975   7.950
 3740TIP3    H232780   6.779   5.005   7.804
 3741TIP3   OH232781   0.664   1.508   0.947
 3741TIP3    H132782   0.728   1.467   1.005
 3741TIP3    H232783   0.687   1.475   0.859
 3742TIP3   OH232784   2.340   0.249   1.013
 3742TIP3    H132785   2.271   0.302   0.974
 3742TIP3    H232786   2.367   0.190   0.944
 3743TIP3   OH232787   1.186   5.942   0.456
 3743TIP3    H132788   1.164   5.987   0.375
 3743TIP3    H232789   1.207   6.012   0.518
 3744TIP3   OH232790   6.281   1.031   1.760
 3744TIP3    H132791   6.301   0.940   1.738
 3744TIP3    H232792   6.223   1.025   1.836
 3745TIP3   OH232793   4.847   5.798   0.952
 3745TIP3    H132794   4.841   5.893   0.964
 3745TIP3    H232795   4.941   5.779   0.953
 3746TIP3   OH232796   4.015   2.862   7.864
 3746TIP3    H132797   4.065   2.836   7.941
 3746TIP3    H232798   4.081   2.894   7.802
 3747TIP3   OH232799   3.135   3.488   7.875
 3747TIP3    H132800   3.146   3.438   7.794
 3747TIP3    H232801   3.191   3.565   7.863
 3748TIP3   OH232802   4.893   5.367   1.605
 3748TIP3    H132803   4.975   5.393   1.648
 3748TIP3    H232804   4.846   5.318   1.673
 3749TIP3   OH232805   6.038   2.414   0.166
 3749TIP3    H132806   6.030   2.321   0.148
 3749TIP3    H232807   5.971   2.455   0.111
 3750TIP3   OH232808   5.302   2.312   1.016
 3750TIP3    H132809   5.296   2.244   1.083
 3750TIP3    H232810   5.217   2.312   0.973
 3751TIP3   OH232811   5.027   4.303   7.734
 3751TIP3    H132812   5.116   4.276   7.715
 3751TIP3    H232813   5.019   4.390   7.695
 3752TIP3   OH232814   3.173   4.538   8.320
 3752TIP3    H132815   3.113   4.572   8.254
 3752TIP3    H232816   3.259   4.573   8.294
 3753TIP3   OH232817   5.064   6.077   7.818
 3753TIP3    H132818   5.041   6.017   7.889
 3753TIP3    H232819   5.121   6.142   7.858
 3754TIP3   OH232820   6.427   2.048   7.330
 3754TIP3    H132821   6.514   2.028   7.366
 3754TIP3    H232822   6.388   2.107   7.395
 3755TIP3   OH232823   3.183   5.595   7.121
 3755TIP3    H132824   3.208   5.576   7.030
 3755TIP3    H232825   3.175   5.510   7.162
 3756TIP3   OH232826   1.666   0.300   7.772
 3756TIP3    H132827   1.576   0.329   7.755
 3756TIP3    H232828   1.677   0.311   7.866
 3757TIP3   OH232829   4.787   1.038   0.734
 3757TIP3    H132830   4.804   1.109   0.797
 3757TIP3    H232831   4.764   0.963   0.788
 3758TIP3   OH232832   3.919   0.524   6.935
 3758TIP3    H132833   3.998   0.529   6.989
 3758TIP3    H232834   3.853   0.573   6.983
 3759TIP3   OH232835   3.802   4.073   7.365
 3759TIP3    H132836   3.823   4.017   7.440
 3759TIP3    H232837   3.858   4.041   7.295
 3760TIP3   OH232838   1.040   4.373   1.762
 3760TIP3    H132839   0.974   4.330   1.816
 3760TIP3    H232840   1.026   4.467   1.776
 3761TIP3   OH232841   1.386   6.040   1.359
 3761TIP3    H132842   1.293   6.025   1.373
 3761TIP3    H232843   1.390   6.088   1.276
 3762TIP3   OH232844   3.023   0.900   2.490
 3762TIP3    H132845   3.095   0.962   2.498
 3762TIP3    H232846   2.975   0.929   2.413
 3763TIP3   OH232847   0.668   4.875   8.839
 3763TIP3    H132848   0.589   4.865   8.784
 3763TIP3    H232849   0.740   4.865   8.777
 3764TIP3   OH232850   1.438   4.125   0.786
 3764TIP3    H132851   1.488   4.115   0.867
 3764TIP3    H232852   1.503   4.117   0.717
 3765TIP3   OH232853   1.329   2.043   7.315
 3765TIP3    H132854   1.276   1.986   7.260
 3765TIP3    H232855   1.334   2.126   7.267
 3766TIP3   OH232856   2.704   0.422   0.674
 3766TIP3    H132857   2.756   0.360   0.724
 3766TIP3    H232858   2.707   0.390   0.584
 3767TIP3   OH232859   0.057   6.045   7.905
 3767TIP3    H132860   0.100   6.073   7.825
 3767TIP3    H232861   0.105   5.967   7.933
 3768TIP3   OH232862   4.115   3.514   0.583
 3768TIP3    H132863   4.149   3.557   0.661
 3768TIP3    H232864   4.100   3.585   0.521
 3769TIP3   OH232865   3.258   1.022   2.409
 3769TIP3    H132866   3.351   1.026   2.427
 3769TIP3    H232867   3.229   1.113   2.410
 3770TIP3   OH232868   4.489   3.867   8.320
 3770TIP3    H132869   4.542   3.787   8.315
 3770TIP3    H232870   4.404   3.841   8.284
 3771TIP3   OH232871   0.996   6.345   8.689
 3771TIP3    H132872   0.935   6.310   8.754
 3771TIP3    H232873   1.081   6.343   8.731
 3772TIP3   OH232874   3.669   6.664   0.751
 3772TIP3    H132875   3.668   6.750   0.709
 3772TIP3    H232876   3.753   6.627   0.728
 3773TIP3   OH232877   3.283   2.639   1.300
 3773TIP3    H132878   3.362   2.678   1.264
 3773TIP3    H232879   3.225   2.713   1.318
 3774TIP3   OH232880   4.939   6.706   0.730
 3774TIP3    H132881   4.958   6.768   0.801
 3774TIP3    H232882   4.999   6.633   0.746
 3775TIP3   OH232883   4.355   5.059   8.413
 3775TIP3    H132884   4.411   5.016   8.478
 3775TIP3    H232885   4.284   5.098   8.465
 3776TIP3   OH232886   0.709   3.465   5.935
 3776TIP3    H132887   0.735   3.555   5.957
 3776TIP3    H232888   0.618   3.459   5.961
 3777TIP3   OH232889   4.388   1.380   1.800
 3777TIP3    H132890   4.402   1.332   1.882
 3777TIP3    H232891   4.442   1.333   1.736
 3778TIP3   OH232892   1.757   5.147   8.234
 3778TIP3    H132893   1.848   5.160   8.261
 3778TIP3    H232894   1.739   5.056   8.256
 3779TIP3   OH232895   4.492   3.535   1.515
 3779TIP3    H132896   4.412   3.550   1.465
 3779TIP3    H232897   4.490   3.600   1.585
 3780TIP3   OH232898   4.008   3.837   1.360
 3780TIP3    H132899   4.045   3.924   1.370
 3780TIP3    H232900   4.082   3.778   1.369
 3781TIP3   OH232901   3.064   5.128   1.170
 3781TIP3    H132902   3.006   5.158   1.240
 3781TIP3    H232903   3.144   5.178   1.183
 3782TIP3   OH232904   0.759   2.720   1.978
 3782TIP3    H132905   0.665   2.708   1.985
 3782TIP3    H232906   0.791   2.640   1.937
 3783TIP3   OH232907   4.126   3.939   0.244
 3783TIP3    H132908   4.082   4.022   0.265
 3783TIP3    H232909   4.078   3.905   0.168
 3784TIP3   OH232910   4.133   2.516   6.466
 3784TIP3    H132911   4.227   2.535   6.470
 3784TIP3    H232912   4.125   2.452   6.395
 3785TIP3   OH232913   5.862   0.010   7.727
 3785TIP3    H132914   5.880  -0.047   7.802
 3785TIP3    H232915   5.768   0.023   7.729
 3786TIP3   OH232916   4.620   4.068   8.750
 3786TIP3    H132917   4.690   4.083   8.814
 3786TIP3    H232918   4.625   3.974   8.731
 3787TIP3   OH232919   4.690   2.217   6.253
 3787TIP3    H132920   4.740   2.136   6.254
 3787TIP3    H232921   4.599   2.189   6.245
 3788TIP3   OH232922   1.087   3.765   8.767
 3788TIP3    H132923   1.031   3.727   8.834
 3788TIP3    H232924   1.065   3.717   8.687
 3789TIP3   OH232925   3.501   2.336   2.528
 3789TIP3    H132926   3.453   2.405   2.574
 3789TIP3    H232927   3.544   2.382   2.455
 3790TIP3   OH232928   5.318   0.440   6.309
 3790TIP3    H132929   5.397   0.389   6.326
 3790TIP3    H232930   5.248   0.376   6.302
 3791TIP3   OH232931   0.719   0.668   7.660
 3791TIP3    H132932   0.746   0.582   7.629
 3791TIP3    H232933   0.637   0.686   7.613
 3792TIP3   OH232934   0.390   5.646   8.263
 3792TIP3    H132935   0.427   5.735   8.268
 3792TIP3    H232936   0.303   5.655   8.304
 3793TIP3   OH232937   6.657   5.817   7.850
 3793TIP3    H132938   6.688   5.891   7.798
 3793TIP3    H232939   6.704   5.823   7.933
 3794TIP3   OH232940   4.726   4.825   8.392
 3794TIP3    H132941   4.641   4.841   8.350
 3794TIP3    H232942   4.782   4.896   8.361
 3795TIP3   OH232943   4.606   6.461   8.550
 3795TIP3    H132944   4.641   6.539   8.506
 3795TIP3    H232945   4.644   6.464   8.638
 3796TIP3   OH232946   4.066   0.272   0.162
 3796TIP3    H132947   4.071   0.359   0.201
 3796TIP3    H232948   4.093   0.284   0.071
 3797TIP3   OH232949   4.328   5.720   7.350
 3797TIP3    H132950   4.253   5.665   7.328
 3797TIP3    H232951   4.296   5.776   7.421
 3798TIP3   OH232952   5.437   1.820   1.544
 3798TIP3    H132953   5.477   1.839   1.629
 3798TIP3    H232954   5.456   1.727   1.529
 3799TIP3   OH232955   0.865   0.029   7.047
 3799TIP3    H132956   0.835   0.020   7.138
 3799TIP3    H232957   0.887   0.122   7.038
 3800TIP3   OH232958   3.710   0.461   8.375
 3800TIP3    H132959   3.692   0.540   8.425
 3800TIP3    H232960   3.735   0.493   8.288
 3801TIP3   OH232961   6.527   0.536   7.081
 3801TIP3    H132962   6.435   0.526   7.058
 3801TIP3    H232963   6.531   0.617   7.131
 3802TIP3   OH232964   3.817   1.013   2.127
 3802TIP3    H132965   3.872   1.015   2.049
 3802TIP3    H232966   3.850   1.084   2.182
 3803TIP3   OH232967   2.173   0.645   1.936
 3803TIP3    H132968   2.131   0.636   1.850
 3803TIP3    H232969   2.259   0.682   1.916
 3804TIP3   OH232970   3.401   0.127   7.246
 3804TIP3    H132971   3.440   0.084   7.322
 3804TIP3    H232972   3.388   0.057   7.182
 3805TIP3   OH232973   1.527   3.587   1.971
 3805TIP3    H132974   1.541   3.493   1.975
 3805TIP3    H232975   1.445   3.597   1.923
 3806TIP3   OH232976   2.256   6.415   6.878
 3806TIP3    H132977   2.281   6.421   6.970
 3806TIP3    H232978   2.308   6.482   6.835
 3807TIP3   OH232979   5.017   0.785   8.753
 3807TIP3    H132980   5.018   0.880   8.755
 3807TIP3    H232981   5.107   0.760   8.735
 3808TIP3   OH232982   6.628   4.920   1.841
 3808TIP3    H132983   6.682   4.905   1.919
 3808TIP3    H232984   6.685   4.896   1.768
 3809TIP3   OH232985   5.541   0.803   8.293
 3809TIP3    H132986   5.534   0.843   8.380
 3809TIP3    H232987   5.541   0.709   8.309
 3810TIP3   OH232988   1.239   4.001   0.033
 3810TIP3    H132989   1.200   3.913   0.033
 3810TIP3    H232990   1.164   4.060   0.032
 3811TIP3   OH232991   2.297   4.734   6.765
 3811TIP3    H132992   2.207   4.718   6.794
 3811TIP3    H232993   2.350   4.722   6.844
 3812TIP3   OH232994   0.122   2.500   6.380
 3812TIP3    H132995   0.213   2.487   6.407
 3812TIP3    H232996   0.111   2.595   6.377
 3813TIP3   OH232997   0.348   0.842   1.844
 3813TIP3    H132998   0.334   0.800   1.760
 3813TIP3    H232999   0.358   0.770   1.906
 3814TIP3   OH233000   5.774   6.530   6.734
 3814TIP3    H133001   5.754   6.492   6.648
 3814TIP3    H233002   5.779   6.624   6.718
 3815TIP3   OH233003   3.806   3.590   7.381
 3815TIP3    H133004   3.825   3.611   7.290
 3815TIP3    H233005   3.761   3.505   7.377
 3816TIP3   OH233006   4.603   3.713   7.031
 3816TIP3    H133007   4.577   3.629   7.070
 3816TIP3    H233008   4.613   3.695   6.938
 3817TIP3   OH233009   1.732   3.246   8.385
 3817TIP3    H133010   1.750   3.268   8.477
 3817TIP3    H233011   1.715   3.152   8.387
 3818TIP3   OH233012   5.255   4.475   2.118
 3818TIP3    H133013   5.323   4.521   2.167
 3818TIP3    H233014   5.175   4.524   2.136
 3819TIP3   OH233015   1.371   0.195   7.739
 3819TIP3    H133016   1.344   0.161   7.654
 3819TIP3    H233017   1.349   0.126   7.802
 3820TIP3   OH233018   5.087   2.124   8.364
 3820TIP3    H133019   5.169   2.150   8.322
 3820TIP3    H233020   5.023   2.122   8.293
 3821TIP3   OH233021   5.933   5.327   0.656
 3821TIP3    H133022   5.898   5.410   0.623
 3821TIP3    H233023   5.857   5.269   0.660
 3822TIP3   OH233024   4.367   0.441   8.580
 3822TIP3    H133025   4.313   0.470   8.506
 3822TIP3    H233026   4.370   0.516   8.638
 3823TIP3   OH233027   5.203   3.304   0.580
 3823TIP3    H133028   5.177   3.271   0.493
 3823TIP3    H233029   5.128   3.285   0.636
 3824TIP3   OH233030   5.568   3.873   1.437
 3824TIP3    H133031   5.594   3.792   1.394
 3824TIP3    H233032   5.489   3.849   1.486
 3825TIP3   OH233033   0.013   1.374   1.355
 3825TIP3    H133034   0.030   1.461   1.319
 3825TIP3    H233035  -0.077   1.355   1.328
 3826TIP3   OH233036   3.640   2.166   6.634
 3826TIP3    H133037   3.683   2.235   6.684
 3826TIP3    H233038   3.573   2.212   6.583
 3827TIP3   OH233039   4.908   5.691   7.724
 3827TIP3    H133040   4.999   5.713   7.746
 3827TIP3    H233041   4.893   5.606   7.766
 3828TIP3   OH233042   1.206   1.448   8.833
 3828TIP3    H133043   1.239   1.397   8.908
 3828TIP3    H233044   1.283   1.465   8.780
 3829TIP3   OH233045   3.527   3.188   2.128
 3829TIP3    H133046   3.621   3.169   2.118
 3829TIP3    H233047   3.485   3.104   2.113
 3830TIP3   OH233048   3.694   0.682   8.572
 3830TIP3    H133049   3.775   0.673   8.622
 3830TIP3    H233050   3.710   0.754   8.512
 3831TIP3   OH233051   6.647   0.406   0.191
 3831TIP3    H133052   6.582   0.351   0.147
 3831TIP3    H233053   6.710   0.429   0.123
 3832TIP3   OH233054   6.577   3.587   1.362
 3832TIP3    H133055   6.587   3.496   1.333
 3832TIP3    H233056   6.619   3.590   1.448
 3833TIP3   OH233057   6.025   6.421   6.798
 3833TIP3    H133058   6.016   6.347   6.857
 3833TIP3    H233059   5.936   6.455   6.788
 3834TIP3   OH233060   3.464   5.625   0.009
 3834TIP3    H133061   3.452   5.688   0.080
 3834TIP3    H233062   3.520   5.670  -0.054
 3835TIP3   OH233063   6.590   1.879   1.521
 3835TIP3    H133064   6.644   1.957   1.510
 3835TIP3    H233065   6.500   1.910   1.509
 3836TIP3   OH233066   0.601   1.850   0.191
 3836TIP3    H133067   0.642   1.850   0.105
 3836TIP3    H233068   0.674   1.838   0.252
 3837TIP3   OH233069   0.166   4.866   0.102
 3837TIP3    H133070   0.204   4.846   0.016
 3837TIP3    H233071   0.150   4.781   0.142
 3838TIP3   OH233072   5.680   2.767   1.044
 3838TIP3    H133073   5.609   2.809   0.996
 3838TIP3    H233074   5.644   2.682   1.071
 3839TIP3   OH233075   1.190   4.500   8.167
 3839TIP3    H133076   1.115   4.449   8.136
 3839TIP3    H233077   1.238   4.523   8.087
 3840TIP3   OH233078   6.622   5.000   0.519
 3840TIP3    H133079   6.583   4.914   0.532
 3840TIP3    H233080   6.549   5.057   0.495
 3841TIP3   OH233081   1.125   0.527   0.309
 3841TIP3    H133082   1.102   0.435   0.320
 3841TIP3    H233083   1.050   0.565   0.262
 3842TIP3   OH233084   1.080   0.674   1.992
 3842TIP3    H133085   1.161   0.642   2.031
 3842TIP3    H233086   1.105   0.753   1.944
 3843TIP3   OH233087   4.170   2.957   7.672
 3843TIP3    H133088   4.209   2.875   7.640
 3843TIP3    H233089   4.132   2.997   7.595
 3844TIP3   OH233090   0.453   6.627   0.237
 3844TIP3    H133091   0.378   6.573   0.214
 3844TIP3    H233092   0.482   6.665   0.154
 3845TIP3   OH233093   6.148   1.558   2.398
 3845TIP3    H133094   6.122   1.480   2.448
 3845TIP3    H233095   6.243   1.559   2.403
 3846TIP3   OH233096   6.496   4.028   6.191
 3846TIP3    H133097   6.561   3.970   6.151
 3846TIP3    H233098   6.498   4.006   6.284
 3847TIP3   OH233099   5.831   5.277   2.541
 3847TIP3    H133100   5.744   5.272   2.581
 3847TIP3    H233101   5.836   5.201   2.483
 3848TIP3   OH233102   4.089   2.987   1.505
 3848TIP3    H133103   4.072   3.050   1.576
 3848TIP3    H233104   4.179   3.004   1.479
 3849TIP3   OH233105   2.059   4.303   8.709
 3849TIP3    H133106   2.084   4.395   8.721
 3849TIP3    H233107   2.087   4.260   8.791
 3850TIP3   OH233108   3.281   0.581   7.857
 3850TIP3    H133109   3.196   0.596   7.899
 3850TIP3    H233110   3.301   0.490   7.877
 3851TIP3   OH233111   4.354   1.458   6.891
 3851TIP3    H133112   4.295   1.435   6.819
 3851TIP3    H233113   4.297   1.464   6.967
 3852TIP3   OH233114   6.314   6.008   2.642
 3852TIP3    H133115   6.362   6.044   2.567
 3852TIP3    H233116   6.222   6.025   2.623
 3853TIP3   OH233117   6.145   5.703   0.363
 3853TIP3    H133118   6.204   5.674   0.432
 3853TIP3    H233119   6.185   5.782   0.328
 3854TIP3   OH233120   4.434   5.566   8.323
 3854TIP3    H133121   4.428   5.555   8.418
 3854TIP3    H233122   4.353   5.528   8.289
 3855TIP3   OH233123   4.627   6.135   7.321
 3855TIP3    H133124   4.670   6.061   7.280
 3855TIP3    H233125   4.611   6.197   7.250
 3856TIP3   OH233126   5.876   1.407   7.902
 3856TIP3    H133127   5.953   1.376   7.854
 3856TIP3    H233128   5.872   1.501   7.882
 3857TIP3   OH233129   2.948   4.379   1.327
 3857TIP3    H133130   2.923   4.309   1.266
 3857TIP3    H233131   2.896   4.362   1.405
 3858TIP3   OH233132   4.516   1.841   8.203
 3858TIP3    H133133   4.429   1.845   8.165
 3858TIP3    H233134   4.550   1.755   8.178
 3859TIP3   OH233135   3.631   2.494   1.334
 3859TIP3    H133136   3.569   2.559   1.298
 3859TIP3    H233137   3.579   2.414   1.343
 3860TIP3   OH233138   5.709   1.574   7.378
 3860TIP3    H133139   5.778   1.624   7.336
 3860TIP3    H233140   5.755   1.507   7.428
 3861TIP3   OH233141   1.752   1.902   0.470
 3861TIP3    H133142   1.683   1.862   0.524
 3861TIP3    H233143   1.733   1.872   0.381
 3862TIP3   OH233144   6.120   5.171   1.409
 3862TIP3    H133145   6.167   5.253   1.393
 3862TIP3    H233146   6.146   5.145   1.497
 3863TIP3   OH233147   0.137   0.356   0.621
 3863TIP3    H133148   0.156   0.363   0.527
 3863TIP3    H233149   0.182   0.431   0.660
 3864TIP3   OH233150   2.948   3.136   7.027
 3864TIP3    H133151   2.974   3.168   7.113
 3864TIP3    H233152   2.994   3.193   6.965
 3865TIP3   OH233153   0.287   0.697   1.634
 3865TIP3    H133154   0.296   0.615   1.681
 3865TIP3    H233155   0.221   0.679   1.566
 3866TIP3   OH233156   2.681   6.575   1.381
 3866TIP3    H133157   2.601   6.526   1.362
 3866TIP3    H233158   2.667   6.661   1.340
 3867TIP3   OH233159   3.809   1.201   7.194
 3867TIP3    H133160   3.864   1.162   7.126
 3867TIP3    H233161   3.722   1.163   7.181
 3868TIP3   OH233162   1.351   5.520   8.474
 3868TIP3    H133163   1.308   5.470   8.404
 3868TIP3    H233164   1.285   5.583   8.503
 3869TIP3   OH233165   3.194   2.950   7.615
 3869TIP3    H133166   3.169   2.933   7.524
 3869TIP3    H233167   3.173   2.868   7.660
 3870TIP3   OH233168   4.723   2.421   0.937
 3870TIP3    H133169   4.738   2.486   1.006
 3870TIP3    H233170   4.634   2.389   0.953
 3871TIP3   OH233171   1.571   6.150   7.868
 3871TIP3    H133172   1.638   6.197   7.818
 3871TIP3    H233173   1.519   6.220   7.909
 3872TIP3   OH233174   5.765   4.072   7.542
 3872TIP3    H133175   5.768   3.981   7.512
 3872TIP3    H233176   5.672   4.094   7.541
 3873TIP3   OH233177   0.124   2.627   1.484
 3873TIP3    H133178   0.098   2.546   1.440
 3873TIP3    H233179   0.046   2.652   1.535
 3874TIP3   OH233180   6.077   3.569   8.185
 3874TIP3    H133181   6.028   3.487   8.193
 3874TIP3    H233182   6.089   3.581   8.090
 3875TIP3   OH233183   3.289   0.620   8.331
 3875TIP3    H133184   3.330   0.646   8.249
 3875TIP3    H233185   3.214   0.566   8.304
 3876TIP3   OH233186   5.126   2.717   8.079
 3876TIP3    H133187   5.045   2.744   8.121
 3876TIP3    H233188   5.105   2.635   8.035
 3877TIP3   OH233189   0.037   0.463   1.001
 3877TIP3    H133190  -0.010   0.480   0.920
 3877TIP3    H233191   0.128   0.450   0.974
 3878TIP3   OH233192   5.249   0.089   1.800
 3878TIP3    H133193   5.253   0.109   1.893
 3878TIP3    H233194   5.340   0.075   1.774
 3879TIP3   OH233195   2.713   4.356   6.576
 3879TIP3    H133196   2.795   4.400   6.597
 3879TIP3    H233197   2.733   4.263   6.585
 3880TIP3   OH233198   3.610   1.787   1.747
 3880TIP3    H133199   3.530   1.777   1.696
 3880TIP3    H233200   3.585   1.841   1.822
 3881TIP3   OH233201   0.594   1.370   8.596
 3881TIP3    H133202   0.547   1.429   8.537
 3881TIP3    H233203   0.661   1.426   8.637
 3882TIP3   OH233204   5.024   2.440   6.109
 3882TIP3    H133205   5.015   2.384   6.031
 3882TIP3    H233206   5.100   2.405   6.154
 3883TIP3   OH233207   3.473   5.491   1.961
 3883TIP3    H133208   3.531   5.535   2.024
 3883TIP3    H233209   3.533   5.448   1.900
 3884TIP3   OH233210   1.754   3.511   2.375
 3884TIP3    H133211   1.696   3.576   2.335
 3884TIP3    H233212   1.830   3.561   2.405
 3885TIP3   OH233213   5.952   0.178   1.042
 3885TIP3    H133214   5.952   0.272   1.026
 3885TIP3    H233215   5.864   0.158   1.073
 3886TIP3   OH233216   0.919   5.123   1.300
 3886TIP3    H133217   0.993   5.086   1.348
 3886TIP3    H233218   0.959   5.168   1.226
 3887TIP3   OH233219   6.082   4.061   7.855
 3887TIP3    H133220   6.033   4.141   7.834
 3887TIP3    H233221   6.023   4.012   7.912
 3888TIP3   OH233222   1.497   4.673   0.714
 3888TIP3    H133223   1.480   4.705   0.803
 3888TIP3    H233224   1.418   4.695   0.665
 3889TIP3   OH233225   0.100   5.485   7.317
 3889TIP3    H133226   0.163   5.424   7.279
 3889TIP3    H233227   0.152   5.562   7.340
 3890TIP3   OH233228   4.895   2.269   7.776
 3890TIP3    H133229   4.861   2.342   7.724
 3890TIP3    H233230   4.843   2.271   7.856
 3891TIP3   OH233231   4.897   2.123   8.149
 3891TIP3    H133232   4.967   2.152   8.091
 3891TIP3    H233233   4.821   2.113   8.091
 3892TIP3   OH233234   3.401   5.219   6.846
 3892TIP3    H133235   3.438   5.163   6.778
 3892TIP3    H233236   3.412   5.169   6.927
 3893TIP3   OH233237   3.934   0.852   7.974
 3893TIP3    H133238   3.858   0.865   7.917
 3893TIP3    H233239   3.999   0.914   7.941
 3894TIP3   OH233240   0.500   2.618   8.109
 3894TIP3    H133241   0.594   2.600   8.112
 3894TIP3    H233242   0.482   2.670   8.188
 3895TIP3   OH233243   5.609   3.824   0.607
 3895TIP3    H133244   5.647   3.904   0.570
 3895TIP3    H233245   5.515   3.832   0.590
 3896TIP3   OH233246   6.252   0.542   7.065
 3896TIP3    H133247   6.186   0.539   7.134
 3896TIP3    H233248   6.223   0.612   7.007
 3897TIP3   OH233249   3.138   3.392   8.136
 3897TIP3    H133250   3.148   3.439   8.053
 3897TIP3    H233251   3.046   3.363   8.136
 3898TIP3   OH233252   0.199   1.007   7.552
 3898TIP3    H133253   0.259   1.079   7.572
 3898TIP3    H233254   0.229   0.934   7.606
 3899TIP3   OH233255   5.209   2.123   0.295
 3899TIP3    H133256   5.168   2.087   0.374
 3899TIP3    H233257   5.231   2.213   0.319
 3900TIP3   OH233258   3.432   2.934   6.936
 3900TIP3    H133259   3.401   3.003   6.877
 3900TIP3    H233260   3.398   2.957   7.022
 3901TIP3   OH233261   0.005   6.381   8.698
 3901TIP3    H133262  -0.004   6.296   8.655
 3901TIP3    H233263   0.096   6.384   8.728
 3902TIP3   OH233264   3.805   3.106   0.797
 3902TIP3    H133265   3.830   3.086   0.707
 3902TIP3    H233266   3.717   3.142   0.790
 3903TIP3   OH233267   6.083   3.148   6.603
 3903TIP3    H133268   6.056   3.235   6.630
 3903TIP3    H233269   6.102   3.102   6.685
 3904TIP3   OH233270   0.237   0.104   1.608
 3904TIP3    H133271   0.160   0.079   1.555
 3904TIP3    H233272   0.222   0.061   1.692
 3905TIP3   OH233273   3.094   6.678   1.051
 3905TIP3    H133274   3.117   6.770   1.048
 3905TIP3    H233275   3.021   6.673   1.113
 3906TIP3   OH233276   4.496   4.329   6.948
 3906TIP3    H133277   4.434   4.300   7.015
 3906TIP3    H233278   4.582   4.307   6.984
 3907TIP3   OH233279   4.387   6.301   8.303
 3907TIP3    H133280   4.354   6.247   8.374
 3907TIP3    H233281   4.466   6.255   8.272
 3908TIP3   OH233282   3.050   0.659   7.995
 3908TIP3    H133283   3.068   0.690   8.084
 3908TIP3    H233284   2.978   0.596   8.006
 3909TIP3   OH233285   1.810   1.606   0.580
 3909TIP3    H133286   1.891   1.644   0.614
 3909TIP3    H233287   1.838   1.522   0.543
 3910TIP3   OH233288   3.696   2.114   7.709
 3910TIP3    H133289   3.643   2.183   7.671
 3910TIP3    H233290   3.681   2.122   7.804
 3911TIP3   OH233291   3.026   2.888   7.936
 3911TIP3    H133292   2.982   2.953   7.990
 3911TIP3    H233293   2.956   2.830   7.906
 3912TIP3   OH233294   3.601   6.414   7.738
 3912TIP3    H133295   3.603   6.487   7.677
 3912TIP3    H233296   3.568   6.340   7.687
 3913TIP3   OH233297   5.961   1.537   6.768
 3913TIP3    H133298   5.898   1.560   6.837
 3913TIP3    H233299   6.019   1.613   6.762
 3914TIP3   OH233300   4.008   5.018   8.632
 3914TIP3    H133301   3.942   5.042   8.567
 3914TIP3    H233302   4.078   5.083   8.619
 3915TIP3   OH233303   6.483   2.034   6.902
 3915TIP3    H133304   6.569   2.073   6.919
 3915TIP3    H233305   6.434   2.048   6.983
 3916TIP3   OH233306   4.179   0.682   1.379
 3916TIP3    H133307   4.233   0.746   1.332
 3916TIP3    H233308   4.223   0.672   1.463
 3917TIP3   OH233309   3.921   6.384   7.482
 3917TIP3    H133310   3.920   6.365   7.388
 3917TIP3    H233311   4.002   6.344   7.514
 3918TIP3   OH233312   2.915   0.991   6.509
 3918TIP3    H133313   2.936   0.907   6.548
 3918TIP3    H233314   2.942   1.056   6.574
 3919TIP3   OH233315   0.088   3.520   7.019
 3919TIP3    H133316   0.060   3.552   7.104
 3919TIP3    H233317   0.161   3.577   6.994
 3920TIP3   OH233318   3.101   1.190   8.525
 3920TIP3    H133319   3.125   1.260   8.585
 3920TIP3    H233320   3.078   1.116   8.581
 3921TIP3   OH233321   2.235   4.132   1.749
 3921TIP3    H133322   2.245   4.076   1.826
 3921TIP3    H233323   2.193   4.076   1.684
 3922TIP3   OH233324   3.480   2.943   7.374
 3922TIP3    H133325   3.421   2.877   7.412
 3922TIP3    H233326   3.437   2.970   7.293
 3923TIP3   OH233327   1.170   2.939   1.281
 3923TIP3    H133328   1.152   2.855   1.239
 3923TIP3    H233329   1.088   2.988   1.271
 3924TIP3   OH233330   2.781   2.438   8.781
 3924TIP3    H133331   2.731   2.414   8.703
 3924TIP3    H233332   2.857   2.484   8.746
 3925TIP3   OH233333   0.149   1.929   0.345
 3925TIP3    H133334   0.195   1.892   0.421
 3925TIP3    H233335   0.174   1.874   0.272
 3926TIP3   OH233336   0.155   6.678   8.632
 3926TIP3    H133337   0.156   6.697   8.538
 3926TIP3    H233338   0.065   6.694   8.659
 3927TIP3   OH233339   4.587   0.267   8.264
 3927TIP3    H133340   4.495   0.249   8.248
 3927TIP3    H233341   4.587   0.349   8.315
 3928TIP3   OH233342   1.325   4.464   6.489
 3928TIP3    H133343   1.416   4.444   6.508
 3928TIP3    H233344   1.329   4.541   6.432
 3929TIP3   OH233345   5.229   3.608   0.240
 3929TIP3    H133346   5.297   3.548   0.270
 3929TIP3    H233347   5.147   3.565   0.265
 3930TIP3   OH233348   6.689   0.454   0.741
 3930TIP3    H133349   6.779   0.426   0.723
 3930TIP3    H233350   6.691   0.549   0.731
 3931TIP3   OH233351   2.919   6.519   8.181
 3931TIP3    H133352   2.850   6.453   8.184
 3931TIP3    H233353   2.875   6.599   8.151
 3932TIP3   OH233354   2.208   3.328   0.852
 3932TIP3    H133355   2.294   3.310   0.812
 3932TIP3    H233356   2.166   3.388   0.791
 3933TIP3   OH233357   0.148   4.912   6.312
 3933TIP3    H133358   0.096   4.944   6.239
 3933TIP3    H233359   0.086   4.905   6.384
 3934TIP3   OH233360   0.600   4.403   0.720
 3934TIP3    H133361   0.537   4.331   0.722
 3934TIP3    H233362   0.561   4.467   0.659
 3935TIP3   OH233363   3.573   2.752   0.727
 3935TIP3    H133364   3.495   2.756   0.782
 3935TIP3    H233365   3.555   2.680   0.666
 3936TIP3   OH233366   6.737   0.682   8.611
 3936TIP3    H133367   6.794   0.635   8.551
 3936TIP3    H233368   6.661   0.708   8.558
 3937TIP3   OH233369   0.918   3.050   1.328
 3937TIP3    H133370   0.873   3.113   1.384
 3937TIP3    H233371   0.851   3.022   1.266
 3938TIP3   OH233372   1.333   4.604   0.307
 3938TIP3    H133373   1.417   4.639   0.275
 3938TIP3    H233374   1.344   4.509   0.304
 3939TIP3   OH233375   1.688   2.853   8.293
 3939TIP3    H133376   1.604   2.840   8.250
 3939TIP3    H233377   1.747   2.882   8.224
 3940TIP3   OH233378   0.247   0.652   0.094
 3940TIP3    H133379   0.248   0.625   0.186
 3940TIP3    H233380   0.186   0.591   0.052
 3941TIP3   OH233381   2.613   0.289   0.103
 3941TIP3    H133382   2.675   0.275   0.031
 3941TIP3    H233383   2.578   0.202   0.120
 3942TIP3   OH233384   5.810   3.715   0.980
 3942TIP3    H133385   5.882   3.694   0.921
 3942TIP3    H233386   5.732   3.711   0.925
 3943TIP3   OH233387   1.962   2.161   7.250
 3943TIP3    H133388   1.972   2.253   7.272
 3943TIP3    H233389   1.932   2.119   7.331
 3944TIP3   OH233390   4.361   1.388   0.803
 3944TIP3    H133391   4.396   1.344   0.726
 3944TIP3    H233392   4.295   1.448   0.768
 3945TIP3   OH233393   2.082   5.224   7.280
 3945TIP3    H133394   2.037   5.162   7.338
 3945TIP3    H233395   2.045   5.207   7.193
 3946TIP3   OH233396   3.841   4.546   6.728
 3946TIP3    H133397   3.844   4.642   6.726
 3946TIP3    H233398   3.848   4.521   6.636
 3947TIP3   OH233399   5.549   3.162   8.832
 3947TIP3    H133400   5.487   3.207   8.888
 3947TIP3    H233401   5.625   3.220   8.827
 3948TIP3   OH233402   5.828   1.867   1.156
 3948TIP3    H133403   5.871   1.913   1.084
 3948TIP3    H233404   5.872   1.899   1.235
 3949TIP3   OH233405   6.403   1.111   7.283
 3949TIP3    H133406   6.317   1.099   7.244
 3949TIP3    H233407   6.454   1.158   7.216
 3950TIP3   OH233408   5.304   3.590   6.549
 3950TIP3    H133409   5.218   3.628   6.527
 3950TIP3    H233410   5.367   3.644   6.502
 3951TIP3   OH233411   5.519   1.655   2.523
 3951TIP3    H133412   5.563   1.577   2.556
 3951TIP3    H233413   5.485   1.698   2.602
 3952TIP3   OH233414   6.322   3.737   1.837
 3952TIP3    H133415   6.288   3.743   1.926
 3952TIP3    H233416   6.292   3.817   1.794
 3953TIP3   OH233417   6.342   1.969   1.469
 3953TIP3    H133418   6.303   2.035   1.526
 3953TIP3    H233419   6.267   1.927   1.427
 3954TIP3   OH233420   3.783   2.703   1.500
 3954TIP3    H133421   3.828   2.752   1.569
 3954TIP3    H233422   3.722   2.766   1.462
 3955TIP3   OH233423   1.388   0.459   8.791
 3955TIP3    H133424   1.481   0.448   8.812
 3955TIP3    H233425   1.386   0.530   8.727
 3956TIP3   OH233426   5.881   2.033   0.942
 3956TIP3    H133427   5.974   2.054   0.936
 3956TIP3    H233428   5.836   2.110   0.908
 3957TIP3   OH233429   2.441   6.580   0.083
 3957TIP3    H133430   2.400   6.619   0.006
 3957TIP3    H233431   2.526   6.548   0.051
 3958TIP3   OH233432   5.179   2.010   2.111
 3958TIP3    H133433   5.221   1.934   2.150
 3958TIP3    H233434   5.127   1.974   2.038
 3959TIP3   OH233435   2.046   1.844   8.381
 3959TIP3    H133436   2.103   1.865   8.455
 3959TIP3    H233437   2.029   1.750   8.388
 3960TIP3   OH233438   5.743   3.262   6.655
 3960TIP3    H133439   5.831   3.299   6.663
 3960TIP3    H233440   5.689   3.334   6.622
 3961TIP3   OH233441   0.823   5.902   1.324
 3961TIP3    H133442   0.728   5.906   1.313
 3961TIP3    H233443   0.836   5.916   1.418
 3962TIP3   OH233444   0.320   0.087   8.676
 3962TIP3    H133445   0.284  -0.002   8.676
 3962TIP3    H233446   0.251   0.141   8.638
 3963TIP3   OH233447   0.919   1.827   6.709
 3963TIP3    H133448   1.005   1.830   6.668
 3963TIP3    H233449   0.857   1.828   6.636
 3964TIP3   OH233450   3.327   5.474   6.928
 3964TIP3    H133451   3.365   5.506   6.846
 3964TIP3    H233452   3.339   5.379   6.925
 3965TIP3   OH233453   3.342   2.585   0.951
 3965TIP3    H133454   3.305   2.673   0.963
 3965TIP3    H233455   3.296   2.550   0.874
 3966TIP3   OH233456   4.418   4.902   0.358
 3966TIP3    H133457   4.358   4.871   0.289
 3966TIP3    H233458   4.489   4.945   0.310
 3967TIP3   OH233459   3.252   5.598   2.129
 3967TIP3    H133460   3.295   5.549   2.059
 3967TIP3    H233461   3.296   5.683   2.129
 3968TIP3   OH233462   3.821   2.464   8.503
 3968TIP3    H133463   3.832   2.554   8.531
 3968TIP3    H233464   3.833   2.466   8.408
 3969TIP3   OH233465   3.302   3.843   7.118
 3969TIP3    H133466   3.217   3.799   7.126
 3969TIP3    H233467   3.354   3.808   7.191
 3970TIP3   OH233468   0.616   1.164   6.603
 3970TIP3    H133469   0.685   1.203   6.656
 3970TIP3    H233470   0.637   1.188   6.513
 3971TIP3   OH233471   4.176   0.648   8.774
 3971TIP3    H133472   4.268   0.671   8.757
 3971TIP3    H233473   4.168   0.559   8.741
 3972TIP3   OH233474   6.033   1.744   0.684
 3972TIP3    H133475   6.020   1.659   0.726
 3972TIP3    H233476   5.947   1.766   0.647
 3973TIP3   OH233477   5.426   0.616   7.859
 3973TIP3    H133478   5.394   0.577   7.940
 3973TIP3    H233479   5.459   0.702   7.886
 3974TIP3   OH233480   4.890   5.100   0.612
 3974TIP3    H133481   4.824   5.031   0.600
 3974TIP3    H233482   4.903   5.105   0.707
 3975TIP3   OH233483   5.122   5.670   0.622
 3975TIP3    H133484   5.083   5.651   0.537
 3975TIP3    H233485   5.177   5.593   0.641
 3976TIP3   OH233486   5.604   0.146   8.699
 3976TIP3    H133487   5.560   0.200   8.765
 3976TIP3    H233488   5.545   0.147   8.624
 3977TIP3   OH233489   4.160   0.549   0.211
 3977TIP3    H133490   4.182   0.583   0.124
 3977TIP3    H233491   4.245   0.534   0.253
 3978TIP3   OH233492   3.374   1.628   7.606
 3978TIP3    H133493   3.296   1.576   7.586
 3978TIP3    H233494   3.393   1.609   7.697
 3979TIP3   OH233495   6.584   4.673   0.203
 3979TIP3    H133496   6.554   4.745   0.147
 3979TIP3    H233497   6.647   4.625   0.149
 3980TIP3   OH233498   5.138   5.351   7.164
 3980TIP3    H133499   5.160   5.403   7.087
 3980TIP3    H233500   5.050   5.317   7.146
 3981TIP3   OH233501   0.800   0.610   0.950
 3981TIP3    H133502   0.842   0.627   0.866
 3981TIP3    H233503   0.867   0.564   1.001
 3982TIP3   OH233504   1.522   3.495   1.120
 3982TIP3    H133505   1.472   3.418   1.148
 3982TIP3    H233506   1.545   3.476   1.029
 3983TIP3   OH233507   2.492   1.556   0.930
 3983TIP3    H133508   2.458   1.561   1.019
 3983TIP3    H233509   2.511   1.463   0.917
 3984TIP3   OH233510   3.482   4.139   2.045
 3984TIP3    H133511   3.458   4.230   2.064
 3984TIP3    H233512   3.527   4.143   1.961
 3985TIP3   OH233513   4.863   4.944   2.345
 3985TIP3    H133514   4.859   4.988   2.430
 3985TIP3    H233515   4.949   4.902   2.344
 3986TIP3   OH233516   3.822   2.883   0.358
 3986TIP3    H133517   3.788   2.884   0.447
 3986TIP3    H233518   3.744   2.879   0.303
 3987TIP3   OH233519   2.359   2.156   7.861
 3987TIP3    H133520   2.360   2.117   7.948
 3987TIP3    H233521   2.348   2.249   7.876
 3988TIP3   OH233522   4.302   6.625   8.814
 3988TIP3    H133523   4.249   6.641   8.735
 3988TIP3    H233524   4.312   6.530   8.817
 3989TIP3   OH233525   2.378   1.249   6.830
 3989TIP3    H133526   2.371   1.181   6.762
 3989TIP3    H233527   2.444   1.215   6.891
 3990TIP3   OH233528   3.028   6.469   0.283
 3990TIP3    H133529   3.063   6.551   0.250
 3990TIP3    H233530   2.989   6.491   0.368
 3991TIP3   OH233531   3.882   0.776   1.919
 3991TIP3    H133532   3.830   0.700   1.944
 3991TIP3    H233533   3.817   0.840   1.888
 3992TIP3   OH233534   2.910   6.396   1.457
 3992TIP3    H133535   2.898   6.406   1.551
 3992TIP3    H233536   2.824   6.415   1.419
 3993TIP3   OH233537   3.078   4.253   8.182
 3993TIP3    H133538   3.039   4.282   8.264
 3993TIP3    H233539   3.172   4.262   8.196
 3994TIP3   OH233540   4.002   6.106   2.290
 3994TIP3    H133541   3.950   6.156   2.227
 3994TIP3    H233542   4.092   6.136   2.275
 3995TIP3   OH233543   6.277   2.005   1.088
 3995TIP3    H133544   6.366   1.973   1.083
 3995TIP3    H233545   6.226   1.943   1.035
 3996TIP3   OH233546   4.389   2.528   8.057
 3996TIP3    H133547   4.395   2.492   7.969
 3996TIP3    H233548   4.338   2.462   8.106
 3997TIP3   OH233549   0.683   1.645   6.879
 3997TIP3    H133550   0.711   1.624   6.790
 3997TIP3    H233551   0.664   1.739   6.877
 3998TIP3   OH233552   2.492   6.027   7.817
 3998TIP3    H133553   2.562   6.093   7.813
 3998TIP3    H233554   2.454   6.027   7.730
 3999TIP3   OH233555   1.405   2.753   1.054
 3999TIP3    H133556   1.325   2.704   1.036
 3999TIP3    H233557   1.472   2.710   1.001
 4000TIP3   OH233558   5.849   3.994   0.726
 4000TIP3    H133559   5.929   4.032   0.690
 4000TIP3    H233560   5.781   4.017   0.664
 4001TIP3   OH233561   5.065   4.325   8.774
 4001TIP3    H133562   5.069   4.411   8.730
 4001TIP3    H233563   5.020   4.343   8.856
 4002TIP3   OH233564   5.762   5.399   8.723
 4002TIP3    H133565   5.820   5.415   8.798
 4002TIP3    H233566   5.758   5.483   8.678
 4003TIP3   OH233567   1.421   3.155   6.902
 4003TIP3    H133568   1.325   3.161   6.907
 4003TIP3    H233569   1.442   3.076   6.951
 4004TIP3   OH233570   5.600   2.739   8.087
 4004TIP3    H133571   5.519   2.708   8.129
 4004TIP3    H233572   5.577   2.827   8.055
 4005TIP3   OH233573   0.546   2.901   6.303
 4005TIP3    H133574   0.627   2.850   6.302
 4005TIP3    H233575   0.516   2.900   6.212
 4006TIP3   OH233576   2.315   2.345   1.230
 4006TIP3    H133577   2.249   2.403   1.192
 4006TIP3    H233578   2.362   2.400   1.293
 4007TIP3   OH233579   0.531   3.553   0.768
 4007TIP3    H133580   0.490   3.498   0.834
 4007TIP3    H233581   0.610   3.505   0.742
 4008TIP3   OH233582   0.165   2.012   1.404
 4008TIP3    H133583   0.118   1.983   1.482
 4008TIP3    H233584   0.111   2.082   1.368
 4009TIP3   OH233585   2.148   5.906   6.926
 4009TIP3    H133586   2.180   5.900   7.016
 4009TIP3    H233587   2.190   5.985   6.891
 4010TIP3   OH233588   3.627   5.360   1.162
 4010TIP3    H133589   3.641   5.416   1.238
 4010TIP3    H233590   3.549   5.395   1.119
 4011TIP3   OH233591   0.334   2.929   8.023
 4011TIP3    H133592   0.295   2.967   7.944
 4011TIP3    H233593   0.292   2.843   8.031
 4012TIP3   OH233594   0.568   4.294   8.634
 4012TIP3    H133595   0.586   4.367   8.693
 4012TIP3    H233596   0.488   4.255   8.669
 4013TIP3   OH233597   0.867   6.524   8.027
 4013TIP3    H133598   0.792   6.574   8.058
 4013TIP3    H233599   0.861   6.527   7.932
 4014TIP3   OH233600   6.723   5.605   7.485
 4014TIP3    H133601   6.755   5.530   7.435
 4014TIP3    H233602   6.736   5.680   7.427
 4015TIP3   OH233603   1.008   1.161   8.033
 4015TIP3    H133604   1.095   1.193   8.010
 4015TIP3    H233605   1.021   1.115   8.116
 4016TIP3   OH233606   6.554   2.194   7.908
 4016TIP3    H133607   6.554   2.114   7.960
 4016TIP3    H233608   6.463   2.224   7.909
 4017TIP3   OH233609   4.725   3.101   8.681
 4017TIP3    H133610   4.675   3.172   8.641
 4017TIP3    H233611   4.730   3.033   8.614
 4018TIP3   OH233612   1.168   4.612   6.139
 4018TIP3    H133613   1.137   4.701   6.122
 4018TIP3    H233614   1.231   4.622   6.211
 4019TIP3   OH233615   2.777   0.922   1.278
 4019TIP3    H133616   2.870   0.898   1.287
 4019TIP3    H233617   2.735   0.882   1.354
 4020TIP3   OH233618   5.163   4.137   8.472
 4020TIP3    H133619   5.068   4.142   8.462
 4020TIP3    H233620   5.188   4.059   8.422
 4021TIP3   OH233621   2.433   6.211   0.596
 4021TIP3    H133622   2.385   6.290   0.617
 4021TIP3    H233623   2.525   6.238   0.598
 4022TIP3   OH233624   3.671   0.558   0.226
 4022TIP3    H133625   3.583   0.592   0.212
 4022TIP3    H233626   3.660   0.488   0.291
 4023TIP3   OH233627   4.447   3.174   7.188
 4023TIP3    H133628   4.466   3.248   7.131
 4023TIP3    H233629   4.359   3.190   7.220
 4024TIP3   OH233630   1.528   6.196   7.184
 4024TIP3    H133631   1.491   6.160   7.265
 4024TIP3    H233632   1.618   6.164   7.182
 4025TIP3   OH233633   6.500   4.331   7.440
 4025TIP3    H133634   6.547   4.317   7.358
 4025TIP3    H233635   6.499   4.426   7.452
 4026TIP3   OH233636   3.402   3.119   0.640
 4026TIP3    H133637   3.321   3.134   0.688
 4026TIP3    H233638   3.380   3.138   0.549
 4027TIP3   OH233639   5.607   3.763   7.789
 4027TIP3    H133640   5.695   3.734   7.767
 4027TIP3    H233641   5.597   3.741   7.881
 4028TIP3   OH233642   4.565   6.691   1.519
 4028TIP3    H133643   4.634   6.642   1.565
 4028TIP3    H233644   4.611   6.735   1.447
 4029TIP3   OH233645   2.557   3.695   0.583
 4029TIP3    H133646   2.594   3.611   0.607
 4029TIP3    H233647   2.569   3.750   0.660
 4030TIP3   OH233648   1.613   2.998   6.411
 4030TIP3    H133649   1.593   3.017   6.502
 4030TIP3    H233650   1.659   2.914   6.413
 4031TIP3   OH233651   1.208   6.100   6.599
 4031TIP3    H133652   1.158   6.063   6.671
 4031TIP3    H233653   1.275   6.154   6.641
 4032TIP3   OH233654   4.432   1.475   1.037
 4032TIP3    H133655   4.402   1.565   1.026
 4032TIP3    H233656   4.392   1.427   0.965
 4033TIP3   OH233657   1.560   4.668   8.091
 4033TIP3    H133658   1.501   4.689   8.163
 4033TIP3    H233659   1.632   4.620   8.133
 4034TIP3   OH233660   2.016   2.509   8.352
 4034TIP3    H133661   2.039   2.580   8.411
 4034TIP3    H233662   2.090   2.504   8.290
 4035TIP3   OH233663   3.932   6.627   0.657
 4035TIP3    H133664   3.999   6.696   0.661
 4035TIP3    H233665   3.913   6.618   0.563
 4036TIP3   OH233666   6.245   0.180   0.664
 4036TIP3    H133667   6.233   0.240   0.590
 4036TIP3    H233668   6.200   0.100   0.636
 4037TIP3   OH233669   2.903   0.921   2.239
 4037TIP3    H133670   2.977   0.965   2.196
 4037TIP3    H233671   2.895   0.837   2.193
 4038TIP3   OH233672   6.418   5.453   8.008
 4038TIP3    H133673   6.353   5.390   7.979
 4038TIP3    H233674   6.500   5.423   7.968
 4039TIP3   OH233675   1.153   1.895   1.518
 4039TIP3    H133676   1.112   1.956   1.580
 4039TIP3    H233677   1.080   1.846   1.481
 4040TIP3   OH233678   2.355   1.724   8.439
 4040TIP3    H133679   2.318   1.720   8.351
 4040TIP3    H233680   2.435   1.671   8.433
 4041TIP3   OH233681   4.314   5.511   6.932
 4041TIP3    H133682   4.381   5.459   6.978
 4041TIP3    H233683   4.280   5.453   6.865
 4042TIP3   OH233684   5.095   2.313   0.831
 4042TIP3    H133685   5.048   2.380   0.781
 4042TIP3    H233686   5.034   2.289   0.901
 4043TIP3   OH233687   6.273   4.554   1.440
 4043TIP3    H133688   6.339   4.589   1.380
 4043TIP3    H233689   6.216   4.501   1.385
 4044TIP3   OH233690   1.486   3.889   2.448
 4044TIP3    H133691   1.418   3.953   2.467
 4044TIP3    H233692   1.550   3.937   2.395
 4045TIP3   OH233693   3.633   4.123   0.285
 4045TIP3    H133694   3.596   4.212   0.287
 4045TIP3    H233695   3.565   4.071   0.242
 4046TIP3   OH233696   1.951   5.897   7.881
 4046TIP3    H133697   1.896   5.869   7.955
 4046TIP3    H233698   1.991   5.979   7.911
 4047TIP3   OH233699   0.698   4.929   8.157
 4047TIP3    H133700   0.674   4.838   8.174
 4047TIP3    H233701   0.680   4.941   8.063
 4048TIP3   OH233702   4.439   3.521   0.289
 4048TIP3    H133703   4.404   3.545   0.203
 4048TIP3    H233704   4.427   3.599   0.343
 4049TIP3   OH233705   2.906   2.348   7.898
 4049TIP3    H133706   2.854   2.365   7.977
 4049TIP3    H233707   2.844   2.316   7.834
 4050TIP3   OH233708   3.338   6.230   8.013
 4050TIP3    H133709   3.253   6.274   8.001
 4050TIP3    H233710   3.319   6.158   8.074
 4051TIP3   OH233711   0.040   2.095   7.333
 4051TIP3    H133712   0.023   2.118   7.424
 4051TIP3    H233713   0.098   2.164   7.301
 4052TIP3   OH233714   3.110   3.714   0.784
 4052TIP3    H133715   3.088   3.746   0.871
 4052TIP3    H233716   3.184   3.768   0.756
 4053TIP3   OH233717   1.722   3.059   8.708
 4053TIP3    H133718   1.807   3.025   8.680
 4053TIP3    H233719   1.729   3.154   8.697
 4054TIP3   OH233720   5.525   0.901   1.234
 4054TIP3    H133721   5.494   0.900   1.325
 4054TIP3    H233722   5.595   0.837   1.233
 4055TIP3   OH233723   2.203   1.418   8.470
 4055TIP3    H133724   2.143   1.365   8.522
 4055TIP3    H233725   2.147   1.471   8.413
 4056TIP3   OH233726   4.714   6.737   7.181
 4056TIP3    H133727   4.648   6.698   7.124
 4056TIP3    H233728   4.689   6.829   7.188
 4057TIP3   OH233729   6.186   0.476   0.428
 4057TIP3    H133730   6.108   0.473   0.483
 4057TIP3    H233731   6.236   0.551   0.460
 4058TIP3   OH233732   2.021   3.983   0.843
 4058TIP3    H133733   2.115   3.989   0.860
 4058TIP3    H233734   1.998   3.893   0.867
 4059TIP3   OH233735   6.147   2.143   0.894
 4059TIP3    H133736   6.176   2.104   0.812
 4059TIP3    H233737   6.196   2.096   0.962
 4060TIP3   OH233738   3.747   5.663   6.381
 4060TIP3    H133739   3.752   5.627   6.292
 4060TIP3    H233740   3.825   5.716   6.390
 4061TIP3   OH233741   2.293   0.104   0.592
 4061TIP3    H133742   2.353   0.031   0.602
 4061TIP3    H233743   2.269   0.128   0.682
 4062TIP3   OH233744   2.652   0.315   0.399
 4062TIP3    H133745   2.655   0.284   0.309
 4062TIP3    H233746   2.579   0.377   0.400
 4063TIP3   OH233747   6.697   2.899   7.939
 4063TIP3    H133748   6.754   2.938   8.006
 4063TIP3    H233749   6.610   2.933   7.959
 4064TIP3   OH233750   4.162   4.301   0.490
 4064TIP3    H133751   4.165   4.385   0.535
 4064TIP3    H233752   4.094   4.311   0.424
 4065TIP3   OH233753   2.708   4.999   8.429
 4065TIP3    H133754   2.698   5.093   8.417
 4065TIP3    H233755   2.746   4.990   8.517
 4066TIP3   OH233756   4.998   2.412   2.026
 4066TIP3    H133757   4.953   2.429   1.943
 4066TIP3    H233758   4.967   2.481   2.085
 4067TIP3   OH233759   5.703   2.691   8.771
 4067TIP3    H133760   5.644   2.655   8.705
 4067TIP3    H233761   5.790   2.677   8.735
 4068TIP3   OH233762   6.590   5.314   1.098
 4068TIP3    H133763   6.631   5.313   1.011
 4068TIP3    H233764   6.619   5.396   1.137
 4069TIP3   OH233765   6.469   1.013   7.775
 4069TIP3    H133766   6.488   0.981   7.686
 4069TIP3    H233767   6.535   0.969   7.830
 4070TIP3   OH233768   4.829   3.942   8.365
 4070TIP3    H133769   4.853   3.861   8.412
 4070TIP3    H233770   4.734   3.939   8.358
 4071TIP3   OH233771   4.621   5.740   0.591
 4071TIP3    H133772   4.711   5.717   0.614
 4071TIP3    H233773   4.568   5.670   0.630
 4072TIP3   OH233774   5.430   3.215   2.108
 4072TIP3    H133775   5.506   3.231   2.051
 4072TIP3    H233776   5.372   3.290   2.092
 4073TIP3   OH233777   5.495   2.973   8.426
 4073TIP3    H133778   5.443   2.965   8.505
 4073TIP3    H233779   5.441   2.935   8.356
 4074TIP3   OH233780   3.400   6.007   8.561
 4074TIP3    H133781   3.469   6.065   8.530
 4074TIP3    H233782   3.389   5.944   8.490
 4075TIP3   OH233783   4.220   4.727   1.512
 4075TIP3    H133784   4.176   4.648   1.541
 4075TIP3    H233785   4.241   4.711   1.420
 4076TIP3   OH233786   4.435   1.898   6.717
 4076TIP3    H133787   4.494   1.824   6.706
 4076TIP3    H233788   4.417   1.928   6.627
 4077TIP3   OH233789   4.215   5.619   1.045
 4077TIP3    H133790   4.159   5.587   1.116
 4077TIP3    H233791   4.304   5.596   1.072
 4078TIP3   OH233792   3.698   1.283   6.902
 4078TIP3    H133793   3.697   1.377   6.920
 4078TIP3    H233794   3.663   1.243   6.981
 4079TIP3   OH233795   0.288   2.729   1.296
 4079TIP3    H133796   0.213   2.740   1.237
 4079TIP3    H233797   0.251   2.688   1.375
 4080TIP3   OH233798   0.395   0.533   0.340
 4080TIP3    H133799   0.368   0.442   0.354
 4080TIP3    H233800   0.482   0.527   0.301
 4081TIP3   OH233801   6.024   2.850   6.370
 4081TIP3    H133802   6.117   2.832   6.352
 4081TIP3    H233803   6.019   2.850   6.466
 4082TIP3   OH233804   6.222   0.900   7.915
 4082TIP3    H133805   6.236   0.936   8.002
 4082TIP3    H233806   6.299   0.929   7.865
 4083TIP3   OH233807   2.799   4.117   1.747
 4083TIP3    H133808   2.734   4.185   1.765
 4083TIP3    H233809   2.750   4.035   1.756
 4084TIP3   OH233810   3.666   3.345   7.370
 4084TIP3    H133811   3.613   3.275   7.331
 4084TIP3    H233812   3.699   3.308   7.452
 4085TIP3   OH233813   6.525   4.664   1.311
 4085TIP3    H133814   6.607   4.674   1.263
 4085TIP3    H233815   6.543   4.701   1.398
 4086TIP3   OH233816   6.405   2.352   1.414
 4086TIP3    H133817   6.400   2.300   1.334
 4086TIP3    H233818   6.375   2.439   1.388
 4087TIP3   OH233819   6.709   6.588   8.411
 4087TIP3    H133820   6.725   6.564   8.502
 4087TIP3    H233821   6.654   6.517   8.377
 4088TIP3   OH233822   4.472   0.494   6.976
 4088TIP3    H133823   4.421   0.431   6.925
 4088TIP3    H233824   4.543   0.443   7.015
 4089TIP3   OH233825   3.773   1.154   1.405
 4089TIP3    H133826   3.700   1.181   1.348
 4089TIP3    H233827   3.770   1.214   1.479
 4090TIP3   OH233828   2.546   4.473   8.776
 4090TIP3    H133829   2.524   4.564   8.753
 4090TIP3    H233830   2.465   4.425   8.763
 4091TIP3   OH233831   5.177   4.396   8.401
 4091TIP3    H133832   5.203   4.317   8.449
 4091TIP3    H233833   5.081   4.395   8.404
 4092TIP3   OH233834   3.885   2.709   0.687
 4092TIP3    H133835   3.898   2.626   0.642
 4092TIP3    H233836   3.793   2.708   0.715
 4093TIP3   OH233837   4.939   1.992   7.001
 4093TIP3    H133838   4.877   2.019   6.933
 4093TIP3    H233839   4.890   1.930   7.054
 4094TIP3   OH233840   6.372   3.872   0.598
 4094TIP3    H133841   6.301   3.924   0.561
 4094TIP3    H233842   6.450   3.901   0.549
 4095TIP3   OH233843   1.058   6.592   0.765
 4095TIP3    H133844   0.992   6.548   0.711
 4095TIP3    H233845   1.066   6.537   0.843
 4096TIP3   OH233846   5.202   0.238   1.163
 4096TIP3    H133847   5.154   0.275   1.089
 4096TIP3    H233848   5.215   0.312   1.222
 4097TIP3   OH233849   4.108   1.803   0.702
 4097TIP3    H133850   4.111   1.868   0.772
 4097TIP3    H233851   4.034   1.747   0.724
 4098TIP3   OH233852   3.404   0.741   2.522
 4098TIP3    H133853   3.487   0.715   2.481
 4098TIP3    H233854   3.421   0.830   2.556
 4099TIP3   OH233855   0.426   1.158   8.599
 4099TIP3    H133856   0.464   1.091   8.543
 4099TIP3    H233857   0.488   1.231   8.595
 4100TIP3   OH233858   4.811   5.760   6.404
 4100TIP3    H133859   4.750   5.818   6.450
 4100TIP3    H233860   4.890   5.760   6.458
 4101TIP3   OH233861   3.162   0.168   8.227
 4101TIP3    H133862   3.246   0.211   8.240
 4101TIP3    H233863   3.140   0.131   8.313
 4102TIP3   OH233864   0.556   5.856   7.123
 4102TIP3    H133865   0.546   5.797   7.049
 4102TIP3    H233866   0.544   5.944   7.086
 4103TIP3   OH233867   2.840   0.471   6.614
 4103TIP3    H133868   2.865   0.446   6.525
 4103TIP3    H233869   2.901   0.422   6.670
 4104TIP3   OH233870   6.065   2.308   8.149
 4104TIP3    H133871   6.145   2.326   8.200
 4104TIP3    H233872   6.088   2.231   8.096
 4105TIP3   OH233873   2.989   5.573   2.171
 4105TIP3    H133874   3.084   5.571   2.157
 4105TIP3    H233875   2.974   5.655   2.219
 4106TIP3   OH233876   2.312   2.966   0.952
 4106TIP3    H133877   2.311   2.892   0.891
 4106TIP3    H233878   2.286   2.927   1.036
 4107TIP3   OH233879   0.831   5.947   2.019
 4107TIP3    H133880   0.901   5.887   1.993
 4107TIP3    H233881   0.806   5.920   2.107
 4108TIP3   OH233882   1.388   1.904   1.392
 4108TIP3    H133883   1.296   1.917   1.415
 4108TIP3    H233884   1.392   1.921   1.298
 4109TIP3   OH233885   0.727   3.336   0.940
 4109TIP3    H133886   0.718   3.306   1.030
 4109TIP3    H233887   0.816   3.371   0.935
 4110TIP3   OH233888   4.488   2.898   8.292
 4110TIP3    H133889   4.499   2.835   8.221
 4110TIP3    H233890   4.443   2.972   8.251
 4111TIP3   OH233891   6.298   2.479   1.802
 4111TIP3    H133892   6.393   2.469   1.795
 4111TIP3    H233893   6.269   2.399   1.845
 4112TIP3   OH233894   5.476   4.622   0.300
 4112TIP3    H133895   5.554   4.675   0.283
 4112TIP3    H233896   5.467   4.568   0.222
 4113TIP3   OH233897   1.518   2.361   7.271
 4113TIP3    H133898   1.462   2.439   7.278
 4113TIP3    H233899   1.473   2.305   7.209
 4114TIP3   OH233900   4.059   1.686   1.941
 4114TIP3    H133901   4.127   1.752   1.929
 4114TIP3    H233902   3.997   1.727   2.001
 4115TIP3   OH233903   3.347   3.674   6.227
 4115TIP3    H133904   3.416   3.702   6.287
 4115TIP3    H233905   3.276   3.646   6.285
 4116TIP3   OH233906   3.509   6.146   7.173
 4116TIP3    H133907   3.569   6.117   7.241
 4116TIP3    H233908   3.493   6.238   7.193
 4117TIP3   OH233909   3.250   4.998   7.313
 4117TIP3    H133910   3.261   5.030   7.403
 4117TIP3    H233911   3.213   4.911   7.322
 4118TIP3   OH233912   6.570   2.549   7.189
 4118TIP3    H133913   6.641   2.613   7.202
 4118TIP3    H233914   6.598   2.499   7.112
 4119TIP3   OH233915   3.630   3.014   6.734
 4119TIP3    H133916   3.615   3.035   6.826
 4119TIP3    H233917   3.674   3.091   6.698
 4120TIP3   OH233918   5.289   0.686   8.669
 4120TIP3    H133919   5.355   0.751   8.647
 4120TIP3    H233920   5.337   0.604   8.679
 4121TIP3   OH233921   4.538   5.482   0.335
 4121TIP3    H133922   4.461   5.523   0.375
 4121TIP3    H233923   4.571   5.424   0.404
 4122TIP3   OH233924   3.553   0.177   0.231
 4122TIP3    H133925   3.607   0.190   0.153
 4122TIP3    H233926   3.594   0.233   0.298
 4123TIP3   OH233927   3.696   6.603   8.675
 4123TIP3    H133928   3.666   6.676   8.728
 4123TIP3    H233929   3.784   6.584   8.708
 4124TIP3   OH233930   4.934   1.904   0.714
 4124TIP3    H133931   4.980   1.903   0.799
 4124TIP3    H233932   4.895   1.991   0.710
 4125TIP3   OH233933   2.105   0.940   2.252
 4125TIP3    H133934   2.086   0.847   2.235
 4125TIP3    H233935   2.027   0.986   2.221
 4126TIP3   OH233936   0.451   0.838   0.711
 4126TIP3    H133937   0.478   0.789   0.789
 4126TIP3    H233938   0.397   0.776   0.662
 4127TIP3   OH233939   0.815   3.893   8.694
 4127TIP3    H133940   0.866   3.969   8.723
 4127TIP3    H233941   0.855   3.868   8.611
 4128TIP3   OH233942   4.912   1.313   7.038
 4128TIP3    H133943   4.972   1.324   7.112
 4128TIP3    H233944   4.859   1.237   7.061
 4129TIP3   OH233945   0.169   4.957   8.394
 4129TIP3    H133946   0.114   4.912   8.458
 4129TIP3    H233947   0.169   5.048   8.421
 4130TIP3   OH233948   4.616   3.830   1.790
 4130TIP3    H133949   4.530   3.872   1.793
 4130TIP3    H233950   4.623   3.797   1.700
 4131TIP3   OH233951   3.758   0.261   7.398
 4131TIP3    H133952   3.853   0.271   7.384
 4131TIP3    H233953   3.739   0.172   7.368
 4132TIP3   OH233954   2.008   3.186   0.943
 4132TIP3    H133955   1.969   3.118   0.887
 4132TIP3    H233956   2.096   3.199   0.908
 4133TIP3   OH233957   3.924   3.002   6.549
 4133TIP3    H133958   3.965   2.981   6.633
 4133TIP3    H233959   3.992   2.985   6.484
 4134TIP3   OH233960   0.644   0.600   7.935
 4134TIP3    H133961   0.664   0.631   7.847
 4134TIP3    H233962   0.644   0.505   7.928
 4135TIP3   OH233963   1.071   1.265   1.881
 4135TIP3    H133964   1.036   1.353   1.891
 4135TIP3    H233965   1.166   1.278   1.877
 4136TIP3   OH233966   0.176   5.558   0.373
 4136TIP3    H133967   0.259   5.551   0.326
 4136TIP3    H233968   0.192   5.514   0.457
 4137TIP3   OH233969   5.414   5.252   8.648
 4137TIP3    H133970   5.348   5.183   8.650
 4137TIP3    H233971   5.378   5.318   8.589
 4138TIP3   OH233972   2.859   0.290   0.845
 4138TIP3    H133973   2.843   0.269   0.937
 4138TIP3    H233974   2.951   0.269   0.831
 4139TIP3   OH233975   6.530   5.117   8.461
 4139TIP3    H133976   6.502   5.174   8.532
 4139TIP3    H233977   6.511   5.029   8.492
 4140TIP3   OH233978   2.441   6.194   8.428
 4140TIP3    H133979   2.416   6.260   8.492
 4140TIP3    H233980   2.534   6.179   8.443
 4141TIP3   OH233981   3.637   0.023   7.366
 4141TIP3    H133982   3.585  -0.024   7.302
 4141TIP3    H233983   3.653  -0.041   7.435
 4142TIP3   OH233984   3.078   5.289   7.703
 4142TIP3    H133985   3.057   5.236   7.626
 4142TIP3    H233986   2.993   5.323   7.732
 4143TIP3   OH233987   0.230   1.874   0.615
 4143TIP3    H133988   0.212   1.792   0.570
 4143TIP3    H233989   0.253   1.849   0.704
 4144TIP3   OH233990   3.577   2.024   8.576
 4144TIP3    H133991   3.610   2.093   8.518
 4144TIP3    H233992   3.647   2.012   8.641
 4145TIP3   OH233993   3.372   3.387   7.122
 4145TIP3    H133994   3.289   3.375   7.076
 4145TIP3    H233995   3.351   3.373   7.214
 4146TIP3   OH233996   4.082   4.240   6.808
 4146TIP3    H133997   4.051   4.256   6.719
 4146TIP3    H233998   4.175   4.219   6.798
 4147TIP3   OH233999   6.066   1.103   8.633
 4147TIP3    H134000   6.140   1.046   8.655
 4147TIP3    H234001   6.035   1.070   8.549
 4148TIP3   OH234002   2.616   2.093   7.512
 4148TIP3    H134003   2.542   2.107   7.453
 4148TIP3    H234004   2.622   1.998   7.522
 4149TIP3   OH234005   6.247   2.566   0.254
 4149TIP3    H134006   6.187   2.497   0.226
 4149TIP3    H234007   6.205   2.606   0.330
 4150TIP3   OH234008   1.380   4.224   1.184
 4150TIP3    H134009   1.293   4.227   1.222
 4150TIP3    H234010   1.378   4.287   1.112
 4151TIP3   OH234011   6.626   2.132   7.578
 4151TIP3    H134012   6.636   2.177   7.662
 4151TIP3    H234013   6.615   2.203   7.514
 4152TIP3   OH234014   6.241   3.297   1.912
 4152TIP3    H134015   6.179   3.317   1.982
 4152TIP3    H234016   6.281   3.214   1.937
 4153TIP3   OH234017   4.338   6.690   2.239
 4153TIP3    H134018   4.313   6.779   2.214
 4153TIP3    H234019   4.422   6.701   2.284
 4154TIP3   OH234020   4.970   1.473   6.363
 4154TIP3    H134021   4.899   1.413   6.340
 4154TIP3    H234022   5.027   1.422   6.419
 4155TIP3   OH234023   2.534   0.530   0.843
 4155TIP3    H134024   2.597   0.538   0.915
 4155TIP3    H234025   2.580   0.480   0.776
 4156TIP3   OH234026   4.077   5.442   8.781
 4156TIP3    H134027   4.089   5.489   8.864
 4156TIP3    H234028   4.017   5.496   8.731
 4157TIP3   OH234029   2.143   4.224   7.809
 4157TIP3    H134030   2.181   4.177   7.735
 4157TIP3    H234031   2.067   4.269   7.772
 4158TIP3   OH234032   2.130   5.729   6.663
 4158TIP3    H134033   2.114   5.815   6.703
 4158TIP3    H234034   2.205   5.744   6.605
 4159TIP3   OH234035   1.859   0.332   1.394
 4159TIP3    H134036   1.813   0.316   1.312
 4159TIP3    H234037   1.878   0.245   1.429
 4160TIP3   OH234038   1.581   0.932   1.113
 4160TIP3    H134039   1.491   0.899   1.106
 4160TIP3    H234040   1.573   1.026   1.097
 4161TIP3   OH234041   4.021   6.012   6.757
 4161TIP3    H134042   3.991   6.066   6.684
 4161TIP3    H234043   4.116   6.016   6.752
 4162TIP3   OH234044   5.912   5.825   0.371
 4162TIP3    H134045   5.894   5.861   0.284
 4162TIP3    H234046   6.003   5.796   0.367
 4163TIP3   OH234047   3.136   1.051   2.143
 4163TIP3    H134048   3.176   1.061   2.229
 4163TIP3    H234049   3.149   1.136   2.101
 4164TIP3   OH234050   2.710   5.745   8.544
 4164TIP3    H134051   2.710   5.739   8.448
 4164TIP3    H234052   2.803   5.744   8.567
 4165TIP3   OH234053   1.625   5.939   6.584
 4165TIP3    H134054   1.667   6.026   6.591
 4165TIP3    H234055   1.680   5.891   6.523
 4166TIP3   OH234056   3.457   1.177   8.692
 4166TIP3    H134057   3.424   1.088   8.700
 4166TIP3    H234058   3.382   1.233   8.713
 4167TIP3   OH234059   6.054   4.207   8.701
 4167TIP3    H134060   6.087   4.209   8.790
 4167TIP3    H234061   6.129   4.228   8.646
 4168TIP3   OH234062   5.756   2.347   8.673
 4168TIP3    H134063   5.728   2.257   8.655
 4168TIP3    H234064   5.681   2.401   8.649
 4169TIP3   OH234065   0.758   3.649   8.032
 4169TIP3    H134066   0.746   3.694   7.948
 4169TIP3    H234067   0.671   3.615   8.054
 4170TIP3   OH234068   5.038   2.814   1.421
 4170TIP3    H134069   5.060   2.722   1.408
 4170TIP3    H234070   4.942   2.816   1.418
 4171TIP3   OH234071   1.460   1.123   0.433
 4171TIP3    H134072   1.418   1.208   0.416
 4171TIP3    H234073   1.388   1.068   0.465
 4172TIP3   OH234074   3.526   1.246   8.023
 4172TIP3    H134075   3.562   1.304   7.956
 4172TIP3    H234076   3.457   1.198   7.979
 4173TIP3   OH234077   1.085   6.219   7.465
 4173TIP3    H134078   1.090   6.161   7.389
 4173TIP3    H234079   0.992   6.223   7.486
 4174TIP3   OH234080   1.533   6.254   8.241
 4174TIP3    H134081   1.527   6.294   8.154
 4174TIP3    H234082   1.614   6.203   8.238
 4175TIP3   OH234083   3.235   3.125   2.037
 4175TIP3    H134084   3.165   3.094   2.095
 4175TIP3    H234085   3.311   3.071   2.060
 4176TIP3   OH234086   3.497   2.990   8.206
 4176TIP3    H134087   3.421   3.047   8.197
 4176TIP3    H234088   3.464   2.914   8.254
 4177TIP3   OH234089   1.691   3.435   0.271
 4177TIP3    H134090   1.688   3.515   0.219
 4177TIP3    H234091   1.731   3.462   0.354
 4178TIP3   OH234092   5.428   3.506   8.608
 4178TIP3    H134093   5.378   3.432   8.642
 4178TIP3    H234094   5.500   3.466   8.560
 4179TIP3   OH234095   5.337   6.610   7.673
 4179TIP3    H134096   5.376   6.640   7.755
 4179TIP3    H234097   5.260   6.667   7.661
 4180TIP3   OH234098   6.374   3.711   0.828
 4180TIP3    H134099   6.456   3.748   0.860
 4180TIP3    H234100   6.363   3.748   0.740
 4181TIP3   OH234101   4.736   1.877   1.456
 4181TIP3    H134102   4.806   1.823   1.419
 4181TIP3    H234103   4.655   1.836   1.424
 4182TIP3   OH234104   2.434   4.394   7.308
 4182TIP3    H134105   2.492   4.431   7.241
 4182TIP3    H234106   2.347   4.395   7.266
 4183TIP3   OH234107   2.008   2.211   6.364
 4183TIP3    H134108   2.000   2.178   6.453
 4183TIP3    H234109   1.926   2.259   6.349
 4184TIP3   OH234110   4.891   2.247   1.052
 4184TIP3    H134111   4.900   2.278   1.142
 4184TIP3    H234112   4.835   2.313   1.010
 4185TIP3   OH234113   2.402   1.297   7.911
 4185TIP3    H134114   2.377   1.204   7.906
 4185TIP3    H234115   2.324   1.342   7.940
 4186TIP3   OH234116   5.111   5.276   7.423
 4186TIP3    H134117   5.127   5.316   7.338
 4186TIP3    H234118   5.193   5.285   7.471
 4187TIP3   OH234119   1.546   2.955   8.516
 4187TIP3    H134120   1.597   2.976   8.595
 4187TIP3    H234121   1.606   2.903   8.462
 4188TIP3   OH234122   3.961   5.440   1.699
 4188TIP3    H134123   4.049   5.477   1.688
 4188TIP3    H234124   3.952   5.377   1.628
 4189TIP3   OH234125   4.726   3.971   1.105
 4189TIP3    H134126   4.743   4.064   1.121
 4189TIP3    H234127   4.805   3.926   1.136
 4190TIP3   OH234128   0.676   3.625   1.975
 4190TIP3    H134129   0.710   3.690   2.037
 4190TIP3    H234130   0.753   3.574   1.950
 4191TIP3   OH234131   0.064   0.873   1.487
 4191TIP3    H134132  -0.025   0.846   1.509
 4191TIP3    H234133   0.091   0.929   1.560
 4192TIP3   OH234134   4.037   1.254   6.804
 4192TIP3    H134135   3.961   1.236   6.748
 4192TIP3    H234136   4.085   1.323   6.757
 4193TIP3   OH234137   1.516   0.924   0.116
 4193TIP3    H134138   1.515   0.844   0.168
 4193TIP3    H234139   1.457   0.984   0.161
 4194TIP3   OH234140   6.217   1.226   0.648
 4194TIP3    H134141   6.247   1.267   0.567
 4194TIP3    H234142   6.149   1.285   0.681
 4195TIP3   OH234143   0.255   2.459   1.143
 4195TIP3    H134144   0.279   2.551   1.138
 4195TIP3    H234145   0.339   2.413   1.153
 4196TIP3   OH234146   1.656   3.737   0.820
 4196TIP3    H134147   1.616   3.738   0.907
 4196TIP3    H234148   1.589   3.700   0.763
 4197TIP3   OH234149   2.125   2.963   7.261
 4197TIP3    H134150   2.035   2.995   7.259
 4197TIP3    H234151   2.135   2.917   7.177
 4198TIP3   OH234152   6.695   1.210   8.002
 4198TIP3    H134153   6.717   1.238   7.913
 4198TIP3    H234154   6.777   1.216   8.050
 4199TIP3   OH234155   3.123   6.147   7.849
 4199TIP3    H134156   3.115   6.076   7.786
 4199TIP3    H234157   3.044   6.142   7.902
 4200TIP3   OH234158   0.512   2.723   1.610
 4200TIP3    H134159   0.520   2.813   1.642
 4200TIP3    H234160   0.591   2.679   1.640
 4201TIP3   OH234161   2.779   2.022   8.238
 4201TIP3    H134162   2.856   2.052   8.287
 4201TIP3    H234163   2.718   1.993   8.305
 4202TIP3   OH234164   3.402   4.286   7.953
 4202TIP3    H134165   3.489   4.261   7.924
 4202TIP3    H234166   3.413   4.307   8.046
 4203TIP3   OH234167   3.116   2.183   6.546
 4203TIP3    H134168   3.147   2.274   6.548
 4203TIP3    H234169   3.029   2.189   6.507
 4204TIP3   OH234170   5.917   4.123   7.299
 4204TIP3    H134171   5.911   4.044   7.353
 4204TIP3    H234172   5.973   4.098   7.226
 4205TIP3   OH234173   6.007   4.075   1.498
 4205TIP3    H134174   6.037   3.984   1.497
 4205TIP3    H234175   5.984   4.093   1.407
 4206TIP3   OH234176   3.052   2.113   0.664
 4206TIP3    H134177   2.971   2.070   0.636
 4206TIP3    H234178   3.031   2.146   0.752
 4207TIP3   OH234179   1.930   2.070   6.118
 4207TIP3    H134180   1.897   2.009   6.184
 4207TIP3    H234181   1.857   2.081   6.057
 4208TIP3   OH234182   2.403   6.509   1.713
 4208TIP3    H134183   2.388   6.531   1.805
 4208TIP3    H234184   2.481   6.454   1.713
 4209TIP3   OH234185   2.728   0.471   7.628
 4209TIP3    H134186   2.708   0.381   7.600
 4209TIP3    H234187   2.707   0.525   7.552
 4210TIP3   OH234188   1.278   6.794   8.259
 4210TIP3    H134189   1.352   6.735   8.242
 4210TIP3    H234190   1.207   6.736   8.286
 4211TIP3   OH234191   1.928   4.067   0.230
 4211TIP3    H134192   1.874   4.030   0.160
 4211TIP3    H234193   1.979   3.993   0.263
 4212TIP3   OH234194   5.792   5.323   1.030
 4212TIP3    H134195   5.751   5.254   1.082
 4212TIP3    H234196   5.754   5.404   1.064
 4213TIP3   OH234197   6.424   3.987   6.852
 4213TIP3    H134198   6.447   4.079   6.855
 4213TIP3    H234199   6.331   3.986   6.827
 4214TIP3   OH234200   5.484   0.681   0.872
 4214TIP3    H134201   5.578   0.691   0.889
 4214TIP3    H234202   5.461   0.598   0.914
 4215TIP3   OH234203   1.822   0.757   8.421
 4215TIP3    H134204   1.782   0.841   8.441
 4215TIP3    H234205   1.764   0.693   8.461
 4216TIP3   OH234206   6.724   2.626   6.892
 4216TIP3    H134207   6.773   2.662   6.965
 4216TIP3    H234208   6.665   2.696   6.866
 4217TIP3   OH234209   2.717   3.748   1.091
 4217TIP3    H134210   2.774   3.684   1.133
 4217TIP3    H234211   2.760   3.832   1.106
 4218TIP3   OH234212   3.779   2.423   7.397
 4218TIP3    H134213   3.796   2.407   7.490
 4218TIP3    H234214   3.777   2.336   7.358
 4219TIP3   OH234215   5.261   0.519   6.769
 4219TIP3    H134216   5.200   0.548   6.700
 4219TIP3    H234217   5.206   0.509   6.847
 4220TIP3   OH234218   5.073   0.299   7.244
 4220TIP3    H134219   5.074   0.229   7.179
 4220TIP3    H234220   5.106   0.376   7.197
 4221TIP3   OH234221   0.936   5.218   0.503
 4221TIP3    H134222   0.936   5.234   0.409
 4221TIP3    H234223   0.875   5.283   0.538
 4222TIP3   OH234224   5.892   6.178   8.048
 4222TIP3    H134225   5.950   6.254   8.062
 4222TIP3    H234226   5.908   6.153   7.957
 4223TIP3   OH234227   2.265   3.582   7.093
 4223TIP3    H134228   2.218   3.614   7.171
 4223TIP3    H234229   2.347   3.631   7.094
 4224TIP3   OH234230   3.734   1.230   0.485
 4224TIP3    H134231   3.649   1.247   0.444
 4224TIP3    H234232   3.760   1.314   0.522
 4225TIP3   OH234233   5.637   4.495   8.600
 4225TIP3    H134234   5.560   4.526   8.648
 4225TIP3    H234235   5.601   4.442   8.529
 4226TIP3   OH234236   6.247   2.283   2.230
 4226TIP3    H134237   6.239   2.219   2.301
 4226TIP3    H234238   6.157   2.293   2.198
 4227TIP3   OH234239   6.420   2.868   8.010
 4227TIP3    H134240   6.325   2.880   8.018
 4227TIP3    H234241   6.455   2.899   8.094
 4228TIP3   OH234242   5.083   5.660   8.570
 4228TIP3    H134243   5.060   5.568   8.556
 4228TIP3    H234244   5.145   5.659   8.643
 4229TIP3   OH234245   5.680   2.532   8.388
 4229TIP3    H134246   5.610   2.476   8.355
 4229TIP3    H234247   5.738   2.544   8.313
 4230TIP3   OH234248   1.814   0.839   7.181
 4230TIP3    H134249   1.795   0.796   7.264
 4230TIP3    H234250   1.909   0.839   7.174
 4231TIP3   OH234251   2.384   1.102   0.964
 4231TIP3    H134252   2.468   1.123   0.924
 4231TIP3    H234253   2.401   1.097   1.058
 4232TIP3   OH234254   4.202   1.065   1.970
 4232TIP3    H134255   4.243   1.122   2.034
 4232TIP3    H234256   4.271   1.004   1.945
 4233TIP3   OH234257   0.551   0.001   1.256
 4233TIP3    H134258   0.570   0.094   1.245
 4233TIP3    H234259   0.584  -0.040   1.176
 4234TIP3   OH234260   1.145   4.745   7.485
 4234TIP3    H134261   1.099   4.794   7.553
 4234TIP3    H234262   1.236   4.745   7.513
 4235TIP3   OH234263   5.222   4.630   7.870
 4235TIP3    H134264   5.278   4.553   7.859
 4235TIP3    H234265   5.221   4.646   7.965
 4236TIP3   OH234266   0.198   0.498   2.058
 4236TIP3    H134267   0.128   0.490   1.993
 4236TIP3    H234268   0.268   0.544   2.012
 4237TIP3   OH234269   3.826   1.370   0.813
 4237TIP3    H134270   3.827   1.344   0.906
 4237TIP3    H234271   3.869   1.297   0.768
 4238TIP3   OH234272   6.358   4.680   8.643
 4238TIP3    H134273   6.279   4.690   8.591
 4238TIP3    H234274   6.343   4.734   8.720
 4239TIP3   OH234275   3.128   0.899   8.201
 4239TIP3    H134276   3.042   0.894   8.158
 4239TIP3    H234277   3.116   0.853   8.284
 4240TIP3   OH234278   3.435   3.283   8.755
 4240TIP3    H134279   3.460   3.346   8.687
 4240TIP3    H234280   3.410   3.337   8.830
 4241TIP3   OH234281   3.698   5.022   6.600
 4241TIP3    H134282   3.605   5.039   6.586
 4241TIP3    H234283   3.740   5.108   6.597
 4242TIP3   OH234284   2.968   5.233   0.471
 4242TIP3    H134285   3.022   5.312   0.473
 4242TIP3    H234286   2.892   5.257   0.418
 4243TIP3   OH234287   0.426   3.499   7.092
 4243TIP3    H134288   0.399   3.409   7.107
 4243TIP3    H234289   0.399   3.517   7.002
 4244TIP3   OH234290   1.573   0.483   1.994
 4244TIP3    H134291   1.616   0.506   2.077
 4244TIP3    H234292   1.634   0.423   1.951
 4245TIP3   OH234293   5.307   4.627   8.476
 4245TIP3    H134294   5.376   4.638   8.410
 4245TIP3    H234295   5.272   4.540   8.460
 4246TIP3   OH234296   5.327   5.456   8.511
 4246TIP3    H134297   5.368   5.511   8.577
 4246TIP3    H234298   5.381   5.467   8.433
 4247TIP3   OH234299   1.104   2.430   8.541
 4247TIP3    H134300   1.110   2.486   8.464
 4247TIP3    H234301   1.018   2.449   8.578
 4248TIP3   OH234302   0.427   2.223   8.403
 4248TIP3    H134303   0.410   2.129   8.410
 4248TIP3    H234304   0.355   2.264   8.451
 4249TIP3   OH234305   1.877   0.581   1.969
 4249TIP3    H134306   1.856   0.488   1.977
 4249TIP3    H234307   1.963   0.590   2.010
 4250TIP3   OH234308   4.641   4.325   1.521
 4250TIP3    H134309   4.572   4.342   1.584
 4250TIP3    H234310   4.681   4.410   1.504
 4251TIP3   OH234311   1.079   6.520   7.551
 4251TIP3    H134312   1.084   6.433   7.510
 4251TIP3    H234313   1.131   6.512   7.631
 4252TIP3   OH234314   2.462   1.995   6.690
 4252TIP3    H134315   2.514   1.915   6.696
 4252TIP3    H234316   2.505   2.046   6.621
 4253TIP3   OH234317   2.945   5.386   6.971
 4253TIP3    H134318   2.892   5.436   6.909
 4253TIP3    H234319   2.885   5.321   7.007
 4254TIP3   OH234320   6.553   3.867   1.052
 4254TIP3    H134321   6.595   3.935   1.104
 4254TIP3    H234322   6.602   3.865   0.970
 4255TIP3   OH234323   2.208   4.927   0.173
 4255TIP3    H134324   2.302   4.912   0.169
 4255TIP3    H234325   2.196   4.985   0.249
 4256TIP3   OH234326   3.710   1.000   7.391
 4256TIP3    H134327   3.756   1.081   7.412
 4256TIP3    H234328   3.628   1.006   7.441
 4257TIP3   OH234329   1.754   5.863   0.963
 4257TIP3    H134330   1.790   5.914   1.036
 4257TIP3    H234331   1.722   5.929   0.901
 4258TIP3   OH234332   0.216   2.777   0.278
 4258TIP3    H134333   0.159   2.850   0.255
 4258TIP3    H234334   0.303   2.816   0.290
 4259TIP3   OH234335   4.885   0.570   1.363
 4259TIP3    H134336   4.964   0.611   1.328
 4259TIP3    H234337   4.913   0.531   1.446
 4260TIP3   OH234338   2.930   2.151   2.114
 4260TIP3    H134339   2.847   2.191   2.142
 4260TIP3    H234340   2.993   2.224   2.117
 4261TIP3   OH234341   2.650   0.475   1.330
 4261TIP3    H134342   2.570   0.524   1.353
 4261TIP3    H234343   2.670   0.502   1.241
 4262TIP3   OH234344   4.820   4.357   0.448
 4262TIP3    H134345   4.745   4.334   0.393
 4262TIP3    H234346   4.809   4.306   0.528
 4263TIP3   OH234347   1.285   3.473   2.601
 4263TIP3    H134348   1.219   3.454   2.535
 4263TIP3    H234349   1.346   3.533   2.558
 4264TIP3   OH234350   1.004   0.482   1.076
 4264TIP3    H134351   1.008   0.468   1.171
 4264TIP3    H234352   1.079   0.539   1.057
 4265TIP3   OH234353   6.358   5.020   0.724
 4265TIP3    H134354   6.314   4.991   0.644
 4265TIP3    H234355   6.380   5.112   0.708
 4266TIP3   OH234356   6.513   2.380   6.142
 4266TIP3    H134357   6.597   2.412   6.109
 4266TIP3    H234358   6.508   2.289   6.110
 4267TIP3   OH234359   4.562   0.217   8.674
 4267TIP3    H134360   4.612   0.294   8.700
 4267TIP3    H234361   4.490   0.252   8.621
 4268TIP3   OH234362   6.791   4.783   1.631
 4268TIP3    H134363   6.870   4.753   1.676
 4268TIP3    H234364   6.823   4.831   1.554
 4269TIP3   OH234365   1.817   6.350   1.293
 4269TIP3    H134366   1.877   6.281   1.320
 4269TIP3    H234367   1.766   6.312   1.222
 4270TIP3   OH234368   3.528   0.693   7.763
 4270TIP3    H134369   3.472   0.769   7.774
 4270TIP3    H234370   3.478   0.620   7.800
 4271TIP3   OH234371   4.742   4.509   1.031
 4271TIP3    H134372   4.671   4.549   1.081
 4271TIP3    H234373   4.805   4.581   1.019
 4272TIP3   OH234374   1.311   2.020   7.931
 4272TIP3    H134375   1.350   1.972   7.857
 4272TIP3    H234376   1.268   1.952   7.982
 4273TIP3   OH234377   1.674   0.045   0.092
 4273TIP3    H134378   1.625   0.101   0.152
 4273TIP3    H234379   1.715  -0.020   0.148
 4274TIP3   OH234380   3.300   5.835   6.695
 4274TIP3    H134381   3.369   5.888   6.655
 4274TIP3    H234382   3.283   5.766   6.631
 4275TIP3   OH234383   5.919   6.564   7.339
 4275TIP3    H134384   5.946   6.484   7.294
 4275TIP3    H234385   5.876   6.533   7.419
 4276TIP3   OH234386   1.278   5.944   7.530
 4276TIP3    H134387   1.357   5.997   7.537
 4276TIP3    H234388   1.275   5.893   7.611
 4277TIP3   OH234389   1.847   0.178   0.360
 4277TIP3    H134390   1.766   0.218   0.390
 4277TIP3    H234391   1.904   0.252   0.341
 4278TIP3   OH234392   0.176   0.405   6.919
 4278TIP3    H134393   0.199   0.335   6.859
 4278TIP3    H234394   0.166   0.362   7.004
 4279TIP3   OH234395   2.570   2.945   1.289
 4279TIP3    H134396   2.483   2.980   1.309
 4279TIP3    H234397   2.586   2.880   1.358
 4280TIP3   OH234398   0.080   5.477   0.087
 4280TIP3    H134399   0.114   5.517   0.167
 4280TIP3    H234400   0.148   5.492   0.022
 4281TIP3   OH234401   3.848   1.716   0.357
 4281TIP3    H134402   3.795   1.783   0.400
 4281TIP3    H234403   3.917   1.764   0.313
 4282TIP3   OH234404   3.136   1.937   0.901
 4282TIP3    H134405   3.075   1.867   0.877
 4282TIP3    H234406   3.083   2.016   0.905
 4283TIP3   OH234407   6.768   6.600   7.763
 4283TIP3    H134408   6.791   6.544   7.689
 4283TIP3    H234409   6.684   6.640   7.738
 4284TIP3   OH234410   5.992   2.773   6.891
 4284TIP3    H134411   6.042   2.849   6.861
 4284TIP3    H234412   6.045   2.698   6.863
 4285TIP3   OH234413   3.301   5.693   6.454
 4285TIP3    H134414   3.384   5.730   6.422
 4285TIP3    H234415   3.251   5.673   6.375
 4286TIP3   OH234416   0.559   4.458   8.023
 4286TIP3    H134417   0.471   4.438   7.992
 4286TIP3    H234418   0.602   4.373   8.030
 4287TIP3   OH234419   3.890   0.549   2.551
 4287TIP3    H134420   3.915   0.637   2.581
 4287TIP3    H234421   3.968   0.495   2.567
 4288TIP3   OH234422   5.988   0.525   8.218
 4288TIP3    H134423   6.020   0.572   8.295
 4288TIP3    H234424   6.015   0.579   8.144
 4289TIP3   OH234425   4.975   4.361   1.005
 4289TIP3    H134426   4.983   4.378   1.099
 4289TIP3    H234427   4.881   4.366   0.988
 4290TIP3   OH234428   2.753   5.739   7.377
 4290TIP3    H134429   2.713   5.815   7.335
 4290TIP3    H234430   2.823   5.712   7.318
 4291TIP3   OH234431   1.533   1.108   8.203
 4291TIP3    H134432   1.490   1.149   8.128
 4291TIP3    H234433   1.591   1.042   8.164
 4292TIP3   OH234434   2.612   3.111   7.572
 4292TIP3    H134435   2.662   3.088   7.493
 4292TIP3    H234436   2.677   3.108   7.642
 4293TIP3   OH234437   5.158   3.652   1.747
 4293TIP3    H134438   5.073   3.695   1.733
 4293TIP3    H234439   5.149   3.609   1.831
 4294TIP3   OH234440   3.460   3.516   6.451
 4294TIP3    H134441   3.463   3.612   6.453
 4294TIP3    H234442   3.549   3.490   6.427
 4295TIP3   OH234443   5.840   3.130   7.439
 4295TIP3    H134444   5.794   3.178   7.508
 4295TIP3    H234445   5.857   3.044   7.476
 4296TIP3   OH234446   2.581   3.974   0.110
 4296TIP3    H134447   2.604   3.987   0.202
 4296TIP3    H234448   2.506   3.916   0.113
 4297TIP3   OH234449   4.781   2.781   1.364
 4297TIP3    H134450   4.721   2.785   1.439
 4297TIP3    H234451   4.723   2.786   1.288
 4298TIP3   OH234452   6.527   2.162   0.668
 4298TIP3    H134453   6.433   2.145   0.655
 4298TIP3    H234454   6.557   2.197   0.584
 4299TIP3   OH234455   1.059   1.214   7.102
 4299TIP3    H134456   1.142   1.220   7.150
 4299TIP3    H234457   0.995   1.186   7.168
 4300TIP3   OH234458   5.281   2.327   8.598
 4300TIP3    H134459   5.242   2.328   8.511
 4300TIP3    H234460   5.209   2.349   8.657
 4301TIP3   OH234461   4.530   5.838   1.252
 4301TIP3    H134462   4.618   5.817   1.281
 4301TIP3    H234463   4.503   5.762   1.200
 4302TIP3   OH234464   0.053   2.827   1.190
 4302TIP3    H134465   0.039   2.774   1.111
 4302TIP3    H234466  -0.026   2.814   1.242
 4303TIP3   OH234467   4.162   3.525   7.668
 4303TIP3    H134468   4.243   3.572   7.687
 4303TIP3    H234469   4.186   3.433   7.674
 4304TIP3   OH234470   2.359   3.617   8.406
 4304TIP3    H134471   2.308   3.548   8.446
 4304TIP3    H234472   2.302   3.652   8.337
 4305TIP3   OH234473   4.340   1.710   8.541
 4305TIP3    H134474   4.396   1.746   8.472
 4305TIP3    H234475   4.401   1.662   8.598
 4306TIP3   OH234476   1.303   2.503   7.929
 4306TIP3    H134477   1.346   2.420   7.907
 4306TIP3    H234478   1.331   2.563   7.860
 4307TIP3   OH234479   2.288   0.535   7.303
 4307TIP3    H134480   2.279   0.567   7.213
 4307TIP3    H234481   2.266   0.610   7.357
 4308TIP3   OH234482   2.010   3.864   8.510
 4308TIP3    H134483   2.011   3.960   8.503
 4308TIP3    H234484   1.929   3.838   8.465
 4309TIP3   OH234485   0.782   4.104   6.766
 4309TIP3    H134486   0.835   4.044   6.714
 4309TIP3    H234487   0.845   4.167   6.800
 4310TIP3   OH234488   6.592   2.851   6.777
 4310TIP3    H134489   6.542   2.879   6.854
 4310TIP3    H234490   6.526   2.824   6.714
 4311TIP3   OH234491   2.290   0.536   8.034
 4311TIP3    H134492   2.200   0.566   8.021
 4311TIP3    H234493   2.317   0.504   7.948
 4312TIP3   OH234494   2.835   0.593   1.486
 4312TIP3    H134495   2.785   0.608   1.565
 4312TIP3    H234496   2.770   0.597   1.415
 4313TIP3   OH234497   2.333   1.044   6.118
 4313TIP3    H134498   2.303   1.125   6.076
 4313TIP3    H234499   2.319   0.976   6.053
 4314TIP3   OH234500   3.979   5.872   7.974
 4314TIP3    H134501   4.006   5.955   7.935
 4314TIP3    H234502   3.884   5.869   7.961
 4315TIP3   OH234503   4.576   3.223   2.340
 4315TIP3    H134504   4.629   3.150   2.372
 4315TIP3    H234505   4.502   3.228   2.401
 4316TIP3   OH234506   5.176   4.012   8.002
 4316TIP3    H134507   5.250   4.039   7.948
 4316TIP3    H234508   5.164   4.085   8.063
 4317TIP3   OH234509   4.450   1.539   1.327
 4317TIP3    H134510   4.447   1.501   1.239
 4317TIP3    H234511   4.363   1.525   1.363
 4318TIP3   OH234512   1.508   3.295   2.280
 4318TIP3    H134513   1.422   3.257   2.297
 4318TIP3    H234514   1.552   3.292   2.365
 4319TIP3   OH234515   3.576   3.267   0.794
 4319TIP3    H134516   3.485   3.254   0.768
 4319TIP3    H234517   3.598   3.354   0.761
 4320TIP3   OH234518   2.715   5.665   1.403
 4320TIP3    H134519   2.692   5.625   1.487
 4320TIP3    H234520   2.649   5.632   1.342
 4321TIP3   OH234521   5.704   5.605   8.542
 4321TIP3    H134522   5.662   5.538   8.487
 4321TIP3    H234523   5.727   5.675   8.481
 4322TIP3   OH234524   5.780   2.161   6.994
 4322TIP3    H134525   5.870   2.190   6.981
 4322TIP3    H234526   5.779   2.127   7.084
 4323TIP3   OH234527   2.479   4.740   1.190
 4323TIP3    H134528   2.520   4.779   1.114
 4323TIP3    H234529   2.385   4.743   1.172
 4324TIP3   OH234530   3.908   2.367   1.692
 4324TIP3    H134531   3.844   2.305   1.727
 4324TIP3    H234532   3.897   2.446   1.744
 4325TIP3   OH234533   4.604   1.815   6.966
 4325TIP3    H134534   4.667   1.815   7.039
 4325TIP3    H234535   4.611   1.727   6.929
 4326TIP3   OH234536   6.783   4.416   0.433
 4326TIP3    H134537   6.820   4.504   0.436
 4326TIP3    H234538   6.847   4.361   0.477
 4327TIP3   OH234539   2.917   3.242   8.426
 4327TIP3    H134540   2.835   3.265   8.469
 4327TIP3    H234541   2.891   3.223   8.335
 4328TIP3   OH234542   2.352   0.702   1.599
 4328TIP3    H134543   2.382   0.717   1.688
 4328TIP3    H234544   2.263   0.738   1.597
 4329TIP3   OH234545   1.351   6.347   0.959
 4329TIP3    H134546   1.386   6.325   0.873
 4329TIP3    H234547   1.319   6.436   0.951
 4330TIP3   OH234548   6.354   4.419   1.660
 4330TIP3    H134549   6.339   4.438   1.567
 4330TIP3    H234550   6.360   4.505   1.701
 4331TIP3   OH234551   4.474   3.950   1.222
 4331TIP3    H134552   4.475   3.909   1.309
 4331TIP3    H234553   4.566   3.961   1.200
 4332TIP3   OH234554   5.030   0.171   7.018
 4332TIP3    H134555   4.953   0.227   7.008
 4332TIP3    H234556   4.997   0.083   7.000
 4333TIP3   OH234557   6.412   3.055   1.501
 4333TIP3    H134558   6.341   3.027   1.442
 4333TIP3    H234559   6.387   3.020   1.587
 4334TIP3   OH234560   4.524   6.699   0.117
 4334TIP3    H134561   4.437   6.678   0.083
 4334TIP3    H234562   4.510   6.771   0.178
 4335TIP3   OH234563   1.273   5.567   0.271
 4335TIP3    H134564   1.342   5.632   0.260
 4335TIP3    H234565   1.309   5.487   0.232
 4336TIP3   OH234566   4.018   4.943   7.295
 4336TIP3    H134567   4.039   4.913   7.383
 4336TIP3    H234568   3.966   5.022   7.309
 4337TIP3   OH234569   0.698   2.501   0.755
 4337TIP3    H134570   0.783   2.545   0.746
 4337TIP3    H234571   0.718   2.409   0.739
 4338TIP3   OH234572   5.844   1.344   7.459
 4338TIP3    H134573   5.797   1.306   7.533
 4338TIP3    H234574   5.840   1.278   7.391
 4339TIP3   OH234575   4.958   4.336   0.179
 4339TIP3    H134576   4.923   4.410   0.229
 4339TIP3    H234577   5.002   4.281   0.244
 4340TIP3   OH234578   0.310   2.372   0.752
 4340TIP3    H134579   0.359   2.304   0.707
 4340TIP3    H234580   0.361   2.391   0.831
 4341TIP3   OH234581   2.280   1.587   1.599
 4341TIP3    H134582   2.279   1.515   1.663
 4341TIP3    H234583   2.334   1.654   1.640
 4342TIP3   OH234584   5.196   1.618   1.539
 4342TIP3    H134585   5.228   1.544   1.590
 4342TIP3    H234586   5.264   1.685   1.551
 4343TIP3   OH234587   3.006   0.824   1.987
 4343TIP3    H134588   3.072   0.876   2.032
 4343TIP3    H234589   3.054   0.746   1.957
 4344TIP3   OH234590   2.731   4.442   8.006
 4344TIP3    H134591   2.660   4.470   8.064
 4344TIP3    H234592   2.687   4.423   7.923
 4345TIP3   OH234593   2.235   0.105   6.566
 4345TIP3    H134594   2.302   0.090   6.633
 4345TIP3    H234595   2.260   0.189   6.527
 4346TIP3   OH234596   3.696   5.057   0.784
 4346TIP3    H134597   3.613   5.101   0.763
 4346TIP3    H234598   3.719   5.089   0.871
 4347TIP3   OH234599   1.115   4.057   7.928
 4347TIP3    H134600   1.173   4.015   7.991
 4347TIP3    H234601   1.085   3.985   7.872
 4348TIP3   OH234602   3.135   5.002   1.918
 4348TIP3    H134603   3.101   4.913   1.914
 4348TIP3    H234604   3.159   5.015   2.009
 4349TIP3   OH234605   6.448   6.745   8.027
 4349TIP3    H134606   6.508   6.815   8.052
 4349TIP3    H234607   6.363   6.788   8.018
 4350TIP3   OH234608   3.338   3.914   2.126
 4350TIP3    H134609   3.379   4.001   2.124
 4350TIP3    H234610   3.288   3.913   2.207
 4351TIP3   OH234611   0.344   5.892   7.662
 4351TIP3    H134612   0.342   5.836   7.584
 4351TIP3    H234613   0.287   5.965   7.640
 4352TIP3   OH234614   3.121   0.422   0.408
 4352TIP3    H134615   3.151   0.434   0.498
 4352TIP3    H234616   3.124   0.327   0.394
 4353TIP3   OH234617   3.546   4.653   2.229
 4353TIP3    H134618   3.497   4.571   2.236
 4353TIP3    H234619   3.485   4.714   2.189
 4354TIP3   OH234620   0.159   3.329   1.934
 4354TIP3    H134621   0.164   3.235   1.954
 4354TIP3    H234622   0.108   3.333   1.852
 4355TIP3   OH234623   0.762   3.272   7.364
 4355TIP3    H134624   0.845   3.225   7.358
 4355TIP3    H234625   0.779   3.357   7.323
 4356TIP3   OH234626   0.553   6.432   7.205
 4356TIP3    H134627   0.608   6.373   7.258
 4356TIP3    H234628   0.539   6.383   7.123
 4357TIP3   OH234629   0.114   6.422   0.645
 4357TIP3    H134630   0.120   6.351   0.708
 4357TIP3    H234631   0.103   6.501   0.699
 4358TIP3   OH234632   6.280   3.329   8.715
 4358TIP3    H134633   6.297   3.410   8.763
 4358TIP3    H234634   6.185   3.327   8.705
 4359TIP3   OH234635   0.506   0.112   7.843
 4359TIP3    H134636   0.515   0.030   7.892
 4359TIP3    H234637   0.417   0.142   7.861
 4360TIP3   OH234638   2.348   5.700   6.872
 4360TIP3    H134639   2.282   5.757   6.912
 4360TIP3    H234640   2.402   5.759   6.820
 4361TIP3   OH234641   2.830   6.687   7.946
 4361TIP3    H134642   2.915   6.730   7.951
 4361TIP3    H234643   2.788   6.725   7.869
 4362TIP3   OH234644   4.336   0.636   0.607
 4362TIP3    H134645   4.369   0.575   0.541
 4362TIP3    H234646   4.402   0.633   0.677
 4363TIP3   OH234647   4.572   1.094   1.234
 4363TIP3    H134648   4.529   1.124   1.154
 4363TIP3    H234649   4.634   1.028   1.205
 4364TIP3   OH234650   2.474   3.352   0.827
 4364TIP3    H134651   2.471   3.393   0.741
 4364TIP3    H234652   2.472   3.425   0.889
 4365TIP3   OH234653   1.423   0.012   7.243
 4365TIP3    H134654   1.424   0.102   7.212
 4365TIP3    H234655   1.333  -0.018   7.229
 4366TIP3   OH234656   5.812   2.624   6.550
 4366TIP3    H134657   5.768   2.544   6.522
 4366TIP3    H234658   5.903   2.599   6.564
 4367TIP3   OH234659   2.966   5.162   1.428
 4367TIP3    H134660   2.871   5.159   1.438
 4367TIP3    H234661   2.996   5.077   1.461
 4368TIP3   OH234662   3.383   4.098   0.136
 4368TIP3    H134663   3.380   4.117   0.043
 4368TIP3    H234664   3.339   4.173   0.177
 4369TIP3   OH234665   0.463   6.255   1.549
 4369TIP3    H134666   0.499   6.317   1.486
 4369TIP3    H234667   0.425   6.185   1.495
 4370TIP3   OH234668   4.649   2.718   0.797
 4370TIP3    H134669   4.570   2.684   0.839
 4370TIP3    H234670   4.691   2.771   0.865
 4371TIP3   OH234671   2.883   4.742   6.491
 4371TIP3    H134672   2.920   4.677   6.432
 4371TIP3    H234673   2.868   4.694   6.573
 4372TIP3   OH234674   2.717   4.145   8.082
 4372TIP3    H134675   2.712   4.149   7.987
 4372TIP3    H234676   2.805   4.113   8.100
 4373TIP3   OH234677   0.885   1.316   1.693
 4373TIP3    H134678   0.932   1.263   1.758
 4373TIP3    H234679   0.947   1.327   1.621
 4374TIP3   OH234680   4.282   3.848   6.670
 4374TIP3    H134681   4.246   3.759   6.668
 4374TIP3    H234682   4.296   3.870   6.578
 4375TIP3   OH234683   4.876   0.340   1.131
 4375TIP3    H134684   4.928   0.410   1.092
 4375TIP3    H234685   4.786   0.373   1.129
 4376TIP3   OH234686   4.639   4.335   7.195
 4376TIP3    H134687   4.610   4.267   7.255
 4376TIP3    H234688   4.728   4.357   7.223
 4377TIP3   OH234689   1.643   2.076   1.223
 4377TIP3    H134690   1.715   2.072   1.286
 4377TIP3    H234691   1.608   1.987   1.220
 4378TIP3   OH234692   1.611   0.442   0.143
 4378TIP3    H134693   1.602   0.427   0.237
 4378TIP3    H234694   1.661   0.523   0.136
 4379TIP3   OH234695   4.252   3.836   1.931
 4379TIP3    H134696   4.271   3.865   1.841
 4379TIP3    H234697   4.272   3.913   1.985
 4380TIP3   OH234698   4.456   1.185   0.998
 4380TIP3    H134699   4.364   1.211   0.999
 4380TIP3    H234700   4.497   1.245   0.936
 4381TIP3   OH234701   6.286   5.737   0.857
 4381TIP3    H134702   6.300   5.699   0.770
 4381TIP3    H234703   6.325   5.673   0.917
 4382TIP3   OH234704   4.517   3.587   6.794
 4382TIP3    H134705   4.450   3.573   6.727
 4382TIP3    H234706   4.543   3.678   6.783
 4383TIP3   OH234707   4.350   3.074   8.659
 4383TIP3    H134708   4.421   3.110   8.606
 4383TIP3    H234709   4.348   2.981   8.635
 4384TIP3   OH234710   6.091   6.469   1.945
 4384TIP3    H134711   6.120   6.382   1.919
 4384TIP3    H234712   6.000   6.473   1.915
 4385TIP3   OH234713   2.379   1.021   8.201
 4385TIP3    H134714   2.343   0.938   8.170
 4385TIP3    H234715   2.418   1.061   8.123
 4386TIP3   OH234716   2.770   5.720   1.965
 4386TIP3    H134717   2.740   5.637   2.001
 4386TIP3    H234718   2.806   5.767   2.040
 4387TIP3   OH234719   3.073   3.567   0.546
 4387TIP3    H134720   2.990   3.529   0.575
 4387TIP3    H234721   3.068   3.659   0.574
 4388TIP3   OH234722   1.170   3.713   7.078
 4388TIP3    H134723   1.256   3.672   7.065
 4388TIP3    H234724   1.171   3.789   7.021
 4389TIP3   OH234725   1.418   4.392   0.916
 4389TIP3    H134726   1.514   4.401   0.922
 4389TIP3    H234727   1.404   4.320   0.855
 4390TIP3   OH234728   3.055   1.129   6.968
 4390TIP3    H134729   3.064   1.085   7.053
 4390TIP3    H234730   3.105   1.210   6.977
 4391TIP3   OH234731   6.086   2.609   6.542
 4391TIP3    H134732   6.104   2.521   6.510
 4391TIP3    H234733   6.143   2.666   6.491
 4392TIP3   OH234734   3.880   4.794   1.004
 4392TIP3    H134735   3.975   4.808   1.000
 4392TIP3    H234736   3.867   4.739   1.081
 4393TIP3   OH234737   0.568   0.775   7.036
 4393TIP3    H134738   0.643   0.830   7.014
 4393TIP3    H234739   0.538   0.741   6.952
 4394TIP3   OH234740   4.051   4.874   6.904
 4394TIP3    H134741   3.990   4.830   6.845
 4394TIP3    H234742   4.108   4.924   6.846
 4395TIP3   OH234743   0.650   6.277   8.684
 4395TIP3    H134744   0.638   6.357   8.634
 4395TIP3    H234745   0.611   6.296   8.769
 4396TIP3   OH234746   3.110   1.561   1.469
 4396TIP3    H134747   3.131   1.479   1.424
 4396TIP3    H234748   3.121   1.541   1.562
 4397TIP3   OH234749   3.463   0.411   1.134
 4397TIP3    H134750   3.530   0.479   1.142
 4397TIP3    H234751   3.507   0.330   1.160
 4398TIP3   OH234752   3.106   3.409   1.189
 4398TIP3    H134753   3.139   3.343   1.251
 4398TIP3    H234754   3.075   3.481   1.245
 4399TIP3   OH234755   2.040   0.695   2.157
 4399TIP3    H134756   2.069   0.655   2.239
 4399TIP3    H234757   2.112   0.681   2.096
 4400TIP3   OH234758   1.986   6.356   7.287
 4400TIP3    H134759   1.991   6.270   7.330
 4400TIP3    H234760   2.076   6.388   7.287
 4401TIP3   OH234761   2.666   5.798   8.260
 4401TIP3    H134762   2.632   5.813   8.172
 4401TIP3    H234763   2.755   5.765   8.245
 4402TIP3   OH234764   5.687   5.107   7.068
 4402TIP3    H134765   5.619   5.058   7.021
 4402TIP3    H234766   5.644   5.190   7.090
 4403TIP3   OH234767   1.659   2.621   0.407
 4403TIP3    H134768   1.579   2.660   0.442
 4403TIP3    H234769   1.638   2.600   0.316
 4404TIP3   OH234770   0.098   5.638   6.854
 4404TIP3    H134771   0.027   5.606   6.910
 4404TIP3    H234772   0.056   5.703   6.797
 4405TIP3   OH234773   6.156   1.659   7.680
 4405TIP3    H134774   6.243   1.652   7.718
 4405TIP3    H234775   6.097   1.664   7.755
 4406TIP3   OH234776   0.305   0.503   7.331
 4406TIP3    H134777   0.237   0.483   7.396
 4406TIP3    H234778   0.296   0.597   7.316
 4407TIP3   OH234779   6.212   5.974   8.637
 4407TIP3    H134780   6.300   6.007   8.652
 4407TIP3    H234781   6.157   6.018   8.702
 4408TIP3   OH234782   0.845   6.475   0.651
 4408TIP3    H134783   0.803   6.391   0.671
 4408TIP3    H234784   0.799   6.507   0.574
 4409TIP3   OH234785   0.629   5.694   7.967
 4409TIP3    H134786   0.536   5.711   7.976
 4409TIP3    H234787   0.638   5.601   7.987
 4410TIP3   OH234788   0.524   5.553   7.227
 4410TIP3    H134789   0.558   5.568   7.315
 4410TIP3    H234790   0.521   5.640   7.188
 4411TIP3   OH234791   0.880   1.460   6.145
 4411TIP3    H134792   0.952   1.454   6.082
 4411TIP3    H234793   0.864   1.554   6.155
 4412TIP3   OH234794   0.031   2.985   6.928
 4412TIP3    H134795  -0.031   3.001   6.856
 4412TIP3    H234796   0.048   3.072   6.964
 4413TIP3   OH234797   2.435   5.615   0.077
 4413TIP3    H134798   2.509   5.648   0.128
 4413TIP3    H234799   2.473   5.588  -0.006
 4414TIP3   OH234800   4.718   0.617   8.140
 4414TIP3    H134801   4.790   0.661   8.095
 4414TIP3    H234802   4.643   0.629   8.082
 4415TIP3   OH234803   6.638   5.094   8.225
 4415TIP3    H134804   6.585   5.114   8.303
 4415TIP3    H234805   6.720   5.140   8.240
 4416TIP3   OH234806   6.508   5.877   1.650
 4416TIP3    H134807   6.475   5.963   1.623
 4416TIP3    H234808   6.542   5.891   1.738
 4417TIP3   OH234809   6.680   5.229   2.410
 4417TIP3    H134810   6.615   5.176   2.364
 4417TIP3    H234811   6.677   5.198   2.500
 4418TIP3   OH234812   1.102   5.802   1.688
 4418TIP3    H134813   1.119   5.710   1.710
 4418TIP3    H234814   1.126   5.850   1.767
 4419TIP3   OH234815   2.117   0.358   0.928
 4419TIP3    H134816   2.101   0.450   0.948
 4419TIP3    H234817   2.061   0.340   0.852
 4420TIP3   OH234818   6.173   4.209   0.859
 4420TIP3    H134819   6.147   4.119   0.881
 4420TIP3    H234820   6.106   4.238   0.796
 4421TIP3   OH234821   5.743   1.928   1.520
 4421TIP3    H134822   5.730   1.913   1.614
 4421TIP3    H234823   5.658   1.905   1.481
 4422TIP3   OH234824   5.111   0.719   8.445
 4422TIP3    H134825   5.157   0.691   8.524
 4422TIP3    H234826   5.113   0.814   8.448
 4423TIP3   OH234827   5.293   4.859   2.023
 4423TIP3    H134828   5.290   4.892   2.113
 4423TIP3    H234829   5.381   4.823   2.014
 4424TIP3   OH234830   1.568   5.440   7.541
 4424TIP3    H134831   1.633   5.448   7.471
 4424TIP3    H234832   1.485   5.427   7.495
 4425TIP3   OH234833   6.079   1.337   6.916
 4425TIP3    H134834   6.056   1.415   6.865
 4425TIP3    H234835   6.007   1.327   6.978
 4426TIP3   OH234836   2.017   3.418   8.733
 4426TIP3    H134837   1.959   3.389   8.663
 4426TIP3    H234838   1.971   3.493   8.771
 4427TIP3   OH234839   0.900   4.527   7.145
 4427TIP3    H134840   0.835   4.569   7.089
 4427TIP3    H234841   0.848   4.475   7.206
 4428TIP3   OH234842   2.910   5.006   0.641
 4428TIP3    H134843   2.920   4.922   0.596
 4428TIP3    H234844   2.896   5.069   0.571
 4429TIP3   OH234845   6.660   0.747   0.802
 4429TIP3    H134846   6.746   0.788   0.816
 4429TIP3    H234847   6.617   0.752   0.888
 4430TIP3   OH234848   2.700   4.490   0.417
 4430TIP3    H134849   2.727   4.539   0.494
 4430TIP3    H234850   2.649   4.417   0.451
 4431TIP3   OH234851   4.192   1.972   0.914
 4431TIP3    H134852   4.243   2.020   0.849
 4431TIP3    H234853   4.217   2.012   0.998
 4432TIP3   OH234854   5.486   2.733   7.465
 4432TIP3    H134855   5.466   2.692   7.549
 4432TIP3    H234856   5.441   2.680   7.400
 4433TIP3   OH234857   6.246   1.437   1.734
 4433TIP3    H134858   6.310   1.378   1.696
 4433TIP3    H234859   6.164   1.416   1.689
 4434TIP3   OH234860   6.132   3.246   1.401
 4434TIP3    H134861   6.222   3.248   1.368
 4434TIP3    H234862   6.103   3.156   1.385
 4435TIP3   OH234863   1.137   0.330   8.773
 4435TIP3    H134864   1.126   0.327   8.678
 4435TIP3    H234865   1.225   0.366   8.786
 4436TIP3   OH234866   0.652   3.030   7.396
 4436TIP3    H134867   0.730   2.977   7.380
 4436TIP3    H234868   0.681   3.120   7.384
 4437TIP3   OH234869   0.904   4.211   6.170
 4437TIP3    H134870   0.911   4.296   6.126
 4437TIP3    H234871   0.885   4.149   6.100
 4438TIP3   OH234872   1.601   2.907   1.208
 4438TIP3    H134873   1.532   2.867   1.154
 4438TIP3    H234874   1.613   2.845   1.280
 4439TIP3   OH234875   4.208   5.196   1.656
 4439TIP3    H134876   4.185   5.180   1.747
 4439TIP3    H234877   4.185   5.115   1.611
 4440TIP3   OH234878   3.400   2.321   6.653
 4440TIP3    H134879   3.322   2.349   6.606
 4440TIP3    H234880   3.390   2.227   6.664
 4441TIP3   OH234881   3.068   5.726   1.931
 4441TIP3    H134882   3.026   5.644   1.904
 4441TIP3    H234883   3.148   5.698   1.976
 4442TIP3   OH234884   1.347   6.399   1.258
 4442TIP3    H134885   1.273   6.363   1.307
 4442TIP3    H234886   1.309   6.425   1.174
 4443TIP3   OH234887   4.465   5.535   0.739
 4443TIP3    H134888   4.389   5.521   0.682
 4443TIP3    H234889   4.515   5.453   0.732
 4444TIP3   OH234890   3.479   5.302   7.361
 4444TIP3    H134891   3.492   5.209   7.342
 4444TIP3    H234892   3.422   5.303   7.437
 4445TIP3   OH234893   1.880   2.067   6.976
 4445TIP3    H134894   1.969   2.095   6.956
 4445TIP3    H234895   1.868   2.089   7.069
 4446TIP3   OH234896   1.279   2.558   0.451
 4446TIP3    H134897   1.205   2.607   0.414
 4446TIP3    H234898   1.242   2.511   0.526
 4447TIP3   OH234899   1.791   4.786   7.846
 4447TIP3    H134900   1.702   4.768   7.876
 4447TIP3    H234901   1.805   4.878   7.869
 4448TIP3   OH234902   3.253   1.360   1.146
 4448TIP3    H134903   3.191   1.298   1.107
 4448TIP3    H234904   3.329   1.307   1.170
 4449TIP3   OH234905   1.743   3.880   7.875
 4449TIP3    H134906   1.811   3.897   7.810
 4449TIP3    H234907   1.780   3.809   7.929
 4450TIP3   OH234908   3.510   6.577   8.190
 4450TIP3    H134909   3.501   6.577   8.285
 4450TIP3    H234910   3.421   6.586   8.157
 4451TIP3   OH234911   4.823   5.856   6.139
 4451TIP3    H134912   4.842   5.802   6.216
 4451TIP3    H234913   4.728   5.848   6.127
 4452TIP3   OH234914   5.402   5.459   1.600
 4452TIP3    H134915   5.389   5.373   1.560
 4452TIP3    H234916   5.403   5.441   1.694
 4453TIP3   OH234917   2.181   3.823   8.750
 4453TIP3    H134918   2.110   3.841   8.688
 4453TIP3    H234919   2.148   3.753   8.805
 4454TIP3   OH234920   6.456   1.281   7.874
 4454TIP3    H134921   6.438   1.206   7.818
 4454TIP3    H234922   6.537   1.258   7.919
 4455TIP3   OH234923   2.836   1.000   1.838
 4455TIP3    H134924   2.765   0.939   1.816
 4455TIP3    H234925   2.893   0.950   1.897
 4456TIP3   OH234926   3.326   1.460   0.829
 4456TIP3    H134927   3.415   1.433   0.806
 4456TIP3    H234928   3.317   1.435   0.921
 4457TIP3   OH234929   5.156   4.154   0.388
 4457TIP3    H134930   5.138   4.067   0.352
 4457TIP3    H234931   5.152   4.142   0.483
 4458TIP3   OH234932   0.673   5.320   0.038
 4458TIP3    H134933   0.719   5.280  -0.035
 4458TIP3    H234934   0.600   5.261   0.056
 4459TIP3   OH234935   0.993   2.918   0.816
 4459TIP3    H134936   0.960   2.995   0.863
 4459TIP3    H234937   0.948   2.920   0.731
 4460TIP3   OH234938   1.214   5.183   7.351
 4460TIP3    H134939   1.127   5.177   7.391
 4460TIP3    H234940   1.243   5.092   7.344
 4461TIP3   OH234941   4.458   4.019   6.121
 4461TIP3    H134942   4.435   4.110   6.104
 4461TIP3    H234943   4.466   4.013   6.216
 4462TIP3   OH234944   1.921   5.823   6.431
 4462TIP3    H134945   1.896   5.906   6.390
 4462TIP3    H234946   2.012   5.836   6.457
 4463TIP3   OH234947   4.127   0.407   1.429
 4463TIP3    H134948   4.106   0.407   1.523
 4463TIP3    H234949   4.144   0.499   1.409
 4464TIP3   OH234950   5.884   0.812   7.972
 4464TIP3    H134951   5.955   0.748   7.964
 4464TIP3    H234952   5.867   0.817   8.067
 4465TIP3   OH234953   2.538   4.787   0.939
 4465TIP3    H134954   2.617   4.793   0.886
 4465TIP3    H234955   2.481   4.856   0.905
 4466TIP3   OH234956   1.611   6.634   1.134
 4466TIP3    H134957   1.643   6.724   1.143
 4466TIP3    H234958   1.579   6.612   1.222
 4467TIP3   OH234959   1.203   2.455   0.064
 4467TIP3    H134960   1.187   2.364   0.036
 4467TIP3    H234961   1.281   2.449   0.120
 4468TIP3   OH234962   4.539   1.579   0.281
 4468TIP3    H134963   4.484   1.639   0.331
 4468TIP3    H234964   4.481   1.545   0.213
 4469TIP3   OH234965   4.231   4.989   7.073
 4469TIP3    H134966   4.159   4.927   7.063
 4469TIP3    H234967   4.249   5.020   6.984
 4470TIP3   OH234968   0.701   1.614   8.764
 4470TIP3    H134969   0.697   1.636   8.671
 4470TIP3    H234970   0.753   1.685   8.803
 4471TIP3   OH234971   4.078   5.037   7.933
 4471TIP3    H134972   4.169   5.068   7.936
 4471TIP3    H234973   4.060   5.009   8.023
 4472TIP3   OH234974   4.566   6.020   6.847
 4472TIP3    H134975   4.624   5.947   6.868
 4472TIP3    H234976   4.626   6.095   6.836
 4473TIP3   OH234977   3.077   2.031   0.061
 4473TIP3    H134978   3.065   2.093   0.133
 4473TIP3    H234979   3.001   2.047   0.004
 4474TIP3   OH234980   2.868   2.880   7.580
 4474TIP3    H134981   2.855   2.944   7.649
 4474TIP3    H234982   2.788   2.885   7.527
 4475TIP3   OH234983   5.289   2.681   1.794
 4475TIP3    H134984   5.246   2.617   1.738
 4475TIP3    H234985   5.233   2.686   1.872
 4476TIP3   OH234986   5.100   3.790   0.582
 4476TIP3    H134987   5.034   3.849   0.545
 4476TIP3    H234988   5.067   3.702   0.563
 4477TIP3   OH234989   0.570   3.726   8.750
 4477TIP3    H134990   0.660   3.759   8.746
 4477TIP3    H234991   0.542   3.745   8.840
 4478TIP3   OH234992   5.832   2.965   0.824
 4478TIP3    H134993   5.789   2.890   0.864
 4478TIP3    H234994   5.781   3.041   0.853
 4479TIP3   OH234995   0.516   0.600   1.445
 4479TIP3    H134996   0.519   0.687   1.483
 4479TIP3    H234997   0.556   0.543   1.511
 4480TIP3   OH234998   4.459   4.980   1.269
 4480TIP3    H134999   4.410   4.975   1.351
 4480TIP3    H235000   4.482   5.072   1.261
 4481TIP3   OH235001   6.025   5.253   1.128
 4481TIP3    H135002   6.082   5.288   1.059
 4481TIP3    H235003   5.937   5.278   1.101
 4482TIP3   OH235004   0.760   5.205   6.556
 4482TIP3    H135005   0.699   5.157   6.500
 4482TIP3    H235006   0.785   5.142   6.624
 4483TIP3   OH235007   5.777   4.154   0.231
 4483TIP3    H135008   5.756   4.172   0.139
 4483TIP3    H235009   5.813   4.236   0.264
 4484TIP3   OH235010   6.798   5.197   1.551
 4484TIP3    H135011   6.803   5.154   1.466
 4484TIP3    H235012   6.819   5.289   1.532
 4485TIP3   OH235013   4.979   0.173   8.818
 4485TIP3    H135014   4.954   0.140   8.732
 4485TIP3    H235015   4.943   0.110   8.880
 4486TIP3   OH235016   4.863   1.295   2.504
 4486TIP3    H135017   4.956   1.314   2.487
 4486TIP3    H235018   4.832   1.372   2.552
 4487TIP3   OH235019   0.272   0.004   6.907
 4487TIP3    H135020   0.241   0.041   6.824
 4487TIP3    H235021   0.351   0.053   6.927
 4488TIP3   OH235022   3.176   6.464   1.856
 4488TIP3    H135023   3.174   6.444   1.950
 4488TIP3    H235024   3.224   6.546   1.850
 4489TIP3   OH235025   2.812   4.943   1.060
 4489TIP3    H135026   2.899   4.931   1.097
 4489TIP3    H235027   2.809   4.883   0.985
 4490TIP3   OH235028   0.308   3.852   0.476
 4490TIP3    H135029   0.255   3.904   0.414
 4490TIP3    H235030   0.398   3.860   0.443
 4491TIP3   OH235031   1.460   0.892   6.684
 4491TIP3    H135032   1.544   0.928   6.712
 4491TIP3    H235033   1.462   0.801   6.712
 4492TIP3   OH235034   6.078   1.785   0.152
 4492TIP3    H135035   6.022   1.786   0.074
 4492TIP3    H235036   6.153   1.838   0.127
 4493TIP3   OH235037   0.528   0.555   6.444
 4493TIP3    H135038   0.472   0.632   6.436
 4493TIP3    H235039   0.567   0.544   6.357
 4494TIP3   OH235040   2.652   6.640   0.634
 4494TIP3    H135041   2.669   6.721   0.681
 4494TIP3    H235042   2.739   6.611   0.605
 4495TIP3   OH235043   4.890   5.723   7.259
 4495TIP3    H135044   4.818   5.713   7.322
 4495TIP3    H235045   4.859   5.680   7.179
 4496TIP3   OH235046   1.614   3.173   0.223
 4496TIP3    H135047   1.642   3.102   0.281
 4496TIP3    H235048   1.644   3.253   0.266
 4497TIP3   OH235049   0.164   4.159   8.092
 4497TIP3    H135050   0.214   4.090   8.135
 4497TIP3    H235051   0.204   4.168   8.006
 4498TIP3   OH235052   2.093   1.206   1.957
 4498TIP3    H135053   2.095   1.287   2.008
 4498TIP3    H235054   2.007   1.168   1.976
 4499TIP3   OH235055   2.581   0.369   1.787
 4499TIP3    H135056   2.609   0.307   1.854
 4499TIP3    H235057   2.658   0.422   1.768
 4500TIP3   OH235058   1.707   5.215   2.205
 4500TIP3    H135059   1.762   5.270   2.260
 4500TIP3    H235060   1.672   5.148   2.265
 4501TIP3   OH235061   0.612   5.227   7.788
 4501TIP3    H135062   0.536   5.174   7.813
 4501TIP3    H235063   0.602   5.308   7.839
 4502TIP3   OH235064   5.978   3.829   7.675
 4502TIP3    H135065   6.017   3.916   7.681
 4502TIP3    H235066   5.958   3.805   7.765
 4503TIP3   OH235067   0.424   6.111   8.406
 4503TIP3    H135068   0.408   6.197   8.444
 4503TIP3    H235069   0.338   6.083   8.374
 4504TIP3   OH235070   2.349   0.380   7.519
 4504TIP3    H135071   2.338   0.431   7.439
 4504TIP3    H235072   2.429   0.330   7.504
 4505TIP3   OH235073   0.938   0.092   8.390
 4505TIP3    H135074   0.891   0.143   8.324
 4505TIP3    H235075   0.914   0.001   8.373
 4506TIP3   OH235076   1.031   3.907   7.704
 4506TIP3    H135077   0.985   3.908   7.620
 4506TIP3    H235078   1.069   3.820   7.709
 4507TIP3   OH235079   1.584   6.600   7.866
 4507TIP3    H135080   1.613   6.660   7.798
 4507TIP3    H235081   1.663   6.554   7.893
 4508TIP3   OH235082   4.189   6.366   7.566
 4508TIP3    H135083   4.172   6.273   7.586
 4508TIP3    H235084   4.281   6.379   7.587
 4509TIP3   OH235085   2.428   6.616   6.750
 4509TIP3    H135086   2.491   6.593   6.682
 4509TIP3    H235087   2.438   6.710   6.763
 4510TIP3   OH235088   6.651   1.151   1.515
 4510TIP3    H135089   6.682   1.242   1.522
 4510TIP3    H235090   6.668   1.127   1.424
 4511TIP3   OH235091   5.819   6.572   0.009
 4511TIP3    H135092   5.838   6.522  -0.071
 4511TIP3    H235093   5.729   6.549   0.031
 4512TIP3   OH235094   4.358   6.299   1.658
 4512TIP3    H135095   4.377   6.379   1.609
 4512TIP3    H235096   4.369   6.229   1.594
 4513TIP3   OH235097   1.973   0.631   0.906
 4513TIP3    H135098   2.005   0.697   0.968
 4513TIP3    H235099   1.889   0.665   0.876
 4514TIP3   OH235100   3.255   5.121   1.697
 4514TIP3    H135101   3.340   5.137   1.739
 4514TIP3    H235102   3.202   5.078   1.763
 4515TIP3   OH235103   6.317   4.501   0.188
 4515TIP3    H135104   6.274   4.586   0.198
 4515TIP3    H235105   6.379   4.515   0.116
 4516TIP3   OH235106   5.463   1.331   8.278
 4516TIP3    H135107   5.476   1.236   8.282
 4516TIP3    H235108   5.546   1.368   8.308
 4517TIP3   OH235109   2.338   5.882   1.020
 4517TIP3    H135110   2.384   5.834   0.951
 4517TIP3    H235111   2.246   5.875   0.997
 4518TIP3   OH235112   5.624   3.011   7.905
 4518TIP3    H135113   5.629   3.051   7.992
 4518TIP3    H235114   5.713   2.981   7.886
 4519TIP3   OH235115   3.267   5.862   1.802
 4519TIP3    H135116   3.192   5.843   1.859
 4519TIP3    H235117   3.232   5.855   1.713
 4520TIP3   OH235118   2.776   0.920   8.367
 4520TIP3    H135119   2.850   0.874   8.406
 4520TIP3    H235120   2.750   0.866   8.293
 4521TIP3   OH235121   0.805   2.196   6.465
 4521TIP3    H135122   0.837   2.238   6.385
 4521TIP3    H235123   0.722   2.239   6.484
 4522TIP3   OH235124   2.858   3.644   7.790
 4522TIP3    H135125   2.930   3.645   7.853
 4522TIP3    H235126   2.791   3.589   7.831
 4523TIP3   OH235127   0.819   2.492   8.632
 4523TIP3    H135128   0.814   2.512   8.539
 4523TIP3    H235129   0.729   2.468   8.656
 4524TIP3   OH235130   4.882   1.721   0.459
 4524TIP3    H135131   4.922   1.780   0.523
 4524TIP3    H235132   4.944   1.718   0.386
 4525TIP3   OH235133   0.690   1.631   1.299
 4525TIP3    H135134   0.633   1.652   1.372
 4525TIP3    H235135   0.710   1.538   1.309
 4526TIP3   OH235136   4.626   0.247   6.294
 4526TIP3    H135137   4.641   0.296   6.214
 4526TIP3    H235138   4.532   0.228   6.294
 4527TIP3   OH235139   6.095   4.534   8.095
 4527TIP3    H135140   6.178   4.554   8.050
 4527TIP3    H235141   6.080   4.441   8.079
 4528TIP3   OH235142   1.107   6.224   1.353
 4528TIP3    H135143   1.117   6.145   1.405
 4528TIP3    H235144   1.019   6.218   1.316
 4529TIP3   OH235145   5.804   4.514   1.711
 4529TIP3    H135146   5.863   4.568   1.659
 4529TIP3    H235147   5.815   4.426   1.675
 4530TIP3   OH235148   3.879   2.201   7.517
 4530TIP3    H135149   3.834   2.150   7.585
 4530TIP3    H235150   3.944   2.253   7.564
 4531TIP3   OH235151   2.826   3.149   8.799
 4531TIP3    H135152   2.885   3.187   8.734
 4531TIP3    H235153   2.859   3.182   8.883
 4532TIP3   OH235154   0.214   3.752   8.747
 4532TIP3    H135155   0.266   3.758   8.827
 4532TIP3    H235156   0.278   3.752   8.677
 4533TIP3   OH235157   3.868   3.803   8.137
 4533TIP3    H135158   3.782   3.764   8.155
 4533TIP3    H235159   3.929   3.730   8.140
 4534TIP3   OH235160   5.928   1.069   7.837
 4534TIP3    H135161   6.022   1.072   7.820
 4534TIP3    H235162   5.910   0.978   7.858
 4535TIP3   OH235163   0.192   1.459   8.233
 4535TIP3    H135164   0.152   1.415   8.307
 4535TIP3    H235165   0.130   1.528   8.209
 4536TIP3   OH235166   0.923   3.402   7.110
 4536TIP3    H135167   0.977   3.349   7.169
 4536TIP3    H235168   0.887   3.471   7.166
 4537TIP3   OH235169   1.539   6.567   1.392
 4537TIP3    H135170   1.477   6.508   1.349
 4537TIP3    H235171   1.507   6.575   1.482
 4538TIP3   OH235172   4.133   2.115   8.602
 4538TIP3    H135173   4.065   2.051   8.582
 4538TIP3    H235174   4.197   2.067   8.654
 4539TIP3   OH235175   2.557   1.383   1.780
 4539TIP3    H135176   2.498   1.425   1.842
 4539TIP3    H235177   2.620   1.452   1.756
 4540TIP3   OH235178   1.467   6.344   0.704
 4540TIP3    H135179   1.558   6.316   0.688
 4540TIP3    H235180   1.456   6.422   0.650
 4541TIP3   OH235181   6.119   5.595   7.906
 4541TIP3    H135182   6.147   5.570   7.993
 4541TIP3    H235183   6.152   5.525   7.849
 4542TIP3   OH235184   4.338   4.463   0.919
 4542TIP3    H135185   4.291   4.418   0.849
 4542TIP3    H235186   4.271   4.513   0.966
 4543TIP3   OH235187   0.227   3.378   6.537
 4543TIP3    H135188   0.137   3.407   6.522
 4543TIP3    H235189   0.267   3.382   6.450
 4544TIP3   OH235190   0.608   5.852   1.516
 4544TIP3    H135191   0.694   5.881   1.547
 4544TIP3    H235192   0.561   5.828   1.596
 4545TIP3   OH235193   1.826   4.387   6.888
 4545TIP3    H135194   1.868   4.393   6.802
 4545TIP3    H235195   1.732   4.384   6.868
 4546TIP3   OH235196   4.421   3.330   6.382
 4546TIP3    H135197   4.362   3.337   6.456
 4546TIP3    H235198   4.508   3.347   6.418
 4547TIP3   OH235199   5.943   4.451   8.606
 4547TIP3    H135200   5.948   4.358   8.627
 4547TIP3    H235201   5.896   4.490   8.680
 4548TIP3   OH235202   5.693   2.874   2.246
 4548TIP3    H135203   5.607   2.905   2.275
 4548TIP3    H235204   5.728   2.946   2.193
 4549TIP3   OH235205   0.096   1.561   1.717
 4549TIP3    H135206   0.042   1.573   1.638
 4549TIP3    H235207   0.036   1.529   1.783
 4550TIP3   OH235208   0.312   0.373   6.445
 4550TIP3    H135209   0.392   0.331   6.415
 4550TIP3    H235210   0.335   0.466   6.454
 4551TIP3   OH235211   4.490   4.059   6.609
 4551TIP3    H135212   4.440   4.046   6.528
 4551TIP3    H235213   4.451   4.137   6.649
 4552TIP3   OH235214   5.490   0.157   0.221
 4552TIP3    H135215   5.436   0.220   0.173
 4552TIP3    H235216   5.580   0.178   0.197
 4553TIP3   OH235217   2.247   3.359   1.780
 4553TIP3    H135218   2.296   3.288   1.738
 4553TIP3    H235219   2.185   3.315   1.838
 4554TIP3   OH235220   3.018   3.705   8.033
 4554TIP3    H135221   3.049   3.778   7.980
 4554TIP3    H235222   3.064   3.713   8.116
 4555TIP3   OH235223   0.773   3.735   0.826
 4555TIP3    H135224   0.789   3.707   0.916
 4555TIP3    H235225   0.686   3.701   0.805
 4556TIP3   OH235226   5.579   5.162   0.402
 4556TIP3    H135227   5.508   5.098   0.410
 4556TIP3    H235228   5.641   5.121   0.342
 4557TIP3   OH235229   6.451   1.224   1.690
 4557TIP3    H135230   6.403   1.142   1.704
 4557TIP3    H235231   6.521   1.201   1.628
 4558TIP3   OH235232   0.402   4.225   0.808
 4558TIP3    H135233   0.328   4.205   0.751
 4558TIP3    H235234   0.379   4.187   0.893
 4559TIP3   OH235235   6.748   5.273   7.644
 4559TIP3    H135236   6.717   5.183   7.656
 4559TIP3    H235237   6.742   5.289   7.550
 4560TIP3   OH235238   1.695   6.079   0.804
 4560TIP3    H135239   1.780   6.074   0.761
 4560TIP3    H235240   1.701   6.155   0.862
 4561TIP3   OH235241   2.846   6.383   1.126
 4561TIP3    H135242   2.804   6.413   1.046
 4561TIP3    H235243   2.773   6.366   1.186
 4562TIP3   OH235244   5.921   1.078   1.265
 4562TIP3    H135245   5.886   1.095   1.353
 4562TIP3    H235246   5.924   1.165   1.224
 4563TIP3   OH235247   6.388   0.589   2.295
 4563TIP3    H135248   6.295   0.565   2.289
 4563TIP3    H235249   6.430   0.536   2.228
 4564TIP3   OH235250   4.453   6.668   1.217
 4564TIP3    H135251   4.535   6.677   1.264
 4564TIP3    H235252   4.460   6.583   1.172
 4565TIP3   OH235253   6.773   3.578   7.407
 4565TIP3    H135254   6.797   3.663   7.371
 4565TIP3    H235255   6.855   3.529   7.409
 4566TIP3   OH235256   3.054   6.268   0.102
 4566TIP3    H135257   3.043   6.311   0.017
 4566TIP3    H235258   3.042   6.338   0.166
 4567TIP3   OH235259   6.319   2.756   2.036
 4567TIP3    H135260   6.254   2.741   2.105
 4567TIP3    H235261   6.363   2.671   2.027
 4568TIP3   OH235262   3.140   5.329   7.196
 4568TIP3    H135263   3.214   5.268   7.199
 4568TIP3    H235264   3.069   5.279   7.157
 4569TIP3   OH235265   3.476   2.257   2.124
 4569TIP3    H135266   3.436   2.331   2.079
 4569TIP3    H235267   3.558   2.291   2.160
 4570TIP3   OH235268   0.337   0.180   0.901
 4570TIP3    H135269   0.340   0.217   0.989
 4570TIP3    H235270   0.362   0.253   0.844
 4571TIP3   OH235271   1.218   0.677   0.118
 4571TIP3    H135272   1.188   0.628   0.194
 4571TIP3    H235273   1.249   0.610   0.057
 4572TIP3   OH235274   2.227   5.013   8.721
 4572TIP3    H135275   2.163   5.076   8.688
 4572TIP3    H235276   2.247   5.043   8.809
 4573TIP3   OH235277   2.957   1.625   6.975
 4573TIP3    H135278   2.960   1.666   6.888
 4573TIP3    H235279   3.028   1.561   6.973
 4574TIP3   OH235280   4.067   5.879   2.129
 4574TIP3    H135281   3.976   5.851   2.134
 4574TIP3    H235282   4.096   5.881   2.221
 4575TIP3   OH235283   5.115   2.536   1.394
 4575TIP3    H135284   5.163   2.527   1.476
 4575TIP3    H235285   5.030   2.495   1.412
 4576TIP3   OH235286   1.945   0.671   6.896
 4576TIP3    H135287   2.007   0.712   6.836
 4576TIP3    H235288   1.999   0.634   6.966
 4577TIP3   OH235289   0.985   2.834   8.196
 4577TIP3    H135290   0.916   2.864   8.137
 4577TIP3    H235291   1.066   2.866   8.158
 4578TIP3   OH235292   3.574   0.329   7.591
 4578TIP3    H135293   3.641   0.288   7.535
 4578TIP3    H235294   3.610   0.322   7.679
 4579TIP3   OH235295   3.660   5.398   0.452
 4579TIP3    H135296   3.727   5.459   0.422
 4579TIP3    H235297   3.611   5.375   0.374
 4580TIP3   OH235298   4.501   2.805   7.747
 4580TIP3    H135299   4.523   2.897   7.732
 4580TIP3    H235300   4.570   2.773   7.805
 4581TIP3   OH235301   6.109   1.948   0.502
 4581TIP3    H135302   6.018   1.979   0.501
 4581TIP3    H235303   6.102   1.857   0.531
 4582TIP3   OH235304   3.295   4.111   0.589
 4582TIP3    H135305   3.262   4.199   0.570
 4582TIP3    H235306   3.383   4.110   0.551
 4583TIP3   OH235307   0.386   0.909   6.469
 4583TIP3    H135308   0.481   0.920   6.466
 4583TIP3    H235309   0.354   0.962   6.396
 4584TIP3   OH235310   4.641   3.563   7.500
 4584TIP3    H135311   4.636   3.654   7.530
 4584TIP3    H235312   4.565   3.552   7.444
 4585TIP3   OH235313   0.975   1.355   8.683
 4585TIP3    H135314   1.057   1.395   8.713
 4585TIP3    H235315   0.936   1.319   8.763
 4586TIP3   OH235316   5.077   1.863   2.452
 4586TIP3    H135317   5.130   1.806   2.396
 4586TIP3    H235318   5.138   1.896   2.517
 4587TIP3   OH235319   2.224   3.393   7.630
 4587TIP3    H135320   2.313   3.408   7.600
 4587TIP3    H235321   2.168   3.419   7.556
 4588TIP3   OH235322   4.923   3.106   1.387
 4588TIP3    H135323   4.891   3.138   1.303
 4588TIP3    H235324   4.959   3.019   1.368
 4589TIP3   OH235325   0.621   2.189   6.760
 4589TIP3    H135326   0.535   2.159   6.732
 4589TIP3    H235327   0.639   2.266   6.707
 4590TIP3   OH235328   2.904   5.714   0.449
 4590TIP3    H135329   2.844   5.691   0.378
 4590TIP3    H235330   2.934   5.802   0.428
 4591TIP3   OH235331   5.889   5.422   0.138
 4591TIP3    H135332   5.832   5.471   0.198
 4591TIP3    H235333   5.881   5.331   0.167
 4592TIP3   OH235334   1.508   0.188   0.884
 4592TIP3    H135335   1.514   0.124   0.813
 4592TIP3    H235336   1.509   0.135   0.963
 4593TIP3   OH235337   1.682   5.586   2.400
 4593TIP3    H135338   1.741   5.518   2.367
 4593TIP3    H235339   1.595   5.558   2.372
 4594TIP3   OH235340   5.241   4.803   0.349
 4594TIP3    H135341   5.306   4.735   0.333
 4594TIP3    H235342   5.167   4.758   0.387
 4595TIP3   OH235343   6.469   0.517   7.573
 4595TIP3    H135344   6.489   0.468   7.493
 4595TIP3    H235345   6.514   0.601   7.560
 4596TIP3   OH235346   4.514   2.393   8.789
 4596TIP3    H135347   4.496   2.330   8.719
 4596TIP3    H235348   4.589   2.356   8.835
 4597TIP3   OH235349   4.971   4.385   2.014
 4597TIP3    H135350   4.962   4.447   1.942
 4597TIP3    H235351   4.993   4.439   2.090
 4598TIP3   OH235352   6.493   0.820   2.331
 4598TIP3    H135353   6.479   0.730   2.300
 4598TIP3    H235354   6.413   0.841   2.380
 4599TIP3   OH235355   4.721   1.514   2.562
 4599TIP3    H135356   4.713   1.498   2.468
 4599TIP3    H235357   4.646   1.571   2.582
 4600TIP3   OH235358   4.739   3.036   1.646
 4600TIP3    H135359   4.671   2.972   1.624
 4600TIP3    H235360   4.764   3.075   1.562
 4601TIP3   OH235361   5.040   2.661   7.795
 4601TIP3    H135362   5.030   2.756   7.798
 4601TIP3    H235363   5.016   2.637   7.705
 4602TIP3   OH235364   5.751   6.772   8.228
 4602TIP3    H135365   5.815   6.838   8.251
 4602TIP3    H235366   5.716   6.800   8.143
 4603TIP3   OH235367   3.819   5.082   0.437
 4603TIP3    H135368   3.808   5.152   0.501
 4603TIP3    H235369   3.799   5.124   0.353
 4604TIP3   OH235370   4.918   4.278   8.330
 4604TIP3    H135371   4.912   4.208   8.265
 4604TIP3    H235372   4.855   4.253   8.397
 4605TIP3   OH235373   0.738   2.584   6.617
 4605TIP3    H135374   0.796   2.546   6.682
 4605TIP3    H235375   0.680   2.512   6.591
 4606TIP3   OH235376   3.973   0.947   2.426
 4606TIP3    H135377   3.923   1.026   2.446
 4606TIP3    H235378   4.061   0.979   2.406
 4607TIP3   OH235379   6.018   1.467   1.577
 4607TIP3    H135380   5.987   1.555   1.599
 4607TIP3    H235381   5.951   1.432   1.518
 4608TIP3   OH235382   0.599   0.310   0.986
 4608TIP3    H135383   0.657   0.283   0.914
 4608TIP3    H235384   0.531   0.361   0.943
 4609TIP3   OH235385   4.316   6.468   2.423
 4609TIP3    H135386   4.238   6.523   2.426
 4609TIP3    H235387   4.355   6.486   2.338
 4610TIP3   OH235388   3.436   0.968   6.422
 4610TIP3    H135389   3.432   0.894   6.361
 4610TIP3    H235390   3.345   0.993   6.435
 4611TIP3   OH235391   5.862   0.694   0.036
 4611TIP3    H135392   5.897   0.696   0.125
 4611TIP3    H235393   5.937   0.713  -0.020
 4612TIP3   OH235394   3.242   1.214   1.911
 4612TIP3    H135395   3.253   1.151   1.839
 4612TIP3    H235396   3.159   1.258   1.892
 4613TIP3   OH235397   6.755   6.199   1.520
 4613TIP3    H135398   6.839   6.174   1.560
 4613TIP3    H235399   6.690   6.179   1.587
 4614TIP3   OH235400   3.417   2.285   1.337
 4614TIP3    H135401   3.377   2.232   1.406
 4614TIP3    H235402   3.349   2.292   1.270
 4615TIP3   OH235403   6.261   1.598   1.006
 4615TIP3    H135404   6.342   1.571   0.963
 4615TIP3    H235405   6.241   1.526   1.066
 4616TIP3   OH235406   3.440   0.712   7.337
 4616TIP3    H135407   3.505   0.736   7.404
 4616TIP3    H235408   3.416   0.622   7.359
 4617TIP3   OH235409   5.546   0.191   0.845
 4617TIP3    H135410   5.528   0.173   0.937
 4617TIP3    H235411   5.460   0.198   0.804
 4618TIP3   OH235412   6.519   6.746   0.662
 4618TIP3    H135413   6.441   6.692   0.673
 4618TIP3    H235414   6.491   6.816   0.603
 4619TIP3   OH235415   1.317   4.753   1.947
 4619TIP3    H135416   1.410   4.739   1.926
 4619TIP3    H235417   1.287   4.667   1.977
 4620TIP3   OH235418   3.586   4.198   1.803
 4620TIP3    H135419   3.605   4.171   1.713
 4620TIP3    H235420   3.628   4.285   1.810
 4621TIP3   OH235421   3.381   5.574   8.538
 4621TIP3    H135422   3.450   5.634   8.565
 4621TIP3    H235423   3.299   5.621   8.556
 4622TIP3   OH235424   1.075   0.271   8.521
 4622TIP3    H135425   1.143   0.206   8.497
 4622TIP3    H235426   0.993   0.226   8.503
 4623TIP3   OH235427   6.797   6.231   1.011
 4623TIP3    H135428   6.842   6.215   1.094
 4623TIP3    H235429   6.720   6.281   1.035
 4624TIP3   OH235430   3.369   5.090   1.109
 4624TIP3    H135431   3.309   5.077   1.036
 4624TIP3    H235432   3.401   5.179   1.099
 4625TIP3   OH235433   6.279   2.036   0.318
 4625TIP3    H135434   6.208   2.025   0.382
 4625TIP3    H235435   6.264   1.965   0.255
 4626TIP3   OH235436   0.022   0.206   2.046
 4626TIP3    H135437   0.005   0.123   2.091
 4626TIP3    H235438   0.117   0.212   2.042
 4627TIP3   OH235439   1.310   1.555   0.762
 4627TIP3    H135440   1.294   1.596   0.677
 4627TIP3    H235441   1.223   1.546   0.801
 4628TIP3   OH235442   6.742   1.599   7.614
 4628TIP3    H135443   6.735   1.695   7.612
 4628TIP3    H235444   6.834   1.581   7.597
 4629TIP3   OH235445   3.919   1.142   0.694
 4629TIP3    H135446   3.853   1.087   0.651
 4629TIP3    H235447   3.993   1.141   0.633
 4630TIP3   OH235448   6.561   4.115   1.276
 4630TIP3    H135449   6.499   4.148   1.211
 4630TIP3    H235450   6.614   4.192   1.298
 4631TIP3   OH235451   1.335   5.019   6.661
 4631TIP3    H135452   1.315   4.983   6.574
 4631TIP3    H235453   1.315   5.112   6.654
 4632TIP3   OH235454   5.480   5.390   0.020
 4632TIP3    H135455   5.464   5.342  -0.061
 4632TIP3    H235456   5.574   5.407   0.020
 4633TIP3   OH235457   2.077   0.303   0.484
 4633TIP3    H135458   2.134   0.239   0.525
 4633TIP3    H235459   1.992   0.259   0.478
 4634TIP3   OH235460   0.558   1.044   0.888
 4634TIP3    H135461   0.532   0.991   0.812
 4634TIP3    H235462   0.475   1.072   0.926
 4635TIP3   OH235463   1.375   5.000   1.544
 4635TIP3    H135464   1.420   4.918   1.567
 4635TIP3    H235465   1.331   5.027   1.624
 4636TIP3   OH235466   1.696   0.537   1.126
 4636TIP3    H135467   1.700   0.516   1.033
 4636TIP3    H235468   1.633   0.475   1.163
 4637TIP3   OH235469   6.102   5.810   8.440
 4637TIP3    H135470   6.142   5.841   8.521
 4637TIP3    H235471   6.141   5.724   8.425
 4638TIP3   OH235472   1.652   6.227   1.125
 4638TIP3    H135473   1.559   6.238   1.102
 4638TIP3    H235474   1.660   6.136   1.151
 4639TIP3   OH235475   2.522   5.931   1.238
 4639TIP3    H135476   2.463   5.936   1.163
 4639TIP3    H235477   2.527   5.838   1.260
 4640TIP3   OH235478   2.908   6.510   0.552
 4640TIP3    H135479   2.945   6.587   0.595
 4640TIP3    H235480   2.941   6.436   0.603
 4641TIP3   OH235481   0.809   4.300   0.864
 4641TIP3    H135482   0.741   4.355   0.826
 4641TIP3    H235483   0.859   4.267   0.789
 4642TIP3   OH235484   4.162   5.127   0.892
 4642TIP3    H135485   4.156   5.053   0.952
 4642TIP3    H235486   4.114   5.198   0.936
 4643TIP3   OH235487   1.162   4.380   0.594
 4643TIP3    H135488   1.255   4.386   0.615
 4643TIP3    H235489   1.128   4.312   0.651
 4644TIP3   OH235490   1.395   4.348   7.707
 4644TIP3    H135491   1.424   4.342   7.615
 4644TIP3    H235492   1.399   4.258   7.739
 4645TIP3   OH235493   1.999   2.068   0.866
 4645TIP3    H135494   1.935   2.020   0.917
 4645TIP3    H235495   1.947   2.119   0.804
 4646TIP3   OH235496   1.066   0.471   8.341
 4646TIP3    H135497   1.074   0.438   8.251
 4646TIP3    H235498   1.076   0.393   8.396
 4647TIP3   OH235499   6.270   0.516   6.682
 4647TIP3    H135500   6.296   0.436   6.636
 4647TIP3    H235501   6.342   0.578   6.664
 4648TIP3   OH235502   5.659   0.466   0.400
 4648TIP3    H135503   5.655   0.375   0.427
 4648TIP3    H235504   5.587   0.508   0.447
 4649TIP3   OH235505   0.545   4.938   0.565
 4649TIP3    H135506   0.626   4.989   0.567
 4649TIP3    H235507   0.523   4.924   0.657
 4650TIP3   OH235508   2.794   4.506   1.064
 4650TIP3    H135509   2.710   4.519   1.107
 4650TIP3    H235510   2.855   4.563   1.112
 4651TIP3   OH235511   1.282   5.425   7.034
 4651TIP3    H135512   1.251   5.436   6.944
 4651TIP3    H235513   1.220   5.474   7.088
 4652TIP3   OH235514   0.943   1.736   6.254
 4652TIP3    H135515   1.035   1.759   6.250
 4652TIP3    H235516   0.900   1.799   6.196
 4653TIP3   OH235517   3.723   6.642   2.392
 4653TIP3    H135518   3.713   6.556   2.433
 4653TIP3    H235519   3.635   6.665   2.361
 4654TIP3   OH235520   1.546   5.808   1.121
 4654TIP3    H135521   1.622   5.800   1.063
 4654TIP3    H235522   1.559   5.892   1.166
 4655TIP3   OH235523   4.239   3.390   1.126
 4655TIP3    H135524   4.184   3.404   1.049
 4655TIP3    H235525   4.280   3.475   1.142
 4656TIP3   OH235526   2.446   0.671   1.357
 4656TIP3    H135527   2.429   0.689   1.449
 4656TIP3    H235528   2.363   0.691   1.314
 4657TIP3   OH235529   4.587   0.626   0.732
 4657TIP3    H135530   4.539   0.577   0.799
 4657TIP3    H235531   4.649   0.679   0.782
 4658TIP3   OH235532   1.496   4.482   7.442
 4658TIP3    H135533   1.558   4.456   7.374
 4658TIP3    H235534   1.551   4.501   7.518
 4659TIP3   OH235535   2.062   0.516   7.093
 4659TIP3    H135536   2.155   0.508   7.071
 4659TIP3    H235537   2.047   0.446   7.156
 4660TIP3   OH235538   4.051   4.519   6.935
 4660TIP3    H135539   4.074   4.426   6.928
 4660TIP3    H235540   4.013   4.541   6.850
 4661TIP3   OH235541   4.712   2.825   6.852
 4661TIP3    H135542   4.713   2.769   6.930
 4661TIP3    H235543   4.654   2.779   6.791
 4662TIP3   OH235544   3.076   5.024   8.473
 4662TIP3    H135545   3.153   5.075   8.447
 4662TIP3    H235546   3.038   5.072   8.546
 4663TIP3   OH235547   5.754   6.206   6.816
 4663TIP3    H135548   5.755   6.248   6.730
 4663TIP3    H235549   5.740   6.113   6.798
 4664TIP3   OH235550   5.429   6.548   0.770
 4664TIP3    H135551   5.474   6.522   0.690
 4664TIP3    H235552   5.462   6.488   0.837
 4665TIP3   OH235553   2.887   5.341   8.114
 4665TIP3    H135554   2.969   5.358   8.161
 4665TIP3    H235555   2.867   5.249   8.133
 4666TIP3   OH235556   3.884   6.658   1.625
 4666TIP3    H135557   3.919   6.569   1.620
 4666TIP3    H235558   3.866   6.682   1.534
 4667TIP3   OH235559   4.675   6.158   1.832
 4667TIP3    H135560   4.598   6.206   1.800
 4667TIP3    H235561   4.652   6.134   1.922
 4668TIP3   OH235562   5.777   0.744   0.918
 4668TIP3    H135563   5.872   0.741   0.929
 4668TIP3    H235564   5.757   0.837   0.909
 4669TIP3   OH235565   5.476   0.295   8.092
 4669TIP3    H135566   5.429   0.377   8.073
 4669TIP3    H235567   5.479   0.290   8.187
 4670TIP3   OH235568   1.895   4.508   0.188
 4670TIP3    H135569   1.926   4.420   0.211
 4670TIP3    H235570   1.975   4.559   0.175
 4671TIP3   OH235571   1.132   4.101   6.318
 4671TIP3    H135572   1.127   4.145   6.403
 4671TIP3    H235573   1.060   4.138   6.268
 4672TIP3   OH235574   1.083   5.857   8.262
 4672TIP3    H135575   1.152   5.916   8.294
 4672TIP3    H235576   1.130   5.782   8.227
 4673TIP3   OH235577   5.266   4.352   0.215
 4673TIP3    H135578   5.228   4.296   0.283
 4673TIP3    H235579   5.213   4.432   0.217
 4674TIP3   OH235580   1.530   3.466   8.563
 4674TIP3    H135581   1.483   3.543   8.594
 4674TIP3    H235582   1.468   3.423   8.503
 4675TIP3   OH235583   1.404   0.184   0.185
 4675TIP3    H135584   1.408   0.279   0.177
 4675TIP3    H235585   1.353   0.156   0.109
 4676TIP3   OH235586   0.643   6.415   6.893
 4676TIP3    H135587   0.721   6.396   6.841
 4676TIP3    H235588   0.581   6.347   6.868
 4677TIP3   OH235589   5.093   4.532   7.037
 4677TIP3    H135590   5.170   4.478   7.055
 4677TIP3    H235591   5.116   4.579   6.957
 4678TIP3   OH235592   3.794   1.032   6.852
 4678TIP3    H135593   3.712   0.997   6.820
 4678TIP3    H235594   3.777   1.125   6.864
 4679TIP3   OH235595   1.138   0.435   1.615
 4679TIP3    H135596   1.204   0.368   1.635
 4679TIP3    H235597   1.056   0.399   1.648
 4680TIP3   OH235598   3.353   1.888   8.022
 4680TIP3    H135599   3.430   1.941   8.002
 4680TIP3    H235600   3.292   1.905   7.950
 4681TIP3   OH235601   6.401   5.741   7.965
 4681TIP3    H135602   6.487   5.782   7.964
 4681TIP3    H235603   6.418   5.650   7.987
 4682TIP3   OH235604   6.235   3.622   7.254
 4682TIP3    H135605   6.304   3.641   7.318
 4682TIP3    H235606   6.232   3.699   7.198
 4683TIP3   OH235607   1.087   0.720   0.744
 4683TIP3    H135608   1.124   0.747   0.828
 4683TIP3    H235609   1.136   0.642   0.719
 4684TIP3   OH235610   3.136   0.885   7.449
 4684TIP3    H135611   3.180   0.955   7.497
 4684TIP3    H235612   3.160   0.805   7.495
 4685TIP3   OH235613   0.814   0.077   7.626
 4685TIP3    H135614   0.724   0.072   7.594
 4685TIP3    H235615   0.867   0.055   7.550
 4686TIP3   OH235616   1.685   1.021   8.436
 4686TIP3    H135617   1.640   1.042   8.518
 4686TIP3    H235618   1.637   1.069   8.369
 4687TIP3   OH235619   4.467   1.251   0.581
 4687TIP3    H135620   4.513   1.335   0.586
 4687TIP3    H235621   4.456   1.235   0.487
 4688TIP3   OH235622   2.252   1.883   7.375
 4688TIP3    H135623   2.292   1.801   7.404
 4688TIP3    H235624   2.161   1.861   7.358
 4689TIP3   OH235625   2.765   2.274   0.403
 4689TIP3    H135626   2.674   2.278   0.434
 4689TIP3    H235627   2.757   2.275   0.308
 4690TIP3   OH235628   0.007   2.990   6.652
 4690TIP3    H135629  -0.075   2.942   6.667
 4690TIP3    H235630  -0.020   3.066   6.602
 4691TIP3   OH235631   4.160   6.015   7.324
 4691TIP3    H135632   4.085   6.074   7.331
 4691TIP3    H235633   4.152   5.958   7.401
 4692TIP3   OH235634   0.627   2.130   7.352
 4692TIP3    H135635   0.667   2.089   7.276
 4692TIP3    H235636   0.700   2.141   7.414
 4693TIP3   OH235637   6.466   5.800   8.407
 4693TIP3    H135638   6.487   5.731   8.343
 4693TIP3    H235639   6.400   5.853   8.364
 4694TIP3   OH235640   6.287   2.691   0.947
 4694TIP3    H135641   6.328   2.606   0.927
 4694TIP3    H235642   6.316   2.748   0.876
 4695TIP3   OH235643   3.075   3.234   8.670
 4695TIP3    H135644   3.119   3.315   8.694
 4695TIP3    H235645   3.033   3.253   8.585
 4696TIP3   OH235646   1.203   0.345   7.412
 4696TIP3    H135647   1.207   0.250   7.401
 4696TIP3    H235648   1.198   0.358   7.506
 4697TIP3   OH235649   2.962   4.022   8.178
 4697TIP3    H135650   3.035   3.960   8.180
 4697TIP3    H235651   3.003   4.108   8.170
 4698TIP3   OH235652   2.212   6.468   8.549
 4698TIP3    H135653   2.219   6.502   8.639
 4698TIP3    H235654   2.301   6.476   8.514
 4699TIP3   OH235655   3.462   3.447   2.206
 4699TIP3    H135656   3.452   3.356   2.180
 4699TIP3    H235657   3.403   3.496   2.150
 4700TIP3   OH235658   5.391   2.325   8.023
 4700TIP3    H135659   5.307   2.317   7.978
 4700TIP3    H235660   5.447   2.260   7.980
 4701TIP3   OH235661   0.105   5.941   1.441
 4701TIP3    H135662   0.013   5.919   1.432
 4701TIP3    H235663   0.118   5.951   1.535
 4702TIP3   OH235664   0.756   3.869   2.084
 4702TIP3    H135665   0.807   3.857   2.163
 4702TIP3    H235666   0.735   3.963   2.082
 4703TIP3   OH235667   1.163   4.733   1.566
 4703TIP3    H135668   1.152   4.726   1.661
 4703TIP3    H235669   1.216   4.656   1.543
 4704TIP3   OH235670   3.977   6.725   8.142
 4704TIP3    H135671   3.937   6.680   8.216
 4704TIP3    H235672   4.023   6.656   8.094
 4705TIP3   OH235673   6.483   0.987   0.153
 4705TIP3    H135674   6.548   0.918   0.142
 4705TIP3    H235675   6.409   0.944   0.196
 4706TIP3   OH235676   2.339   4.946   1.775
 4706TIP3    H135677   2.362   5.003   1.849
 4706TIP3    H235678   2.373   4.860   1.800
 4707TIP3   OH235679   6.020   4.776   0.934
 4707TIP3    H135680   5.963   4.701   0.916
 4707TIP3    H235681   6.108   4.744   0.916
 4708TIP3   OH235682   1.412   1.315   1.695
 4708TIP3    H135683   1.484   1.257   1.719
 4708TIP3    H235684   1.340   1.256   1.672
 4709TIP3   OH235685   4.752   0.344   7.745
 4709TIP3    H135686   4.710   0.289   7.680
 4709TIP3    H235687   4.697   0.334   7.823
 4710TIP3   OH235688   5.232   0.601   0.398
 4710TIP3    H135689   5.276   0.599   0.313
 4710TIP3    H235690   5.138   0.601   0.376
 4711TIP3   OH235691   6.774   1.408   7.126
 4711TIP3    H135692   6.738   1.490   7.159
 4711TIP3    H235693   6.808   1.364   7.204
 4712TIP3   OH235694   4.502   4.033   7.705
 4712TIP3    H135695   4.587   4.045   7.746
 4712TIP3    H235696   4.440   4.074   7.765
 4713TIP3   OH235697   0.725   4.297   1.732
 4713TIP3    H135698   0.648   4.257   1.773
 4713TIP3    H235699   0.787   4.310   1.804
 4714TIP3   OH235700   5.062   1.273   8.629
 4714TIP3    H135701   5.083   1.202   8.690
 4714TIP3    H235702   5.143   1.321   8.618
 4715TIP3   OH235703   6.223   2.102   8.588
 4715TIP3    H135704   6.139   2.142   8.610
 4715TIP3    H235705   6.247   2.052   8.667
 4716TIP3   OH235706   5.401   5.626   2.081
 4716TIP3    H135707   5.310   5.604   2.097
 4716TIP3    H235708   5.408   5.719   2.104
 4717TIP3   OH235709   3.368   5.988   0.021
 4717TIP3    H135710   3.372   5.980  -0.074
 4717TIP3    H235711   3.448   6.035   0.044
 4718TIP3   OH235712   2.562   4.505   8.202
 4718TIP3    H135713   2.530   4.573   8.261
 4718TIP3    H235714   2.487   4.446   8.192
 4719TIP3   OH235715   1.935   0.583   7.346
 4719TIP3    H135716   2.001   0.625   7.291
 4719TIP3    H235717   1.952   0.489   7.336
 4720TIP3   OH235718   5.117   5.319   1.978
 4720TIP3    H135719   5.114   5.292   2.069
 4720TIP3    H235720   5.114   5.237   1.928
 4721TIP3   OH235721   3.407   1.487   0.305
 4721TIP3    H135722   3.403   1.415   0.368
 4721TIP3    H235723   3.462   1.453   0.234
 4722TIP3   OH235724   4.350   1.121   7.047
 4722TIP3    H135725   4.356   1.065   7.124
 4722TIP3    H235726   4.280   1.083   6.994
 4723TIP3   OH235727   2.196   1.218   0.564
 4723TIP3    H135728   2.183   1.123   0.561
 4723TIP3    H235729   2.273   1.230   0.619
 4724TIP3   OH235730   3.411   4.635   8.243
 4724TIP3    H135731   3.378   4.725   8.235
 4724TIP3    H235732   3.485   4.631   8.182
 4725TIP3   OH235733   1.066   5.939   6.797
 4725TIP3    H135734   1.143   5.903   6.841
 4725TIP3    H235735   0.992   5.910   6.850
 4726TIP3   OH235736   4.229   1.919   1.390
 4726TIP3    H135737   4.311   1.870   1.396
 4726TIP3    H235738   4.175   1.885   1.461
 4727TIP3   OH235739   0.159   3.712   0.835
 4727TIP3    H135740   0.102   3.788   0.844
 4727TIP3    H235741   0.205   3.706   0.919
 4728TIP3   OH235742   4.463   3.432   0.714
 4728TIP3    H135743   4.394   3.496   0.694
 4728TIP3    H235744   4.424   3.348   0.692
 4729TIP3   OH235745   5.472   5.774   6.978
 4729TIP3    H135746   5.398   5.826   7.009
 4729TIP3    H235747   5.435   5.715   6.914
 4730TIP3   OH235748   6.274   5.795   1.150
 4730TIP3    H135749   6.271   5.845   1.069
 4730TIP3    H235750   6.192   5.746   1.151
 4731TIP3   OH235751   3.644   5.786   1.062
 4731TIP3    H135752   3.653   5.708   1.008
 4731TIP3    H235753   3.711   5.778   1.129
 4732TIP3   OH235754   0.144   4.345   1.473
 4732TIP3    H135755   0.155   4.379   1.384
 4732TIP3    H235756   0.209   4.392   1.524
 4733TIP3   OH235757   5.484   4.873   8.350
 4733TIP3    H135758   5.552   4.935   8.376
 4733TIP3    H235759   5.519   4.831   8.271
 4734TIP3   OH235760   4.806   5.244   1.891
 4734TIP3    H135761   4.886   5.195   1.871
 4734TIP3    H235762   4.738   5.176   1.899
 4735TIP3   OH235763   1.151   4.017   1.227
 4735TIP3    H135764   1.112   4.092   1.272
 4735TIP3    H235765   1.229   3.996   1.279
 4736TIP3   OH235766   0.425   1.871   1.403
 4736TIP3    H135767   0.342   1.919   1.404
 4736TIP3    H235768   0.415   1.803   1.470
 4737TIP3   OH235769   5.197   1.942   8.053
 4737TIP3    H135770   5.289   1.958   8.074
 4737TIP3    H235771   5.192   1.848   8.041
 4738TIP3   OH235772   5.561   4.107   0.876
 4738TIP3    H135773   5.535   4.138   0.789
 4738TIP3    H235774   5.497   4.147   0.936
 4739TIP3   OH235775   0.778   1.502   5.808
 4739TIP3    H135776   0.732   1.453   5.740
 4739TIP3    H235777   0.763   1.451   5.888
 4740TIP3   OH235778   1.527   5.141   7.929
 4740TIP3    H135779   1.565   5.173   7.847
 4740TIP3    H235780   1.552   5.206   7.994
 4741TIP3   OH235781   6.628   2.407   0.427
 4741TIP3    H135782   6.569   2.336   0.403
 4741TIP3    H235783   6.715   2.377   0.399
 4742TIP3   OH235784   4.995   2.295   0.146
 4742TIP3    H135785   5.054   2.219   0.153
 4742TIP3    H235786   4.946   2.294   0.228
 4743TIP3   OH235787   1.909   3.792   2.078
 4743TIP3    H135788   1.932   3.871   2.127
 4743TIP3    H235789   1.993   3.755   2.052
 4744TIP3   OH235790   5.866   2.352   6.731
 4744TIP3    H135791   5.801   2.290   6.698
 4744TIP3    H235792   5.925   2.367   6.657
 4745TIP3   OH235793   5.886   5.825   8.600
 4745TIP3    H135794   5.877   5.738   8.639
 4745TIP3    H235795   5.951   5.814   8.530
 4746TIP3   OH235796   6.307   0.570   0.047
 4746TIP3    H135797   6.285   0.478   0.060
 4746TIP3    H235798   6.337   0.600   0.133
 4747TIP3   OH235799   1.953   1.265   7.026
 4747TIP3    H135800   2.027   1.283   7.084
 4747TIP3    H235801   1.932   1.350   6.987
 4748TIP3   OH235802   4.822   2.486   8.137
 4748TIP3    H135803   4.785   2.562   8.093
 4748TIP3    H235804   4.913   2.482   8.105
 4749TIP3   OH235805   1.278   1.482   7.017
 4749TIP3    H135806   1.301   1.389   7.018
 4749TIP3    H235807   1.333   1.522   7.084
 4750TIP3   OH235808   3.915   3.533   8.546
 4750TIP3    H135809   3.997   3.548   8.499
 4750TIP3    H235810   3.860   3.608   8.524
 4751TIP3   OH235811   6.555   5.833   2.465
 4751TIP3    H135812   6.481   5.834   2.405
 4751TIP3    H235813   6.515   5.847   2.551
 4752TIP3   OH235814   6.265   5.217   8.008
 4752TIP3    H135815   6.353   5.187   7.984
 4752TIP3    H235816   6.230   5.146   8.062
 4753TIP3   OH235817   0.622   5.802   6.240
 4753TIP3    H135818   0.690   5.735   6.252
 4753TIP3    H235819   0.666   5.885   6.257
 4754TIP3   OH235820   0.963   5.171   1.633
 4754TIP3    H135821   0.872   5.177   1.604
 4754TIP3    H235822   0.995   5.090   1.594
 4755TIP3   OH235823   4.478   5.780   0.870
 4755TIP3    H135824   4.466   5.755   0.961
 4755TIP3    H235825   4.478   5.697   0.822
 4756TIP3   OH235826   2.288   1.900   0.255
 4756TIP3    H135827   2.322   1.842   0.324
 4756TIP3    H235828   2.203   1.862   0.233
 4757TIP3   OH235829   0.217   2.663   8.101
 4757TIP3    H135830   0.210   2.569   8.082
 4757TIP3    H235831   0.299   2.671   8.151
 4758TIP3   OH235832   1.981   2.699   0.203
 4758TIP3    H135833   1.942   2.690   0.117
 4758TIP3    H235834   2.071   2.669   0.192
 4759TIP3   OH235835   2.536   4.058   8.600
 4759TIP3    H135836   2.499   3.973   8.576
 4759TIP3    H235837   2.620   4.037   8.640
 4760TIP3   OH235838   0.363   5.683   7.860
 4760TIP3    H135839   0.346   5.597   7.823
 4760TIP3    H235840   0.387   5.738   7.785
 4761TIP3   OH235841   2.110   5.188   1.742
 4761TIP3    H135842   2.032   5.224   1.786
 4761TIP3    H235843   2.160   5.147   1.812
 4762TIP3   OH235844   2.895   3.988   2.270
 4762TIP3    H135845   2.809   3.950   2.289
 4762TIP3    H235846   2.904   4.059   2.333
 4763TIP3   OH235847   1.585   1.518   1.399
 4763TIP3    H135848   1.632   1.596   1.369
 4763TIP3    H235849   1.499   1.525   1.357
 4764TIP3   OH235850   3.387   2.535   7.532
 4764TIP3    H135851   3.369   2.602   7.598
 4764TIP3    H235852   3.410   2.584   7.453
 4765TIP3   OH235853   5.296   3.744   8.088
 4765TIP3    H135854   5.374   3.754   8.142
 4765TIP3    H235855   5.263   3.833   8.075
 4766TIP3   OH235856   1.723   5.668   2.081
 4766TIP3    H135857   1.790   5.735   2.073
 4766TIP3    H235858   1.648   5.714   2.119
 4767TIP3   OH235859   4.403   4.185   0.510
 4767TIP3    H135860   4.318   4.222   0.486
 4767TIP3    H235861   4.430   4.134   0.434
 4768TIP3   OH235862   2.556   4.456   1.246
 4768TIP3    H135863   2.494   4.521   1.280
 4768TIP3    H235864   2.567   4.393   1.317
 4769TIP3   OH235865   3.571   1.627   7.898
 4769TIP3    H135866   3.557   1.597   7.988
 4769TIP3    H235867   3.613   1.553   7.855
 4770TIP3   OH235868   5.472   0.908   7.712
 4770TIP3    H135869   5.516   0.891   7.795
 4770TIP3    H235870   5.520   0.857   7.647
 4771TIP3   OH235871   4.162   2.566   6.936
 4771TIP3    H135872   4.186   2.485   6.981
 4771TIP3    H235873   4.228   2.575   6.866
 4772TIP3   OH235874   5.263   4.580   1.629
 4772TIP3    H135875   5.345   4.572   1.677
 4772TIP3    H235876   5.198   4.604   1.695
 4773TIP3   OH235877   1.110   5.201   2.189
 4773TIP3    H135878   1.147   5.116   2.167
 4773TIP3    H235879   1.175   5.240   2.248
 4774TIP3   OH235880   6.256   6.581   8.170
 4774TIP3    H135881   6.273   6.608   8.080
 4774TIP3    H235882   6.236   6.662   8.217
 4775TIP3   OH235883   0.838   5.827   6.470
 4775TIP3    H135884   0.874   5.793   6.389
 4775TIP3    H235885   0.771   5.889   6.443
 4776TIP3   OH235886   5.971   3.899   6.655
 4776TIP3    H135887   5.896   3.841   6.642
 4776TIP3    H235888   5.980   3.906   6.750
 4777TIP3   OH235889   2.088   3.533   0.722
 4777TIP3    H135890   2.010   3.507   0.674
 4777TIP3    H235891   2.140   3.582   0.658
 4778TIP3   OH235892   1.593   3.478   7.995
 4778TIP3    H135893   1.523   3.525   7.950
 4778TIP3    H235894   1.633   3.424   7.926
 4779TIP3   OH235895   2.233   1.148   7.652
 4779TIP3    H135896   2.182   1.102   7.585
 4779TIP3    H235897   2.167   1.192   7.706
 4780TIP3   OH235898   3.548   2.771   1.233
 4780TIP3    H135899   3.579   2.843   1.288
 4780TIP3    H235900   3.597   2.781   1.151
 4781TIP3   OH235901   0.785   1.980   6.302
 4781TIP3    H135902   0.841   2.042   6.349
 4781TIP3    H235903   0.831   1.964   6.219
 4782TIP3   OH235904   5.855   3.528   7.859
 4782TIP3    H135905   5.951   3.532   7.852
 4782TIP3    H235906   5.829   3.470   7.787
 4783TIP3   OH235907   1.447   4.770   2.478
 4783TIP3    H135908   1.542   4.758   2.480
 4783TIP3    H235909   1.430   4.836   2.546
 4784TIP3   OH235910   6.001   5.635   7.320
 4784TIP3    H135911   6.047   5.709   7.280
 4784TIP3    H235912   5.945   5.600   7.251
 4785TIP3   OH235913   1.066   3.649   2.181
 4785TIP3    H135914   1.011   3.701   2.240
 4785TIP3    H235915   1.140   3.707   2.161
 4786TIP3   OH235916   1.031   1.575   1.969
 4786TIP3    H135917   1.030   1.659   1.923
 4786TIP3    H235918   1.123   1.554   1.978
 4787TIP3   OH235919   6.220   5.084   1.951
 4787TIP3    H135920   6.276   5.160   1.963
 4787TIP3    H235921   6.134   5.112   1.983
 4788TIP3   OH235922   3.073   5.766   1.032
 4788TIP3    H135923   3.122   5.843   1.060
 4788TIP3    H235924   3.059   5.779   0.938
 4789TIP3   OH235925   2.288   0.014   0.337
 4789TIP3    H135926   2.291   0.043   0.428
 4789TIP3    H235927   2.372   0.042   0.300
 4790TIP3   OH235928   1.761   4.664   0.805
 4790TIP3    H135929   1.758   4.710   0.889
 4790TIP3    H235930   1.671   4.667   0.772
 4791TIP3   OH235931   0.038   6.131   0.128
 4791TIP3    H135932   0.125   6.164   0.106
 4791TIP3    H235933   0.008   6.086   0.049
 4792TIP3   OH235934   2.725   2.261   7.715
 4792TIP3    H135935   2.678   2.197   7.661
 4792TIP3    H235936   2.810   2.272   7.671
 4793TIP3   OH235937   2.268   0.476   6.891
 4793TIP3    H135938   2.236   0.491   6.802
 4793TIP3    H235939   2.335   0.408   6.882
 4794TIP3   OH235940   2.419   6.152   8.801
 4794TIP3    H135941   2.344   6.179   8.747
 4794TIP3    H235942   2.453   6.074   8.758
 4795TIP3   OH235943   1.960   4.491   7.392
 4795TIP3    H135944   1.892   4.495   7.459
 4795TIP3    H235945   1.988   4.400   7.391
 4796TIP3   OH235946   6.713   0.335   7.979
 4796TIP3    H135947   6.660   0.305   7.905
 4796TIP3    H235948   6.799   0.354   7.942
 4797TIP3   OH235949   3.159   4.293   0.216
 4797TIP3    H135950   3.139   4.293   0.123
 4797TIP3    H235951   3.200   4.378   0.232
 4798TIP3   OH235952   4.265   3.117   0.291
 4798TIP3    H135953   4.259   3.202   0.335
 4798TIP3    H235954   4.237   3.135   0.201
 4799TIP3   OH235955   6.418   3.665   7.447
 4799TIP3    H135956   6.367   3.727   7.499
 4799TIP3    H235957   6.450   3.601   7.510
 4800TIP3   OH235958   5.604   2.440   0.811
 4800TIP3    H135959   5.564   2.445   0.897
 4800TIP3    H235960   5.536   2.404   0.754
 4801TIP3   OH235961   2.775   5.994   1.454
 4801TIP3    H135962   2.706   6.059   1.439
 4801TIP3    H235963   2.796   5.961   1.367
 4802TIP3   OH235964   6.510   2.562   8.130
 4802TIP3    H135965   6.436   2.615   8.159
 4802TIP3    H235966   6.485   2.472   8.153
 4803TIP3   OH235967   5.597   6.015   0.664
 4803TIP3    H135968   5.579   6.104   0.694
 4803TIP3    H235969   5.516   5.966   0.682
 4804TIP3   OH235970   6.127   2.682   0.479
 4804TIP3    H135971   6.063   2.624   0.520
 4804TIP3    H235972   6.161   2.734   0.552
 4805TIP3   OH235973   3.489   0.182   1.372
 4805TIP3    H135974   3.477   0.270   1.408
 4805TIP3    H235975   3.462   0.123   1.442
 4806TIP3   OH235976   0.398   2.221   6.985
 4806TIP3    H135977   0.411   2.190   7.074
 4806TIP3    H235978   0.459   2.294   6.976
 4807TIP3   OH235979   1.746   0.658   7.914
 4807TIP3    H135980   1.799   0.648   7.835
 4807TIP3    H235981   1.677   0.592   7.905
 4808TIP3   OH235982   5.877   5.871   1.828
 4808TIP3    H135983   5.842   5.835   1.909
 4808TIP3    H235984   5.816   5.940   1.804
 4809TIP3   OH235985   6.010   1.463   6.104
 4809TIP3    H135986   6.103   1.440   6.101
 4809TIP3    H235987   5.993   1.486   6.196
 4810TIP3   OH235988   4.134   0.477   7.690
 4810TIP3    H135989   4.088   0.546   7.641
 4810TIP3    H235990   4.067   0.411   7.706
 4811TIP3   OH235991   2.805   3.336   8.128
 4811TIP3    H135992   2.808   3.422   8.172
 4811TIP3    H235993   2.756   3.353   8.048
 4812TIP3   OH235994   2.202   2.950   7.649
 4812TIP3    H135995   2.257   3.006   7.595
 4812TIP3    H235996   2.143   2.907   7.587
 4813TIP3   OH235997   1.872   4.807   7.254
 4813TIP3    H135998   1.915   4.723   7.269
 4813TIP3    H235999   1.895   4.830   7.164
 4814TIP3   OH236000   0.185   1.858   8.566
 4814TIP3    H136001   0.226   1.815   8.642
 4814TIP3    H236002   0.106   1.807   8.549
 4815TIP3   OH236003   1.686   6.611   7.430
 4815TIP3    H136004   1.607   6.559   7.442
 4815TIP3    H236005   1.758   6.552   7.455
 4816TIP3   OH236006   0.521   5.765   1.038
 4816TIP3    H136007   0.467   5.686   1.050
 4816TIP3    H236008   0.591   5.738   0.979
 4817TIP3   OH236009   3.571   2.128   0.657
 4817TIP3    H136010   3.502   2.070   0.691
 4817TIP3    H236011   3.583   2.099   0.566
 4818TIP3   OH236012   0.703   4.668   8.488
 4818TIP3    H136013   0.780   4.724   8.495
 4818TIP3    H236014   0.629   4.729   8.485
 4819TIP3   OH236015   1.294   1.520   1.971
 4819TIP3    H136016   1.340   1.463   2.033
 4819TIP3    H236017   1.357   1.533   1.900
 4820TIP3   OH236018   2.608   4.624   6.584
 4820TIP3    H136019   2.644   4.554   6.530
 4820TIP3    H236020   2.678   4.648   6.644
 4821TIP3   OH236021   4.988   1.742   1.026
 4821TIP3    H136022   5.060   1.696   1.069
 4821TIP3    H236023   5.000   1.834   1.049
 4822TIP3   OH236024   1.714   6.590   8.378
 4822TIP3    H136025   1.657   6.561   8.450
 4822TIP3    H236026   1.794   6.539   8.390
 4823TIP3   OH236027   2.762   6.632   7.341
 4823TIP3    H136028   2.810   6.600   7.265
 4823TIP3    H236029   2.828   6.640   7.410
 4824TIP3   OH236030   1.015   1.491   6.896
 4824TIP3    H136031   0.987   1.442   6.973
 4824TIP3    H236032   1.110   1.478   6.894
 4825TIP3   OH236033   1.249   0.883   5.977
 4825TIP3    H136034   1.193   0.908   6.051
 4825TIP3    H236035   1.257   0.788   5.984
 4826TIP3   OH236036   0.822   0.142   0.545
 4826TIP3    H136037   0.785   0.066   0.499
 4826TIP3    H236038   0.819   0.117   0.638
 4827TIP3   OH236039   4.503   0.110   7.636
 4827TIP3    H136040   4.587   0.073   7.663
 4827TIP3    H236041   4.525   0.195   7.598
 4828TIP3   OH236042   4.461   2.150   8.645
 4828TIP3    H136043   4.503   2.088   8.585
 4828TIP3    H236044   4.467   2.109   8.731
 4829TIP3   OH236045   5.478   0.939   2.141
 4829TIP3    H136046   5.474   0.908   2.050
 4829TIP3    H236047   5.522   1.024   2.135
 4830TIP3   OH236048   5.334   2.829   8.253
 4830TIP3    H136049   5.338   2.739   8.287
 4830TIP3    H236050   5.274   2.825   8.179
 4831TIP3   OH236051   3.392   0.984   1.947
 4831TIP3    H136052   3.338   1.060   1.970
 4831TIP3    H236053   3.397   0.933   2.028
 4832TIP3   OH236054   5.131   3.352   1.085
 4832TIP3    H136055   5.057   3.343   1.026
 4832TIP3    H236056   5.175   3.432   1.057
 4833TIP3   OH236057   5.357   6.145   1.133
 4833TIP3    H136058   5.294   6.151   1.206
 4833TIP3    H236059   5.422   6.213   1.152
 4834TIP3   OH236060   6.378   2.420   6.939
 4834TIP3    H136061   6.340   2.403   6.853
 4834TIP3    H236062   6.472   2.405   6.926
 4835TIP3   OH236063   2.938   1.780   1.130
 4835TIP3    H136064   2.845   1.803   1.138
 4835TIP3    H236065   2.984   1.862   1.145
 4836TIP3   OH236066   4.961   4.190   1.255
 4836TIP3    H136067   4.968   4.240   1.336
 4836TIP3    H236068   4.870   4.202   1.227
 4837TIP3   OH236069   3.019   2.984   7.382
 4837TIP3    H136070   2.965   2.933   7.444
 4837TIP3    H236071   3.036   2.923   7.310
 4838TIP3   OH236072   5.129   2.439   8.386
 4838TIP3    H136073   5.095   2.526   8.366
 4838TIP3    H236074   5.050   2.386   8.400
 4839TIP3   OH236075   0.880   5.756   8.660
 4839TIP3    H136076   0.806   5.805   8.625
 4839TIP3    H236077   0.839   5.685   8.710
 4840TIP3   OH236078   0.262   3.797   7.084
 4840TIP3    H136079   0.246   3.865   7.019
 4840TIP3    H236080   0.303   3.725   7.035
 4841TIP3   OH236081   4.876   3.063   1.044
 4841TIP3    H136082   4.941   3.078   0.976
 4841TIP3    H236083   4.857   3.150   1.079
 4842TIP3   OH236084   0.020   2.302   8.124
 4842TIP3    H136085  -0.013   2.310   8.035
 4842TIP3    H236086   0.108   2.339   8.120
 4843TIP3   OH236087   3.931   4.194   8.399
 4843TIP3    H136088   3.942   4.124   8.463
 4843TIP3    H236089   3.977   4.162   8.321
 4844TIP3   OH236090   6.789   4.202   8.519
 4844TIP3    H136091   6.876   4.191   8.481
 4844TIP3    H236092   6.729   4.193   8.445
 4845TIP3   OH236093   1.813   6.049   6.301
 4845TIP3    H136094   1.738   6.057   6.242
 4845TIP3    H236095   1.825   6.137   6.336
 4846TIP3   OH236096   2.153   4.781   8.481
 4846TIP3    H136097   2.107   4.844   8.535
 4846TIP3    H236098   2.137   4.810   8.391
 4847TIP3   OH236099   4.726   6.092   8.768
 4847TIP3    H136100   4.673   6.090   8.847
 4847TIP3    H236101   4.801   6.147   8.791
 4848TIP3   OH236102   0.958   6.776   0.212
 4848TIP3    H136103   0.898   6.851   0.215
 4848TIP3    H236104   1.021   6.798   0.143
 4849TIP3   OH236105   0.059   1.098   1.804
 4849TIP3    H136106  -0.008   1.093   1.734
 4849TIP3    H236107   0.054   1.189   1.834
 4850TIP3   OH236108   0.828   3.958   0.673
 4850TIP3    H136109   0.743   4.001   0.660
 4850TIP3    H236110   0.811   3.890   0.737
 4851TIP3   OH236111   2.039   0.059   8.723
 4851TIP3    H136112   2.022   0.153   8.724
 4851TIP3    H236113   2.033   0.035   8.631
 4852TIP3   OH236114   5.522   0.956   0.714
 4852TIP3    H136115   5.514   1.051   0.726
 4852TIP3    H236116   5.435   0.922   0.732
 4853TIP3   OH236117   3.240   6.468   6.735
 4853TIP3    H136118   3.292   6.412   6.794
 4853TIP3    H236119   3.189   6.406   6.683
 4854TIP3   OH236120   0.127   1.267   0.060
 4854TIP3    H136121   0.104   1.175   0.072
 4854TIP3    H236122   0.217   1.264   0.027
 4855TIP3   OH236123   0.824   6.339   6.671
 4855TIP3    H136124   0.882   6.272   6.636
 4855TIP3    H236125   0.744   6.331   6.619
 4856TIP3   OH236126   3.739   0.425   0.450
 4856TIP3    H136127   3.677   0.444   0.520
 4856TIP3    H236128   3.808   0.490   0.461
 4857TIP3   OH236129   1.869   1.911   1.830
 4857TIP3    H136130   1.832   1.924   1.743
 4857TIP3    H236131   1.818   1.840   1.868
 4858TIP3   OH236132   4.714   0.444   8.678
 4858TIP3    H136133   4.726   0.531   8.717
 4858TIP3    H236134   4.670   0.460   8.595
 4859TIP3   OH236135   0.546   0.801   0.393
 4859TIP3    H136136   0.499   0.739   0.338
 4859TIP3    H236137   0.491   0.811   0.470
 4860TIP3   OH236138   2.741   4.732   1.431
 4860TIP3    H136139   2.807   4.781   1.381
 4860TIP3    H236140   2.662   4.737   1.377
 4861TIP3   OH236141   0.513   0.705   0.944
 4861TIP3    H136142   0.469   0.738   1.023
 4861TIP3    H236143   0.556   0.624   0.972
 4862TIP3   OH236144   6.130   5.518   8.503
 4862TIP3    H136145   6.157   5.426   8.498
 4862TIP3    H236146   6.038   5.517   8.480
 4863TIP3   OH236147   5.893   2.640   8.567
 4863TIP3    H136148   5.857   2.571   8.510
 4863TIP3    H236149   5.935   2.701   8.506
 4864TIP3   OH236150   3.292   0.013   8.673
 4864TIP3    H136151   3.387   0.004   8.666
 4864TIP3    H236152   3.258  -0.076   8.667
 4865TIP3   OH236153   5.235   6.279   7.945
 4865TIP3    H136154   5.205   6.326   8.023
 4865TIP3    H236155   5.176   6.307   7.875
 4866TIP3   OH236156   0.813   4.262   1.486
 4866TIP3    H136157   0.877   4.192   1.498
 4866TIP3    H236158   0.778   4.277   1.574
 4867TIP3   OH236159   0.374   5.541   1.024
 4867TIP3    H136160   0.344   5.589   0.947
 4867TIP3    H236161   0.349   5.450   1.006
 4868TIP3   OH236162   1.675   3.701   2.194
 4868TIP3    H136163   1.763   3.709   2.157
 4868TIP3    H236164   1.626   3.651   2.129
 4869TIP3   OH236165   0.269   0.430   1.708
 4869TIP3    H136166   0.194   0.370   1.708
 4869TIP3    H236167   0.336   0.384   1.760
 4870TIP3   OH236168   2.646   6.519   8.763
 4870TIP3    H136169   2.739   6.526   8.741
 4870TIP3    H236170   2.606   6.475   8.688
 4871TIP3   OH236171   2.135   1.196   0.885
 4871TIP3    H136172   2.077   1.149   0.946
 4871TIP3    H236173   2.220   1.199   0.930
 4872TIP3   OH236174   6.161   5.793   7.134
 4872TIP3    H136175   6.105   5.838   7.071
 4872TIP3    H236176   6.221   5.860   7.165
 4873TIP3   OH236177   0.645   5.411   8.023
 4873TIP3    H136178   0.560   5.414   8.067
 4873TIP3    H236179   0.707   5.390   8.092
 4874TIP3   OH236180   2.117   5.039   1.974
 4874TIP3    H136181   2.185   4.974   1.995
 4874TIP3    H236182   2.089   5.072   2.059
 4875TIP3   OH236183   1.509   0.930   7.266
 4875TIP3    H136184   1.602   0.952   7.273
 4875TIP3    H236185   1.507   0.836   7.252
 4876TIP3   OH236186   6.399   2.312   8.204
 4876TIP3    H136187   6.469   2.253   8.179
 4876TIP3    H236188   6.404   2.317   8.300
 4877TIP3   OH236189   3.586   4.204   0.877
 4877TIP3    H136190   3.564   4.278   0.820
 4877TIP3    H236191   3.674   4.225   0.909
 4878TIP3   OH236192   0.337   1.784   7.899
 4878TIP3    H136193   0.421   1.830   7.907
 4878TIP3    H236194   0.329   1.735   7.981
 4879TIP3   OH236195   0.869   4.158   7.727
 4879TIP3    H136196   0.937   4.091   7.729
 4879TIP3    H236197   0.811   4.130   7.656
 4880TIP3   OH236198   1.856   6.159   7.665
 4880TIP3    H136199   1.887   6.168   7.755
 4880TIP3    H236200   1.926   6.111   7.620
 4881TIP3   OH236201   1.041   2.520   8.085
 4881TIP3    H136202   1.127   2.484   8.104
 4881TIP3    H236203   1.048   2.552   7.995
 4882TIP3   OH236204   3.281   4.006   1.395
 4882TIP3    H136205   3.274   4.018   1.301
 4882TIP3    H236206   3.217   4.067   1.432
 4883TIP3   OH236207   5.272   0.790   1.924
 4883TIP3    H136208   5.236   0.769   1.838
 4883TIP3    H236209   5.331   0.864   1.909
 4884TIP3   OH236210   6.459   1.314   6.674
 4884TIP3    H136211   6.403   1.332   6.599
 4884TIP3    H236212   6.541   1.283   6.636
 4885TIP3   OH236213   0.544   0.326   7.660
 4885TIP3    H136214   0.470   0.312   7.601
 4885TIP3    H236215   0.549   0.246   7.712
 4886TIP3   OH236216   5.925   3.965   8.575
 4886TIP3    H136217   6.007   3.981   8.529
 4886TIP3    H236218   5.928   4.022   8.651
 4887TIP3   OH236219   6.530   0.454   0.472
 4887TIP3    H136220   6.564   0.391   0.408
 4887TIP3    H236221   6.534   0.407   0.556
 4888TIP3   OH236222   5.371   1.852   0.399
 4888TIP3    H136223   5.418   1.884   0.323
 4888TIP3    H236224   5.388   1.916   0.468
 4889TIP3   OH236225   6.349   0.330   8.536
 4889TIP3    H136226   6.356   0.238   8.511
 4889TIP3    H236227   6.282   0.331   8.604
 4890TIP3   OH236228   1.192   4.989   1.137
 4890TIP3    H136229   1.271   4.983   1.084
 4890TIP3    H236230   1.189   4.907   1.186
 4891TIP3   OH236231   0.028   0.095   0.103
 4891TIP3    H136232   0.052   0.165   0.043
 4891TIP3    H236233  -0.058   0.065   0.071
 4892TIP3   OH236234   4.198   6.285   6.814
 4892TIP3    H136235   4.119   6.272   6.867
 4892TIP3    H236236   4.177   6.244   6.730
 4893TIP3   OH236237   1.548   5.492   7.834
 4893TIP3    H136238   1.537   5.476   7.741
 4893TIP3    H236239   1.617   5.432   7.862
 4894TIP3   OH236240   5.885   4.942   1.537
 4894TIP3    H136241   5.794   4.971   1.524
 4894TIP3    H236242   5.916   4.921   1.449
 4895TIP3   OH236243   0.034   4.559   2.123
 4895TIP3    H136244   0.022   4.524   2.211
 4895TIP3    H236245   0.050   4.653   2.137
 4896TIP3   OH236246   1.611   4.582   6.796
 4896TIP3    H136247   1.585   4.605   6.885
 4896TIP3    H236248   1.676   4.648   6.772
 4897TIP3   OH236249   6.468   5.622   1.090
 4897TIP3    H136250   6.394   5.678   1.114
 4897TIP3    H236251   6.545   5.679   1.101
 4898TIP3   OH236252   4.746   6.784   6.459
 4898TIP3    H136253   4.750   6.840   6.382
 4898TIP3    H236254   4.761   6.695   6.426
 4899TIP3   OH236255   4.048   1.144   8.043
 4899TIP3    H136256   4.118   1.089   8.007
 4899TIP3    H236257   4.088   1.231   8.049
 4900TIP3   OH236258   5.157   1.571   8.758
 4900TIP3    H136259   5.105   1.647   8.782
 4900TIP3    H236260   5.093   1.502   8.743
 4901TIP3   OH236261   4.768   5.469   7.789
 4901TIP3    H136262   4.718   5.418   7.852
 4901TIP3    H236263   4.752   5.425   7.705
 4902TIP3   OH236264   3.472   1.752   8.578
 4902TIP3    H136265   3.377   1.761   8.574
 4902TIP3    H236266   3.504   1.841   8.591
 4903TIP3   OH236267   6.629   2.687   0.468
 4903TIP3    H136268   6.589   2.717   0.550
 4903TIP3    H236269   6.628   2.592   0.475
 4904TIP3   OH236270   2.349   0.321   2.039
 4904TIP3    H136271   2.301   0.312   1.957
 4904TIP3    H236272   2.431   0.273   2.025
 4905TIP3   OH236273   4.268   4.761   0.147
 4905TIP3    H136274   4.268   4.670   0.176
 4905TIP3    H236275   4.193   4.768   0.088
 4906TIP3   OH236276   2.242   1.703   7.693
 4906TIP3    H136277   2.151   1.733   7.684
 4906TIP3    H236278   2.294   1.782   7.687
 4907TIP3   OH236279   0.442   3.292   8.549
 4907TIP3    H136280   0.413   3.266   8.461
 4907TIP3    H236281   0.370   3.347   8.581
 4908TIP3   OH236282   3.818   1.343   8.363
 4908TIP3    H136283   3.741   1.375   8.411
 4908TIP3    H236284   3.862   1.421   8.332
 4909TIP3   OH236285   1.376   5.007   7.096
 4909TIP3    H136286   1.470   5.015   7.080
 4909TIP3    H236287   1.370   4.979   7.187
 4910TIP3   OH236288   0.049   4.094   1.391
 4910TIP3    H136289  -0.010   4.166   1.412
 4910TIP3    H236290  -0.008   4.021   1.369
 4911TIP3   OH236291   4.542   5.763   7.207
 4911TIP3    H136292   4.473   5.722   7.259
 4911TIP3    H236293   4.507   5.849   7.183
 4912TIP3   OH236294   4.967   0.951   1.471
 4912TIP3    H136295   4.964   0.937   1.376
 4912TIP3    H236296   4.880   0.925   1.502
 4913TIP3   OH236297   4.392   0.796   0.202
 4913TIP3    H136298   4.476   0.762   0.232
 4913TIP3    H236299   4.345   0.818   0.283
 4914TIP3   OH236300   3.957   6.187   7.250
 4914TIP3    H136301   4.009   6.213   7.175
 4914TIP3    H236302   3.873   6.161   7.214
 4915TIP3   OH236303   3.602   1.643   8.211
 4915TIP3    H136304   3.566   1.731   8.223
 4915TIP3    H236305   3.533   1.585   8.245
 4916TIP3   OH236306   6.142   5.072   7.689
 4916TIP3    H136307   6.119   5.059   7.781
 4916TIP3    H236308   6.233   5.042   7.682
 4917TIP3   OH236309   4.311   0.435   7.907
 4917TIP3    H136310   4.281   0.517   7.945
 4917TIP3    H236311   4.275   0.433   7.819
 4918TIP3   OH236312   6.529   3.755   7.207
 4918TIP3    H136313   6.617   3.784   7.229
 4918TIP3    H236314   6.490   3.729   7.291
 4919TIP3   OH236315   5.234   0.077   1.385
 4919TIP3    H136316   5.226   0.126   1.303
 4919TIP3    H236317   5.218   0.142   1.453
 4920TIP3   OH236318   3.831   1.403   8.727
 4920TIP3    H136319   3.817   1.445   8.812
 4920TIP3    H236320   3.819   1.473   8.663
 4921TIP3   OH236321   2.726   3.265   6.847
 4921TIP3    H136322   2.814   3.231   6.863
 4921TIP3    H236323   2.738   3.331   6.780
 4922TIP3   OH236324   5.164   0.707   1.236
 4922TIP3    H136325   5.240   0.747   1.194
 4922TIP3    H236326   5.099   0.777   1.241
 4923TIP3   OH236327   3.040   6.695   6.687
 4923TIP3    H136328   3.068   6.658   6.604
 4923TIP3    H236329   3.060   6.788   6.679
 4924TIP3   OH236330   1.289   4.278   7.322
 4924TIP3    H136331   1.317   4.308   7.235
 4924TIP3    H236332   1.355   4.311   7.382
 4925TIP3   OH236333   0.431   6.005   8.838
 4925TIP3    H136334   0.445   5.996   8.932
 4925TIP3    H236335   0.372   6.080   8.829
 4926TIP3   OH236336   1.434   2.271   1.215
 4926TIP3    H136337   1.433   2.269   1.119
 4926TIP3    H236338   1.510   2.217   1.239
 4927TIP3   OH236339   5.510   1.362   1.439
 4927TIP3    H136340   5.532   1.295   1.374
 4927TIP3    H236341   5.497   1.314   1.520
 4928TIP3   OH236342   0.988   3.794   7.300
 4928TIP3    H136343   1.063   3.782   7.243
 4928TIP3    H236344   1.016   3.861   7.362
 4929TIP3   OH236345   4.552   4.519   8.269
 4929TIP3    H136346   4.609   4.553   8.200
 4929TIP3    H236347   4.506   4.445   8.228
 4930TIP3   OH236348   2.596   2.565   7.607
 4930TIP3    H136349   2.597   2.569   7.703
 4930TIP3    H236350   2.505   2.546   7.585
 4931TIP3   OH236351   4.429   6.024   1.512
 4931TIP3    H136352   4.365   5.953   1.516
 4931TIP3    H236353   4.445   6.036   1.418
 4932TIP3   OH236354   4.268   0.729   7.450
 4932TIP3    H136355   4.182   0.696   7.424
 4932TIP3    H236356   4.330   0.687   7.390
 4933TIP3   OH236357   1.421   3.033   0.474
 4933TIP3    H136358   1.378   3.066   0.553
 4933TIP3    H236359   1.367   2.960   0.446
 4934TIP3   OH236360   2.640   4.456   7.713
 4934TIP3    H136361   2.604   4.415   7.635
 4934TIP3    H236362   2.585   4.533   7.728
 4935TIP3   OH236363   3.356   4.241   8.269
 4935TIP3    H136364   3.350   4.312   8.334
 4935TIP3    H236365   3.411   4.175   8.310
 4936TIP3   OH236366   2.642   6.633   1.773
 4936TIP3    H136367   2.557   6.630   1.729
 4936TIP3    H236368   2.626   6.684   1.852
 4937TIP3   OH236369   4.671   6.462   0.967
 4937TIP3    H136370   4.580   6.431   0.972
 4937TIP3    H236371   4.713   6.424   1.043
 4938TIP3   OH236372   1.047   2.863   6.313
 4938TIP3    H136373   1.125   2.826   6.271
 4938TIP3    H236374   1.047   2.955   6.286
 4939TIP3   OH236375   0.357   1.684   7.398
 4939TIP3    H136376   0.424   1.708   7.334
 4939TIP3    H236377   0.293   1.633   7.348
 4940TIP3   OH236378   6.543   3.848   8.252
 4940TIP3    H136379   6.592   3.848   8.334
 4940TIP3    H236380   6.451   3.852   8.280
 4941TIP3   OH236381   1.272   2.845   8.455
 4941TIP3    H136382   1.249   2.890   8.536
 4941TIP3    H236383   1.242   2.904   8.385
 4942TIP3   OH236384   2.693   0.865   1.573
 4942TIP3    H136385   2.662   0.858   1.664
 4942TIP3    H236386   2.788   0.861   1.580
 4943TIP3   OH236387   0.977   1.434   2.239
 4943TIP3    H136388   0.988   1.504   2.175
 4943TIP3    H236389   0.900   1.459   2.290
 4944TIP3   OH236390   4.687   4.900   1.467
 4944TIP3    H136391   4.627   4.877   1.396
 4944TIP3    H236392   4.631   4.935   1.535
 4945TIP3   OH236393   4.630   3.821   8.629
 4945TIP3    H136394   4.576   3.743   8.620
 4945TIP3    H236395   4.715   3.796   8.592
 4946TIP3   OH236396   2.351   1.310   1.289
 4946TIP3    H136397   2.280   1.259   1.326
 4946TIP3    H236398   2.405   1.246   1.242
 4947TIP3   OH236399   4.668   1.543   1.508
 4947TIP3    H136400   4.692   1.525   1.417
 4947TIP3    H236401   4.573   1.550   1.507
 4948TIP3   OH236402   1.425   0.693   0.568
 4948TIP3    H136403   1.350   0.639   0.594
 4948TIP3    H236404   1.398   0.782   0.588
 4949TIP3   OH236405   1.911   3.925   7.664
 4949TIP3    H136406   2.006   3.927   7.678
 4949TIP3    H236407   1.896   3.994   7.599
 4950TIP3   OH236408   1.335   6.617   1.582
 4950TIP3    H136409   1.299   6.681   1.642
 4950TIP3    H236410   1.263   6.556   1.565
 4951TIP3   OH236411   3.182   6.185   8.488
 4951TIP3    H136412   3.241   6.260   8.479
 4951TIP3    H236413   3.238   6.115   8.522
 4952TIP3   OH236414   5.788   0.828   1.196
 4952TIP3    H136415   5.870   0.819   1.148
 4952TIP3    H236416   5.799   0.908   1.247
 4953TIP3   OH236417   4.879   4.092   8.822
 4953TIP3    H136418   4.927   4.170   8.796
 4953TIP3    H236419   4.939   4.020   8.806
 4954TIP3   OH236420   5.791   1.501   1.371
 4954TIP3    H136421   5.765   1.414   1.401
 4954TIP3    H236422   5.877   1.488   1.331
 4955TIP3   OH236423   0.287   4.878   0.867
 4955TIP3    H136424   0.305   4.958   0.916
 4955TIP3    H236425   0.372   4.835   0.860
 4956TIP3   OH236426   2.324   0.033   8.775
 4956TIP3    H136427   2.320   0.081   8.693
 4956TIP3    H236428   2.235   0.004   8.791
 4957TIP3   OH236429   6.743   2.256   1.527
 4957TIP3    H136430   6.775   2.315   1.459
 4957TIP3    H236431   6.683   2.197   1.482
 4958TIP3   OH236432   2.007   0.857   7.910
 4958TIP3    H136433   2.066   0.918   7.954
 4958TIP3    H236434   1.942   0.913   7.867
 4959TIP3   OH236435   6.208   6.709   7.883
 4959TIP3    H136436   6.205   6.695   7.788
 4959TIP3    H236437   6.205   6.804   7.893
 4960TIP3   OH236438   4.043   0.568   1.893
 4960TIP3    H136439   4.005   0.510   1.827
 4960TIP3    H236440   4.010   0.655   1.871
 4961TIP3   OH236441   5.874   2.823   0.589
 4961TIP3    H136442   5.796   2.768   0.591
 4961TIP3    H236443   5.874   2.867   0.674
 4962TIP3   OH236444   5.439   5.893   6.576
 4962TIP3    H136445   5.477   5.938   6.500
 4962TIP3    H236446   5.378   5.831   6.538
 4963TIP3   OH236447   4.958   6.704   7.037
 4963TIP3    H136448   4.899   6.722   7.110
 4963TIP3    H236449   4.947   6.611   7.020
 4964TIP3   OH236450   4.497   0.992   7.973
 4964TIP3    H136451   4.561   0.951   7.914
 4964TIP3    H236452   4.542   1.069   8.008
 4965TIP3   OH236453   0.374   0.177   0.111
 4965TIP3    H136454   0.336   0.243   0.053
 4965TIP3    H236455   0.364   0.095   0.063
 4966TIP3   OH236456   5.942   5.024   1.786
 4966TIP3    H136457   5.960   5.117   1.802
 4966TIP3    H236458   5.932   5.017   1.691
 4967TIP3   OH236459   4.412   1.829   0.406
 4967TIP3    H136460   4.331   1.876   0.425
 4967TIP3    H236461   4.481   1.894   0.415
 4968TIP3   OH236462   6.162   6.678   1.705
 4968TIP3    H136463   6.123   6.658   1.790
 4968TIP3    H236464   6.091   6.719   1.655
 4969TIP3   OH236465   5.417   4.937   0.987
 4969TIP3    H136466   5.377   5.011   0.941
 4969TIP3    H236467   5.463   4.888   0.919
 4970TIP3   OH236468   1.380   1.351   0.301
 4970TIP3    H136469   1.454   1.367   0.242
 4970TIP3    H236470   1.315   1.306   0.247
 4971TIP3   OH236471   4.073   3.634   7.429
 4971TIP3    H136472   3.979   3.643   7.442
 4971TIP3    H236473   4.101   3.576   7.500
 4972TIP3   OH236474   2.153   2.468   8.822
 4972TIP3    H136475   2.130   2.430   8.738
 4972TIP3    H236476   2.198   2.397   8.869
 4973TIP3   OH236477   0.949   4.796   7.841
 4973TIP3    H136478   0.863   4.835   7.856
 4973TIP3    H236479   0.999   4.864   7.795
 4974TIP3   OH236480   6.167   0.574   7.540
 4974TIP3    H136481   6.229   0.630   7.492
 4974TIP3    H236482   6.146   0.504   7.478
 4975TIP3   OH236483   4.234   0.410   0.756
 4975TIP3    H136484   4.185   0.487   0.785
 4975TIP3    H236485   4.302   0.397   0.822
 4976TIP3   OH236486   5.087   3.463   8.080
 4976TIP3    H136487   5.096   3.550   8.040
 4976TIP3    H236488   5.073   3.481   8.173
 4977TIP3   OH236489   5.368   1.982   0.640
 4977TIP3    H136490   5.458   2.015   0.641
 4977TIP3    H236491   5.358   1.940   0.725
 4978TIP3   OH236492   5.547   6.078   7.488
 4978TIP3    H136493   5.609   6.150   7.479
 4978TIP3    H236494   5.472   6.104   7.433
 4979TIP3   OH236495   5.399   3.254   1.343
 4979TIP3    H136496   5.442   3.340   1.340
 4979TIP3    H236497   5.306   3.275   1.345
 4980TIP3   OH236498   1.371   0.768   2.326
 4980TIP3    H136499   1.364   0.857   2.293
 4980TIP3    H236500   1.374   0.714   2.247
 4981TIP3   OH236501   3.968   1.865   8.120
 4981TIP3    H136502   3.980   1.827   8.206
 4981TIP3    H236503   3.920   1.947   8.136
 4982TIP3   OH236504   4.705   0.249   7.495
 4982TIP3    H136505   4.674   0.241   7.405
 4982TIP3    H236506   4.800   0.235   7.490
 4983TIP3   OH236507   0.137   5.346   8.096
 4983TIP3    H136508   0.063   5.348   8.156
 4983TIP3    H236509   0.098   5.344   8.009
 4984TIP3   OH236510   2.054   3.442   2.276
 4984TIP3    H136511   2.135   3.446   2.225
 4984TIP3    H236512   2.061   3.513   2.339
 4985TIP3   OH236513   6.503   5.074   7.995
 4985TIP3    H136514   6.569   5.102   7.932
 4985TIP3    H236515   6.552   5.062   8.077
 4986TIP3   OH236516   1.856   1.654   7.944
 4986TIP3    H136517   1.905   1.676   7.865
 4986TIP3    H236518   1.917   1.601   7.996
 4987TIP3   OH236519   0.736   0.800   0.086
 4987TIP3    H136520   0.752   0.840   0.000
 4987TIP3    H236521   0.677   0.727   0.067
 4988TIP3   OH236522   4.983   0.170   7.467
 4988TIP3    H136523   5.022   0.231   7.405
 4988TIP3    H236524   5.022   0.085   7.446
 4989TIP3   OH236525   3.378   5.831   2.086
 4989TIP3    H136526   3.373   5.915   2.039
 4989TIP3    H236527   3.472   5.814   2.094
 4990TIP3   OH236528   4.915   5.631   0.438
 4990TIP3    H136529   4.911   5.536   0.449
 4990TIP3    H236530   4.879   5.666   0.520
 4991TIP3   OH236531   4.235   5.584   1.453
 4991TIP3    H136532   4.249   5.678   1.459
 4991TIP3    H236533   4.155   5.575   1.402
 4992TIP3   OH236534   4.804   0.224   0.793
 4992TIP3    H136535   4.774   0.218   0.884
 4992TIP3    H236536   4.737   0.276   0.749
 4993TIP3   OH236537   4.982   0.617   0.294
 4993TIP3    H136538   4.898   0.619   0.340
 4993TIP3    H236539   4.959   0.601   0.203
 4994TIP3   OH236540   2.184   4.783   0.523
 4994TIP3    H136541   2.195   4.714   0.458
 4994TIP3    H236542   2.128   4.743   0.590
 4995TIP3   OH236543   6.514   6.176   1.667
 4995TIP3    H136544   6.427   6.189   1.631
 4995TIP3    H236545   6.539   6.261   1.704
 4996TIP3   OH236546   5.867   4.611   0.747
 4996TIP3    H136547   5.884   4.702   0.721
 4996TIP3    H236548   5.777   4.612   0.779
 4997TIP3   OH236549   5.794   5.793   0.936
 4997TIP3    H136550   5.823   5.833   0.854
 4997TIP3    H236551   5.762   5.707   0.911
 4998TIP3   OH236552   4.787   0.052   8.305
 4998TIP3    H136553   4.742  -0.032   8.313
 4998TIP3    H236554   4.721   0.110   8.265
 4999TIP3   OH236555   5.031   6.627   7.821
 4999TIP3    H136556   4.985   6.703   7.787
 4999TIP3    H236557   4.967   6.582   7.877
 5000TIP3   OH236558   1.315   4.492   1.503
 5000TIP3    H136559   1.240   4.432   1.499
 5000TIP3    H236560   1.369   4.467   1.428
 5001TIP3   OH236561   2.310   3.896   1.183
 5001TIP3    H136562   2.338   3.837   1.253
 5001TIP3    H236563   2.221   3.868   1.162
 5002TIP3   OH236564   3.829   2.466   6.284
 5002TIP3    H136565   3.801   2.375   6.291
 5002TIP3    H236566   3.887   2.468   6.207
 5003TIP3   OH236567   4.250   4.440   7.261
 5003TIP3    H136568   4.250   4.525   7.216
 5003TIP3    H236569   4.246   4.462   7.354
 5004TIP3   OH236570   4.570   0.599   7.493
 5004TIP3    H136571   4.507   0.532   7.520
 5004TIP3    H236572   4.636   0.599   7.562
 5005TIP3   OH236573   1.656   0.941   0.467
 5005TIP3    H136574   1.610   0.874   0.416
 5005TIP3    H236575   1.599   1.018   0.464
 5006TIP3   OH236576   2.676   4.025   0.355
 5006TIP3    H136577   2.648   4.019   0.447
 5006TIP3    H236578   2.765   4.060   0.360
 5007TIP3   OH236579   6.559   1.713   0.086
 5007TIP3    H136580   6.489   1.777   0.098
 5007TIP3    H236581   6.616   1.752   0.020
 5008TIP3   OH236582   5.038   1.320   0.187
 5008TIP3    H136583   5.048   1.225   0.193
 5008TIP3    H236584   4.948   1.333   0.158
 5009TIP3   OH236585   4.953   0.045   1.484
 5009TIP3    H136586   4.920   0.016   1.569
 5009TIP3    H236587   5.038   0.002   1.476
 5010TIP3   OH236588   3.145   2.873   8.404
 5010TIP3    H136589   3.117   2.816   8.333
 5010TIP3    H236590   3.233   2.842   8.427
 5011TIP3   OH236591   5.225   6.802   8.502
 5011TIP3    H136592   5.283   6.874   8.476
 5011TIP3    H236593   5.159   6.799   8.433
 5012TIP3   OH236594   4.987   3.223   7.871
 5012TIP3    H136595   4.894   3.203   7.870
 5012TIP3    H236596   5.004   3.259   7.958
 5013TIP3   OH236597   5.595   3.415   8.160
 5013TIP3    H136598   5.590   3.385   8.251
 5013TIP3    H236599   5.506   3.443   8.139
 5014TIP3   OH236600   0.522   2.142   1.088
 5014TIP3    H136601   0.483   2.198   1.156
 5014TIP3    H236602   0.528   2.056   1.128
 5015TIP3   OH236603   3.810   6.607   8.333
 5015TIP3    H136604   3.870   6.643   8.399
 5015TIP3    H236605   3.733   6.665   8.337
 5016TIP3   OH236606   2.524   2.470   0.778
 5016TIP3    H136607   2.578   2.513   0.844
 5016TIP3    H236608   2.448   2.437   0.826
 5017TIP3   OH236609   2.994   4.021   1.245
 5017TIP3    H136610   3.081   4.035   1.207
 5017TIP3    H236611   2.940   4.089   1.206
 5018TIP3   OH236612   5.356   0.292   1.539
 5018TIP3    H136613   5.328   0.342   1.615
 5018TIP3    H236614   5.360   0.356   1.468
 5019TIP3   OH236615   2.785   4.925   6.316
 5019TIP3    H136616   2.837   4.905   6.238
 5019TIP3    H236617   2.807   4.855   6.377
 5020TIP3   OH236618   6.338   5.012   0.248
 5020TIP3    H136619   6.365   5.026   0.339
 5020TIP3    H236620   6.244   5.027   0.248
 5021TIP3   OH236621   3.141   1.615   0.287
 5021TIP3    H136622   3.197   1.541   0.313
 5021TIP3    H236623   3.052   1.582   0.301
 5022TIP3   OH236624   2.774   3.653   7.239
 5022TIP3    H136625   2.771   3.749   7.230
 5022TIP3    H236626   2.861   3.630   7.204
 5023TIP3   OH236627   2.538   2.705   8.554
 5023TIP3    H136628   2.537   2.610   8.560
 5023TIP3    H236629   2.562   2.735   8.641
 5024TIP3   OH236630   3.705   6.137   1.368
 5024TIP3    H136631   3.690   6.175   1.282
 5024TIP3    H236632   3.797   6.112   1.368
 5025TIP3   OH236633   0.665   5.282   1.813
 5025TIP3    H136634   0.639   5.291   1.905
 5025TIP3    H236635   0.687   5.189   1.804
 5026TIP3   OH236636   4.342   4.462   1.411
 5026TIP3    H136637   4.276   4.489   1.475
 5026TIP3    H236638   4.308   4.495   1.328
 5027TIP3   OH236639   0.001   4.335   0.029
 5027TIP3    H136640  -0.068   4.354   0.092
 5027TIP3    H236641  -0.041   4.285  -0.041
 5028TIP3   OH236642   2.679   5.063   1.337
 5028TIP3    H136643   2.623   5.025   1.405
 5028TIP3    H236644   2.642   5.030   1.255
 5029TIP3   OH236645   0.246   5.780   0.111
 5029TIP3    H136646   0.233   5.825   0.195
 5029TIP3    H236647   0.341   5.779   0.100
 5030TIP3   OH236648   3.867   1.547   7.639
 5030TIP3    H136649   3.898   1.637   7.653
 5030TIP3    H236650   3.860   1.539   7.544
 5031TIP3   OH236651   2.334   3.001   1.998
 5031TIP3    H136652   2.387   3.069   1.955
 5031TIP3    H236653   2.245   3.035   1.995
 5032TIP3   OH236654   3.803   0.140   0.667
 5032TIP3    H136655   3.858   0.216   0.684
 5032TIP3    H236656   3.715   0.177   0.654
 5033TIP3   OH236657   3.999   6.726   7.566
 5033TIP3    H136658   4.090   6.752   7.557
 5033TIP3    H236659   3.996   6.673   7.646
 5034TIP3   OH236660   2.164   4.671   7.388
 5034TIP3    H136661   2.091   4.611   7.399
 5034TIP3    H236662   2.183   4.669   7.294
 5035TIP3   OH236663   2.596   4.059   0.629
 5035TIP3    H136664   2.608   4.018   0.714
 5035TIP3    H236665   2.505   4.089   0.629
 5036TIP3   OH236666   1.848   2.079   8.480
 5036TIP3    H136667   1.861   2.108   8.389
 5036TIP3    H236668   1.753   2.082   8.492
 5037TIP3   OH236669   0.962   4.296   6.830
 5037TIP3    H136670   0.960   4.352   6.907
 5037TIP3    H236671   0.927   4.351   6.759
 5038TIP3   OH236672   0.854   1.318   7.350
 5038TIP3    H136673   0.819   1.407   7.351
 5038TIP3    H236674   0.832   1.285   7.263
 5039TIP3   OH236675   4.145   1.869   1.673
 5039TIP3    H136676   4.157   1.774   1.667
 5039TIP3    H236677   4.067   1.886   1.620
 5040TIP3   OH236678   3.396   3.768   1.400
 5040TIP3    H136679   3.368   3.859   1.390
 5040TIP3    H236680   3.322   3.726   1.444
 5041TIP3   OH236681   5.975   6.490   7.667
 5041TIP3    H136682   6.032   6.564   7.645
 5041TIP3    H236683   5.911   6.526   7.728
 5042TIP3   OH236684   1.936   2.974   1.116
 5042TIP3    H136685   1.975   3.044   1.063
 5042TIP3    H236686   1.885   3.019   1.183
 5043TIP3   OH236687   0.113   0.399   7.509
 5043TIP3    H136688   0.077   0.444   7.585
 5043TIP3    H236689   0.053   0.326   7.494
 5044TIP3   OH236690   5.705   2.666   6.789
 5044TIP3    H136691   5.718   2.671   6.694
 5044TIP3    H236692   5.757   2.739   6.824
 5045TIP3   OH236693   0.200   1.615   7.131
 5045TIP3    H136694   0.105   1.620   7.136
 5045TIP3    H236695   0.229   1.706   7.136
 5046TIP3   OH236696   0.550   5.737   0.233
 5046TIP3    H136697   0.644   5.738   0.213
 5046TIP3    H236698   0.529   5.829   0.251
 5047TIP3   OH236699   4.711   5.882   7.809
 5047TIP3    H136700   4.785   5.822   7.801
 5047TIP3    H236701   4.647   5.833   7.861
 5048TIP3   OH236702   0.226   5.146   8.586
 5048TIP3    H136703   0.206   5.105   8.670
 5048TIP3    H236704   0.179   5.230   8.589
 5049TIP3   OH236705   3.218   5.974   1.096
 5049TIP3    H136706   3.150   6.041   1.088
 5049TIP3    H236707   3.276   6.006   1.164
 5050TIP3   OH236708   5.840   5.540   2.469
 5050TIP3    H136709   5.908   5.563   2.534
 5050TIP3    H236710   5.822   5.447   2.486
 5051TIP3   OH236711   3.717   0.547   1.942
 5051TIP3    H136712   3.673   0.466   1.916
 5051TIP3    H236713   3.663   0.582   2.013
 5052TIP3   OH236714   6.486   0.264   1.580
 5052TIP3    H136715   6.515   0.206   1.651
 5052TIP3    H236716   6.410   0.220   1.542
 5053TIP3   OH236717   1.729   2.928   7.797
 5053TIP3    H136718   1.707   2.871   7.724
 5053TIP3    H236719   1.776   3.001   7.757
 5054TIP3   OH236720   4.592   0.314   7.953
 5054TIP3    H136721   4.633   0.277   8.031
 5054TIP3    H236722   4.503   0.279   7.954
 5055TIP3   OH236723   3.242   1.973   1.755
 5055TIP3    H136724   3.256   2.043   1.819
 5055TIP3    H236725   3.147   1.972   1.740
 5056TIP3   OH236726   3.335   2.352   7.153
 5056TIP3    H136727   3.345   2.285   7.085
 5056TIP3    H236728   3.416   2.404   7.148
 5057TIP3   OH236729   4.319   0.531   8.330
 5057TIP3    H136730   4.227   0.558   8.329
 5057TIP3    H236731   4.325   0.463   8.264
 5058TIP3   OH236732   4.984   5.397   0.213
 5058TIP3    H136733   5.052   5.456   0.181
 5058TIP3    H236734   4.901   5.440   0.190
 5059TIP3   OH236735   0.541   0.604   0.008
 5059TIP3    H136736   0.448   0.619   0.027
 5059TIP3    H236737   0.552   0.631  -0.083
 5060TIP3   OH236738   1.587   1.800   1.595
 5060TIP3    H136739   1.531   1.817   1.519
 5060TIP3    H236740   1.607   1.887   1.629
 5061TIP3   OH236741   2.136   0.161   8.139
 5061TIP3    H136742   2.134   0.076   8.096
 5061TIP3    H236743   2.214   0.204   8.103
 5062TIP3   OH236744   2.690   5.850   0.996
 5062TIP3    H136745   2.708   5.944   0.994
 5062TIP3    H236746   2.634   5.835   0.919
 5063TIP3   OH236747   3.069   1.332   8.276
 5063TIP3    H136748   2.996   1.281   8.241
 5063TIP3    H236749   3.099   1.281   8.352
 5064TIP3   OH236750   4.290   0.570   6.782
 5064TIP3    H136751   4.249   0.551   6.866
 5064TIP3    H236752   4.252   0.507   6.721
 5065TIP3   OH236753   1.553   0.361   8.455
 5065TIP3    H136754   1.478   0.304   8.474
 5065TIP3    H236755   1.524   0.416   8.383
 5066TIP3   OH236756   6.029   0.709   0.673
 5066TIP3    H136757   5.994   0.665   0.596
 5066TIP3    H236758   6.104   0.656   0.700
 5067TIP3   OH236759   1.806   5.463   7.376
 5067TIP3    H136760   1.813   5.516   7.297
 5067TIP3    H236761   1.810   5.373   7.345
 5068TIP3   OH236762   2.884   3.538   7.524
 5068TIP3    H136763   2.961   3.565   7.475
 5068TIP3    H236764   2.865   3.612   7.582
 5069TIP3   OH236765   5.142   5.566   6.986
 5069TIP3    H136766   5.224   5.577   6.939
 5069TIP3    H236767   5.106   5.654   6.994
 5070TIP3   OH236768   5.658   5.093   1.166
 5070TIP3    H136769   5.662   5.013   1.219
 5070TIP3    H236770   5.568   5.124   1.176
 5071TIP3   OH236771   6.732   5.364   0.838
 5071TIP3    H136772   6.802   5.409   0.885
 5071TIP3    H236773   6.776   5.293   0.791
 5072TIP3   OH236774   4.184   4.568   0.530
 5072TIP3    H136775   4.107   4.622   0.518
 5072TIP3    H236776   4.239   4.617   0.591
 5073TIP3   OH236777   2.579   0.580   0.130
 5073TIP3    H136778   2.642   0.619   0.191
 5073TIP3    H236779   2.604   0.487   0.128
 5074TIP3   OH236780   5.007   4.735   8.375
 5074TIP3    H136781   5.003   4.658   8.317
 5074TIP3    H236782   4.925   4.731   8.424
 5075TIP3   OH236783   1.406   3.122   1.236
 5075TIP3    H136784   1.371   3.196   1.186
 5075TIP3    H236785   1.340   3.053   1.225
 5076TIP3   OH236786   5.440   5.106   7.675
 5076TIP3    H136787   5.390   5.162   7.734
 5076TIP3    H236788   5.525   5.150   7.666
 5077TIP3   OH236789   1.413   0.504   8.265
 5077TIP3    H136790   1.447   0.520   8.177
 5077TIP3    H236791   1.322   0.476   8.252
 5078TIP3   OH236792   4.641   4.885   7.479
 5078TIP3    H136793   4.654   4.876   7.384
 5078TIP3    H236794   4.690   4.813   7.517
 5079TIP3   OH236795   3.121   0.220   7.389
 5079TIP3    H136796   3.180   0.225   7.464
 5079TIP3    H236797   3.085   0.308   7.382
 5080TIP3   OH236798   4.171   0.544   7.047
 5080TIP3    H136799   4.160   0.451   7.065
 5080TIP3    H236800   4.242   0.572   7.104
 5081TIP3   OH236801   3.005   2.191   8.360
 5081TIP3    H136802   3.091   2.231   8.376
 5081TIP3    H236803   3.017   2.140   8.279
 5082TIP3   OH236804   3.451   0.527   8.546
 5082TIP3    H136805   3.390   0.560   8.481
 5082TIP3    H236806   3.522   0.592   8.547
 5083TIP3   OH236807   0.256   0.987   0.391
 5083TIP3    H136808   0.271   1.037   0.471
 5083TIP3    H236809   0.168   0.950   0.402
 5084TIP3   OH236810   1.787   5.471   8.337
 5084TIP3    H136811   1.750   5.556   8.362
 5084TIP3    H236812   1.869   5.465   8.386
 5085TIP3   OH236813   1.383   0.050   1.100
 5085TIP3    H136814   1.343  -0.027   1.141
 5085TIP3    H236815   1.309   0.098   1.062
 5086TIP3   OH236816   0.197   1.014   8.658
 5086TIP3    H136817   0.124   1.041   8.603
 5086TIP3    H236818   0.272   1.063   8.625
 5087TIP3   OH236819   4.971   0.853   8.254
 5087TIP3    H136820   5.031   0.791   8.296
 5087TIP3    H236821   4.892   0.850   8.307
 5088TIP3   OH236822   6.613   4.063   0.696
 5088TIP3    H136823   6.575   4.055   0.783
 5088TIP3    H236824   6.540   4.092   0.641
 5089TIP3   OH236825   3.022   3.895   0.428
 5089TIP3    H136826   2.984   3.967   0.377
 5089TIP3    H236827   3.085   3.855   0.368
 5090TIP3   OH236828   0.934   0.697   2.246
 5090TIP3    H136829   1.001   0.681   2.313
 5090TIP3    H236830   0.983   0.700   2.164
 5091TIP3   OH236831   0.245   0.281   0.365
 5091TIP3    H136832   0.332   0.257   0.397
 5091TIP3    H236833   0.228   0.218   0.294
 5092TIP3   OH236834   0.528   5.380   6.317
 5092TIP3    H136835   0.489   5.458   6.276
 5092TIP3    H236836   0.455   5.320   6.328
 5093TIP3   OH236837   6.161   4.267   0.141
 5093TIP3    H136838   6.226   4.335   0.158
 5093TIP3    H236839   6.081   4.299   0.183
 5094TIP3   OH236840   1.612   2.554   0.968
 5094TIP3    H136841   1.579   2.470   0.938
 5094TIP3    H236842   1.651   2.536   1.053
 5095TIP3   OH236843   4.968   2.563   0.302
 5095TIP3    H136844   4.977   2.587   0.210
 5095TIP3    H236845   5.029   2.491   0.314
 5096TIP3   OH236846   1.062   4.404   1.465
 5096TIP3    H136847   0.988   4.459   1.493
 5096TIP3    H236848   1.043   4.318   1.503
 5097TIP3   OH236849   3.271   5.227   8.358
 5097TIP3    H136850   3.346   5.237   8.417
 5097TIP3    H236851   3.307   5.181   8.282
 5098TIP3   OH236852   5.127   4.843   2.374
 5098TIP3    H136853   5.193   4.901   2.337
 5098TIP3    H236854   5.165   4.813   2.456
 5099TIP3   OH236855   1.456   6.462   8.414
 5099TIP3    H136856   1.500   6.398   8.358
 5099TIP3    H236857   1.394   6.410   8.466
 5100TIP3   OH236858   2.080   0.793   7.228
 5100TIP3    H136859   2.138   0.839   7.168
 5100TIP3    H236860   2.128   0.792   7.311
 5101TIP3   OH236861   1.954   3.447   7.848
 5101TIP3    H136862   2.027   3.388   7.831
 5101TIP3    H236863   1.965   3.519   7.785
 5102TIP3   OH236864   1.153   2.383   1.249
 5102TIP3    H136865   1.093   2.325   1.201
 5102TIP3    H236866   1.240   2.359   1.217
 5103TIP3   OH236867   5.788   5.440   6.719
 5103TIP3    H136868   5.739   5.481   6.649
 5103TIP3    H236869   5.784   5.346   6.700
 5104TIP3   OH236870   5.768   6.193   6.490
 5104TIP3    H136871   5.843   6.217   6.434
 5104TIP3    H236872   5.717   6.273   6.498
 5105TIP3   OH236873   4.847   4.635   7.182
 5105TIP3    H136874   4.879   4.609   7.095
 5105TIP3    H236875   4.857   4.557   7.236
 5106TIP3   OH236876   3.539   1.006   0.547
 5106TIP3    H136877   3.631   0.987   0.527
 5106TIP3    H236878   3.490   0.945   0.492
 5107TIP3   OH236879   5.312   4.247   7.685
 5107TIP3    H136880   5.374   4.244   7.757
 5107TIP3    H236881   5.356   4.200   7.614
 5108TIP3   OH236882   0.788   6.239   1.956
 5108TIP3    H136883   0.783   6.147   1.982
 5108TIP3    H236884   0.753   6.287   2.031
 5109TIP3   OH236885   5.093   5.180   8.337
 5109TIP3    H136886   5.133   5.230   8.266
 5109TIP3    H236887   5.162   5.122   8.367
 5110TIP3   OH236888   4.766   2.622   8.702
 5110TIP3    H136889   4.755   2.554   8.769
 5110TIP3    H236890   4.692   2.681   8.716
 5111TIP3   OH236891   0.760   5.544   1.613
 5111TIP3    H136892   0.688   5.607   1.622
 5111TIP3    H236893   0.718   5.463   1.583
 5112TIP3   OH236894   2.722   6.296   8.155
 5112TIP3    H136895   2.656   6.227   8.148
 5112TIP3    H236896   2.739   6.303   8.248
 5113TIP3   OH236897   6.483   5.995   6.528
 5113TIP3    H136898   6.555   6.057   6.533
 5113TIP3    H236899   6.467   5.985   6.434
 5114TIP3   OH236900   2.356   5.282   0.545
 5114TIP3    H136901   2.447   5.305   0.528
 5114TIP3    H236902   2.311   5.366   0.554
 5115TIP3   OH236903   2.583   5.224   6.379
 5115TIP3    H136904   2.506   5.260   6.424
 5115TIP3    H236905   2.548   5.152   6.327
 5116TIP3   OH236906   1.092   3.526   6.914
 5116TIP3    H136907   1.114   3.601   6.968
 5116TIP3    H236908   1.051   3.464   6.974
 5117TIP3   OH236909   3.461   4.805   7.886
 5117TIP3    H136910   3.528   4.860   7.845
 5117TIP3    H236911   3.477   4.718   7.849
 5118TIP3   OH236912   1.055   3.278   0.738
 5118TIP3    H136913   0.968   3.268   0.701
 5118TIP3    H236914   1.051   3.230   0.821
 5119TIP3   OH236915   5.790   2.478   6.999
 5119TIP3    H136916   5.830   2.403   6.956
 5119TIP3    H236917   5.750   2.528   6.927
 5120TIP3   OH236918   4.932   2.348   2.608
 5120TIP3    H136919   4.868   2.285   2.639
 5120TIP3    H236920   4.880   2.426   2.585
 5121TIP3   OH236921   6.524   1.899   1.041
 5121TIP3    H136922   6.588   1.839   1.079
 5121TIP3    H236923   6.533   1.887   0.946
 5122TIP3   OH236924   4.159   4.369   0.079
 5122TIP3    H136925   4.216   4.301   0.042
 5122TIP3    H236926   4.070   4.341   0.056
 5123TIP3   OH236927   5.069   1.041   0.273
 5123TIP3    H136928   5.021   1.016   0.353
 5123TIP3    H236929   5.156   1.064   0.304
 5124TIP3   OH236930   2.959   2.144   0.922
 5124TIP3    H136931   2.867   2.125   0.942
 5124TIP3    H236932   2.966   2.239   0.927
 5125TIP3   OH236933   4.151   4.008   7.141
 5125TIP3    H136934   4.206   3.962   7.077
 5125TIP3    H236935   4.063   3.977   7.124
 5126TIP3   OH236936   4.028   4.486   6.395
 5126TIP3    H136937   3.953   4.479   6.454
 5126TIP3    H236938   4.018   4.572   6.353
 5127TIP3   OH236939   0.354   4.430   8.800
 5127TIP3    H136940   0.354   4.337   8.821
 5127TIP3    H236941   0.380   4.473   8.882
 5128TIP3   OH236942   0.951   2.676   0.093
 5128TIP3    H136943   1.045   2.685   0.078
 5128TIP3    H236944   0.937   2.582   0.101
 5129TIP3   OH236945   6.311   5.632   0.589
 5129TIP3    H136946   6.256   5.555   0.575
 5129TIP3    H236947   6.400   5.601   0.577
 5130TIP3   OH236948   0.536   1.751   7.219
 5130TIP3    H136949   0.494   1.790   7.143
 5130TIP3    H236950   0.630   1.755   7.200
 5131TIP3   OH236951   3.047   1.196   6.673
 5131TIP3    H136952   3.081   1.162   6.756
 5131TIP3    H236953   3.062   1.290   6.677
 5132TIP3   OH236954   1.007   4.340   7.997
 5132TIP3    H136955   1.037   4.256   7.963
 5132TIP3    H236956   0.913   4.341   7.980
 5133TIP3   OH236957   6.588   2.298   0.890
 5133TIP3    H136958   6.555   2.247   0.816
 5133TIP3    H236959   6.682   2.304   0.876
 5134TIP3   OH236960   6.478   0.644   1.834
 5134TIP3    H136961   6.459   0.683   1.749
 5134TIP3    H236962   6.424   0.693   1.895
 5135TIP3   OH236963   6.519   0.966   7.505
 5135TIP3    H136964   6.609   0.990   7.487
 5135TIP3    H236965   6.467   1.012   7.439
 5136TIP3   OH236966   0.913   0.855   7.632
 5136TIP3    H136967   0.841   0.797   7.658
 5136TIP3    H236968   0.938   0.824   7.545
 5137TIP3   OH236969   4.821   2.448   1.322
 5137TIP3    H136970   4.754   2.386   1.351
 5137TIP3    H236971   4.824   2.514   1.391
 5138TIP3   OH236972   5.262   1.408   6.449
 5138TIP3    H136973   5.342   1.355   6.439
 5138TIP3    H236974   5.235   1.427   6.359
 5139TIP3   OH236975   3.448   6.167   7.675
 5139TIP3    H136976   3.434   6.101   7.608
 5139TIP3    H236977   3.379   6.152   7.739
 5140TIP3   OH236978   4.125   2.446   7.300
 5140TIP3    H136979   4.098   2.476   7.387
 5140TIP3    H236980   4.162   2.359   7.315
 5141TIP3   OH236981   3.295   3.930   6.560
 5141TIP3    H136982   3.249   4.013   6.551
 5141TIP3    H236983   3.290   3.910   6.654
 5142TIP3   OH236984   0.704   5.819   0.554
 5142TIP3    H136985   0.750   5.782   0.479
 5142TIP3    H236986   0.773   5.847   0.614
 5143TIP3   OH236987   0.412   1.001   7.084
 5143TIP3    H136988   0.493   0.967   7.049
 5143TIP3    H236989   0.417   1.096   7.069
 5144TIP3   OH236990   1.059   6.077   8.045
 5144TIP3    H136991   1.153   6.087   8.028
 5144TIP3    H236992   1.018   6.077   7.959
 5145TIP3   OH236993   0.591   5.492   6.789
 5145TIP3    H136994   0.570   5.511   6.697
 5145TIP3    H236995   0.687   5.493   6.792
 5146TIP3   OH236996   1.108   0.882   1.500
 5146TIP3    H136997   1.046   0.855   1.432
 5146TIP3    H236998   1.052   0.915   1.571
 5147TIP3   OH236999   3.695   1.391   7.809
 5147TIP3    H137000   3.726   1.301   7.797
 5147TIP3    H237001   3.771   1.445   7.788
 5148TIP3   OH237002   6.340   1.500   7.999
 5148TIP3    H137003   6.273   1.452   8.047
 5148TIP3    H237004   6.381   1.435   7.943
 5149TIP3   OH237005   3.756   3.602   2.349
 5149TIP3    H137006   3.726   3.667   2.413
 5149TIP3    H237007   3.721   3.519   2.382
 5150TIP3   OH237008   5.566   6.269   1.887
 5150TIP3    H137009   5.505   6.217   1.939
 5150TIP3    H237010   5.518   6.286   1.805
 5151TIP3   OH237011   4.350   6.504   0.935
 5151TIP3    H137012   4.347   6.494   0.840
 5151TIP3    H237013   4.290   6.576   0.953
 5152TIP3   OH237014   0.491   2.669   2.102
 5152TIP3    H137015   0.443   2.586   2.107
 5152TIP3    H237016   0.564   2.658   2.164
 5153TIP3   OH237017   5.454   6.375   1.670
 5153TIP3    H137018   5.501   6.369   1.587
 5153TIP3    H237019   5.467   6.465   1.699
 5154TIP3   OH237020   1.780   0.057   8.278
 5154TIP3    H137021   1.802  -0.022   8.327
 5154TIP3    H237022   1.790   0.129   8.341
 5155TIP3   OH237023   0.408   3.279   1.337
 5155TIP3    H137024   0.443   3.368   1.334
 5155TIP3    H237025   0.339   3.279   1.271
 5156TIP3   OH237026   3.830   1.618   1.717
 5156TIP3    H137027   3.899   1.680   1.740
 5156TIP3    H237028   3.749   1.669   1.717
 5157TIP3   OH237029   0.645   0.458   1.653
 5157TIP3    H137030   0.589   0.422   1.722
 5157TIP3    H237031   0.710   0.510   1.700
 5158TIP3   OH237032   2.441   3.413   1.541
 5158TIP3    H137033   2.435   3.509   1.541
 5158TIP3    H237034   2.454   3.390   1.449
 5159TIP3   OH237035   2.182   1.362   0.101
 5159TIP3    H137036   2.262   1.310   0.108
 5159TIP3    H237037   2.128   1.314   0.039
 5160TIP3   OH237038   4.294   2.108   0.283
 5160TIP3    H137039   4.255   2.177   0.230
 5160TIP3    H237040   4.221   2.068   0.330
 5161TIP3   OH237041   4.099   3.605   6.958
 5161TIP3    H137042   4.063   3.687   6.926
 5161TIP3    H237043   4.110   3.551   6.880
 5162TIP3   OH237044   4.379   5.374   1.559
 5162TIP3    H137045   4.329   5.441   1.513
 5162TIP3    H237046   4.317   5.304   1.575
 5163TIP3   OH237047   6.109   3.910   2.173
 5163TIP3    H137048   6.203   3.896   2.177
 5163TIP3    H237049   6.085   3.936   2.262
 5164TIP3   OH237050   5.452   5.390   0.320
 5164TIP3    H137051   5.500   5.307   0.329
 5164TIP3    H237052   5.404   5.381   0.238
 5165TIP3   OH237053   0.783   0.502   8.453
 5165TIP3    H137054   0.848   0.502   8.523
 5165TIP3    H237055   0.833   0.490   8.372
 5166TIP3   OH237056   4.006   2.535   7.886
 5166TIP3    H137057   3.935   2.598   7.898
 5166TIP3    H237058   4.084   2.590   7.875
 5167TIP3   OH237059   3.638   0.609   7.533
 5167TIP3    H137060   3.628   0.514   7.539
 5167TIP3    H237061   3.613   0.642   7.619
 5168TIP3   OH237062   5.422   0.277   7.355
 5168TIP3    H137063   5.440   0.356   7.304
 5168TIP3    H237064   5.349   0.301   7.413
 5169TIP3   OH237065   4.806   6.756   0.121
 5169TIP3    H137066   4.710   6.750   0.116
 5169TIP3    H237067   4.826   6.748   0.214
 5170TIP3   OH237068   2.486   0.927   7.546
 5170TIP3    H137069   2.441   0.992   7.491
 5170TIP3    H237070   2.431   0.919   7.623
 5171TIP3   OH237071   2.527   0.009   8.494
 5171TIP3    H137072   2.444  -0.040   8.490
 5171TIP3    H237073   2.504   0.097   8.465
 5172TIP3   OH237074   3.426   0.761   0.431
 5172TIP3    H137075   3.411   0.704   0.506
 5172TIP3    H237076   3.358   0.736   0.368
 5173TIP3   OH237077   0.937   2.647   0.795
 5173TIP3    H137078   0.920   2.623   0.886
 5173TIP3    H237079   0.964   2.739   0.799
 5174TIP3   OH237080   4.357   3.708   1.043
 5174TIP3    H137081   4.394   3.789   1.076
 5174TIP3    H237082   4.405   3.639   1.088
 5175TIP3   OH237083   2.255   1.456   0.435
 5175TIP3    H137084   2.235   1.374   0.479
 5175TIP3    H237085   2.316   1.500   0.495
 5176TIP3   OH237086   3.063   0.139   0.332
 5176TIP3    H137087   3.035   0.194   0.259
 5176TIP3    H237088   3.127   0.079   0.294
 5177TIP3   OH237089   4.308   0.312   8.174
 5177TIP3    H137090   4.288   0.342   8.085
 5177TIP3    H237091   4.280   0.221   8.174
 5178TIP3   OH237092   4.915   4.960   1.588
 5178TIP3    H137093   4.909   4.932   1.679
 5178TIP3    H237094   4.830   4.940   1.550
 5179TIP3   OH237095   2.071   0.801   1.590
 5179TIP3    H137096   2.049   0.828   1.679
 5179TIP3    H237097   2.000   0.742   1.564
 5180TIP3   OH237098   6.579   5.576   1.674
 5180TIP3    H137099   6.542   5.588   1.761
 5180TIP3    H237100   6.541   5.647   1.622
 5181TIP3   OH237101   3.911   0.347   8.517
 5181TIP3    H137102   3.936   0.336   8.426
 5181TIP3    H237103   3.817   0.363   8.515
 5182TIP3   OH237104   1.663   0.385   0.438
 5182TIP3    H137105   1.693   0.475   0.440
 5182TIP3    H237106   1.667   0.356   0.529
 5183TIP3   OH237107   4.787   2.363   1.870
 5183TIP3    H137108   4.754   2.292   1.926
 5183TIP3    H237109   4.709   2.415   1.850
 5184TIP3   OH237110   4.617   2.696   7.457
 5184TIP3    H137111   4.535   2.712   7.412
 5184TIP3    H237112   4.594   2.693   7.550
 5185TIP3   OH237113   4.239   1.388   0.455
 5185TIP3    H137114   4.220   1.323   0.522
 5185TIP3    H237115   4.249   1.470   0.504
 5186TIP3   OH237116   3.402   6.100   6.536
 5186TIP3    H137117   3.318   6.119   6.578
 5186TIP3    H237118   3.466   6.101   6.608
 5187TIP3   OH237119   4.796   2.012   1.180
 5187TIP3    H137120   4.865   1.979   1.238
 5187TIP3    H237121   4.768   1.935   1.131
 5188TIP3   OH237122   5.478   3.059   1.511
 5188TIP3    H137123   5.457   3.123   1.443
 5188TIP3    H237124   5.400   3.004   1.515
 5189TIP3   OH237125   4.494   6.216   7.902
 5189TIP3    H137126   4.537   6.172   7.976
 5189TIP3    H237127   4.548   6.293   7.885
 5190TIP3   OH237128   3.696   4.919   0.238
 5190TIP3    H137129   3.679   5.004   0.198
 5190TIP3    H237130   3.718   4.939   0.329
 5191TIP3   OH237131   1.035   5.533   0.375
 5191TIP3    H137132   0.992   5.491   0.300
 5191TIP3    H237133   1.124   5.551   0.344
 5192TIP3   OH237134   4.798   6.653   6.170
 5192TIP3    H137135   4.842   6.611   6.245
 5192TIP3    H237136   4.773   6.580   6.113
 5193TIP3   OH237137   5.015   5.808   6.887
 5193TIP3    H137138   4.919   5.809   6.888
 5193TIP3    H237139   5.037   5.774   6.800
 5194TIP3   OH237140   0.569   2.967   8.098
 5194TIP3    H137141   0.631   2.963   8.025
 5194TIP3    H237142   0.484   2.949   8.058
 5195TIP3   OH237143   5.256   6.274   8.814
 5195TIP3    H137144   5.264   6.369   8.818
 5195TIP3    H237145   5.299   6.249   8.732
 5196TIP3   OH237146   1.440   4.683   7.263
 5196TIP3    H137147   1.350   4.689   7.232
 5196TIP3    H237148   1.436   4.623   7.337
 5197TIP3   OH237149   3.533   1.926   6.987
 5197TIP3    H137150   3.595   1.928   7.059
 5197TIP3    H237151   3.521   1.833   6.968
 5198TIP3   OH237152   5.318   1.075   0.374
 5198TIP3    H137153   5.356   1.163   0.383
 5198TIP3    H237154   5.394   1.016   0.374
 5199TIP3   OH237155   2.292   5.073   8.274
 5199TIP3    H137156   2.374   5.073   8.225
 5199TIP3    H237157   2.270   4.980   8.284
 5200TIP3   OH237158   0.939   3.138   8.781
 5200TIP3    H137159   0.883   3.214   8.800
 5200TIP3    H237160   1.021   3.176   8.750
 5201TIP3   OH237161   6.416   4.088   0.909
 5201TIP3    H137162   6.338   4.144   0.904
 5201TIP3    H237163   6.403   4.038   0.990
 5202TIP3   OH237164   5.826   6.351   7.031
 5202TIP3    H137165   5.917   6.320   7.034
 5202TIP3    H237166   5.791   6.313   6.950
 5203TIP3   OH237167   6.667   3.777   6.860
 5203TIP3    H137168   6.590   3.798   6.807
 5203TIP3    H237169   6.676   3.851   6.920
 5204TIP3   OH237170   3.835   0.455   7.748
 5204TIP3    H137171   3.884   0.373   7.761
 5204TIP3    H237172   3.819   0.487   7.837
 5205TIP3   OH237173   3.903   4.378   0.696
 5205TIP3    H137174   3.840   4.419   0.637
 5205TIP3    H237175   3.956   4.451   0.729
 5206TIP3   OH237176   1.758   4.331   8.745
 5206TIP3    H137177   1.772   4.421   8.717
 5206TIP3    H237178   1.845   4.292   8.745
 5207TIP3   OH237179   5.834   1.323   7.108
 5207TIP3    H137180   5.739   1.326   7.100
 5207TIP3    H237181   5.851   1.263   7.181
 5208TIP3   OH237182   4.546   0.816   7.334
 5208TIP3    H137183   4.623   0.864   7.367
 5208TIP3    H237184   4.554   0.729   7.372
 5209TIP3   OH237185   5.933   1.568   7.121
 5209TIP3    H137186   5.865   1.633   7.100
 5209TIP3    H237187   5.886   1.485   7.126
 5210TIP3   OH237188   3.913   0.720   8.805
 5210TIP3    H137189   3.918   0.808   8.844
 5210TIP3    H237190   4.004   0.694   8.793
 5211TIP3   OH237191   4.456   5.296   0.129
 5211TIP3    H137192   4.536   5.301   0.076
 5211TIP3    H237193   4.475   5.349   0.206
 5212TIP3   OH237194   4.207   5.875   7.556
 5212TIP3    H137195   4.131   5.825   7.587
 5212TIP3    H237196   4.239   5.920   7.635
 5213TIP3   OH237197   3.051   5.786   0.749
 5213TIP3    H137198   3.132   5.742   0.721
 5213TIP3    H237199   2.983   5.720   0.737
 5214TIP3   OH237200   5.773   0.468   0.778
 5214TIP3    H137201   5.783   0.550   0.827
 5214TIP3    H237202   5.680   0.449   0.781
 5215TIP3   OH237203   5.289   2.564   6.950
 5215TIP3    H137204   5.197   2.537   6.952
 5215TIP3    H237205   5.308   2.592   7.040
 5216TIP3   OH237206   3.005   4.531   6.311
 5216TIP3    H137207   2.977   4.462   6.252
 5216TIP3    H237208   3.038   4.485   6.388
 5217TIP3   OH237209   3.926   0.748   1.185
 5217TIP3    H137210   4.002   0.716   1.235
 5217TIP3    H237211   3.928   0.843   1.197
 5218TIP3   OH237212   4.234   4.663   7.071
 5218TIP3    H137213   4.157   4.652   7.015
 5218TIP3    H237214   4.307   4.631   7.018
 5219TIP3   OH237215   6.516   2.169   0.345
 5219TIP3    H137216   6.575   2.103   0.308
 5219TIP3    H237217   6.429   2.131   0.335
 5220TIP3   OH237218   1.886   0.889   8.795
 5220TIP3    H137219   1.875   0.968   8.742
 5220TIP3    H237220   1.908   0.921   8.883
 5221TIP3   OH237221   4.913   4.732   1.144
 5221TIP3    H137222   4.856   4.809   1.153
 5221TIP3    H237223   5.001   4.765   1.160
 5222TIP3   OH237224   4.394   5.973   7.793
 5222TIP3    H137225   4.442   5.907   7.742
 5222TIP3    H237226   4.444   6.053   7.782
 5223TIP3   OH237227   1.066   3.405   0.168
 5223TIP3    H137228   1.024   3.446   0.243
 5223TIP3    H237229   1.001   3.408   0.098
 5224TIP3   OH237230   0.220   5.121   6.859
 5224TIP3    H137231   0.258   5.196   6.812
 5224TIP3    H237232   0.153   5.087   6.800
 5225TIP3   OH237233   4.656   5.713   8.214
 5225TIP3    H137234   4.734   5.698   8.267
 5225TIP3    H237235   4.593   5.648   8.245
 5226TIP3   OH237236   0.601   4.498   1.562
 5226TIP3    H137237   0.670   4.525   1.501
 5226TIP3    H237238   0.641   4.429   1.615
 5227TIP3   OH237239   2.032   2.350   8.604
 5227TIP3    H137240   1.939   2.355   8.624
 5227TIP3    H237241   2.041   2.394   8.520
 5228TIP3   OH237242   3.217   4.531   7.660
 5228TIP3    H137243   3.307   4.520   7.689
 5228TIP3    H237244   3.181   4.598   7.717
 5229TIP3   OH237245   4.329   4.280   6.109
 5229TIP3    H137246   4.355   4.362   6.066
 5229TIP3    H237247   4.245   4.258   6.069
 5230TIP3   OH237248   3.895   2.993   0.002
 5230TIP3    H137249   3.975   3.044  -0.007
 5230TIP3    H237250   3.922   2.913   0.047
 5231TIP3   OH237251   1.666   6.352   0.103
 5231TIP3    H137252   1.717   6.273   0.123
 5231TIP3    H237253   1.711   6.391   0.028
 5232TIP3   OH237254   3.281   4.641   8.582
 5232TIP3    H137255   3.369   4.603   8.578
 5232TIP3    H237256   3.241   4.617   8.499
 5233TIP3   OH237257   3.546   1.909   6.612
 5233TIP3    H137258   3.586   1.993   6.633
 5233TIP3    H237259   3.536   1.910   6.517
 5234TIP3   OH237260   1.945   2.243   1.706
 5234TIP3    H137261   1.869   2.209   1.659
 5234TIP3    H237262   2.013   2.251   1.639
 5235TIP3   OH237263   5.438   6.547   1.178
 5235TIP3    H137264   5.394   6.632   1.181
 5235TIP3    H237265   5.513   6.557   1.236
 5236TIP3   OH237266   0.610   0.260   1.262
 5236TIP3    H137267   0.542   0.308   1.309
 5236TIP3    H237268   0.593   0.279   1.169
 5237TIP3   OH237269   3.100   5.968   7.338
 5237TIP3    H137270   3.190   5.954   7.311
 5237TIP3    H237271   3.050   5.972   7.256
 5238TIP3   OH237272   6.036   3.290   6.944
 5238TIP3    H137273   6.046   3.350   6.870
 5238TIP3    H237274   6.075   3.338   7.018
 5239TIP3   OH237275   1.992   6.740   1.936
 5239TIP3    H137276   2.081   6.713   1.959
 5239TIP3    H237277   1.937   6.666   1.961
 5240TIP3   OH237278   5.339   1.306   7.153
 5240TIP3    H137279   5.369   1.217   7.172
 5240TIP3    H237280   5.404   1.362   7.195
 5241TIP3   OH237281   6.763   1.976   8.077
 5241TIP3    H137282   6.847   2.008   8.043
 5241TIP3    H237283   6.754   2.017   8.163
 5242TIP3   OH237284   4.811   5.424   8.565
 5242TIP3    H137285   4.784   5.427   8.474
 5242TIP3    H237286   4.905   5.405   8.562
 5243TIP3   OH237287   5.079   2.760   2.078
 5243TIP3    H137288   5.013   2.815   2.036
 5243TIP3    H237289   5.030   2.706   2.140
 5244TIP3   OH237290   0.657   4.541   8.740
 5244TIP3    H137291   0.693   4.559   8.653
 5244TIP3    H237292   0.570   4.581   8.740
 5245TIP3   OH237293   4.163   5.406   7.638
 5245TIP3    H137294   4.214   5.486   7.624
 5245TIP3    H237295   4.211   5.337   7.593
 5246TIP3   OH237296   6.748   5.120   1.284
 5246TIP3    H137297   6.795   5.070   1.218
 5246TIP3    H237298   6.695   5.183   1.235
 5247TIP3   OH237299   1.282   5.568   1.393
 5247TIP3    H137300   1.192   5.556   1.422
 5247TIP3    H237301   1.278   5.644   1.335
 5248TIP3   OH237302   2.470   5.156   1.074
 5248TIP3    H137303   2.386   5.110   1.071
 5248TIP3    H237304   2.466   5.210   1.153
 5249TIP3   OH237305   3.473   2.358   8.269
 5249TIP3    H137306   3.486   2.453   8.273
 5249TIP3    H237307   3.384   2.345   8.302
 5250TIP3   OH237308   0.382   0.308   1.443
 5250TIP3    H137309   0.345   0.226   1.477
 5250TIP3    H237310   0.383   0.366   1.519
 5251TIP3   OH237311   6.245   0.904   6.667
 5251TIP3    H137312   6.295   0.935   6.591
 5251TIP3    H237313   6.270   0.964   6.738
 5252TIP3   OH237314   6.675   6.469   0.387
 5252TIP3    H137315   6.700   6.510   0.304
 5252TIP3    H237316   6.586   6.436   0.372
 5253TIP3   OH237317   5.299   4.209   7.234
 5253TIP3    H137318   5.238   4.136   7.222
 5253TIP3    H237319   5.360   4.202   7.160
 5254TIP3   OH237320   3.211   3.321   1.825
 5254TIP3    H137321   3.142   3.285   1.770
 5254TIP3    H237322   3.195   3.283   1.912
 5255TIP3   OH237323   3.524   5.066   0.458
 5255TIP3    H137324   3.606   5.099   0.495
 5255TIP3    H237325   3.467   5.143   0.453
 5256TIP3   OH237326   1.854   0.635   7.656
 5256TIP3    H137327   1.924   0.571   7.660
 5256TIP3    H237328   1.843   0.654   7.563
 5257TIP3   OH237329   0.436   4.865   8.363
 5257TIP3    H137330   0.355   4.907   8.391
 5257TIP3    H237331   0.409   4.779   8.330
 5258TIP3   OH237332   4.780   3.889   0.538
 5258TIP3    H137333   4.740   3.964   0.495
 5258TIP3    H237334   4.723   3.815   0.515
 5259TIP3   OH237335   5.715   2.831   6.377
 5259TIP3    H137336   5.645   2.766   6.376
 5259TIP3    H237337   5.787   2.788   6.424
 5260TIP3   OH237338   0.382   6.408   7.663
 5260TIP3    H137339   0.387   6.483   7.603
 5260TIP3    H237340   0.331   6.441   7.737
 5261TIP3   OH237341   0.285   4.479   6.932
 5261TIP3    H137342   0.213   4.542   6.931
 5261TIP3    H237343   0.279   4.437   7.017
 5262TIP3   OH237344   1.260   0.680   7.335
 5262TIP3    H137345   1.341   0.650   7.295
 5262TIP3    H237346   1.228   0.605   7.385
 5263TIP3   OH237347   4.277   5.224   1.156
 5263TIP3    H137348   4.356   5.243   1.207
 5263TIP3    H237349   4.262   5.131   1.167
 5264TIP3   OH237350   4.232   0.118   8.471
 5264TIP3    H137351   4.254   0.122   8.378
 5264TIP3    H237352   4.316   0.116   8.516
 5265TIP3   OH237353   2.939   3.946   0.691
 5265TIP3    H137354   2.877   4.008   0.653
 5265TIP3    H237355   2.989   3.913   0.617
 5266TIP3   OH237356   1.542   2.634   7.678
 5266TIP3    H137357   1.623   2.669   7.641
 5266TIP3    H237358   1.543   2.541   7.656
 5267TIP3   OH237359   2.551   5.656   1.162
 5267TIP3    H137360   2.501   5.612   1.094
 5267TIP3    H237361   2.633   5.681   1.120
 5268TIP3   OH237362   1.783   0.774   1.193
 5268TIP3    H137363   1.748   0.692   1.160
 5268TIP3    H237364   1.735   0.842   1.146
 5269TIP3   OH237365   5.265   4.651   8.146
 5269TIP3    H137366   5.199   4.587   8.176
 5269TIP3    H237367   5.346   4.623   8.189
 5270TIP3   OH237368   1.223   0.936   0.262
 5270TIP3    H137369   1.227   0.855   0.212
 5270TIP3    H237370   1.146   0.926   0.318
 5271TIP3   OH237371   0.337   4.439   7.546
 5271TIP3    H137372   0.406   4.471   7.487
 5271TIP3    H237373   0.379   4.436   7.632
 5272TIP3   OH237374   5.116   3.908   0.292
 5272TIP3    H137375   5.181   3.847   0.257
 5272TIP3    H237376   5.037   3.891   0.242
 5273TIP3   OH237377   3.949   1.853   1.488
 5273TIP3    H137378   3.923   1.767   1.456
 5273TIP3    H237379   3.932   1.912   1.414
 5274TIP3   OH237380   2.570   3.965   1.716
 5274TIP3    H137381   2.507   3.998   1.779
 5274TIP3    H237382   2.518   3.915   1.653
 5275TIP3   OH237383   6.532   4.094   0.190
 5275TIP3    H137384   6.561   4.183   0.208
 5275TIP3    H237385   6.585   4.066   0.115
 5276TIP3   OH237386   5.585   1.841   1.779
 5276TIP3    H137387   5.543   1.775   1.834
 5276TIP3    H237388   5.558   1.925   1.818
 5277TIP3   OH237389   0.427   4.737   7.921
 5277TIP3    H137390   0.347   4.778   7.952
 5277TIP3    H237391   0.485   4.735   7.997
 5278TIP3   OH237392   5.726   4.535   7.785
 5278TIP3    H137393   5.772   4.618   7.801
 5278TIP3    H237394   5.728   4.526   7.689
 5279TIP3   OH237395   0.940   3.223   6.860
 5279TIP3    H137396   0.879   3.160   6.897
 5279TIP3    H237397   0.940   3.295   6.923
 5280TIP3   OH237398   2.156   5.914   1.497
 5280TIP3    H137399   2.214   5.979   1.536
 5280TIP3    H237400   2.208   5.833   1.495
 5281TIP3   OH237401   2.802   6.506   2.113
 5281TIP3    H137402   2.742   6.456   2.168
 5281TIP3    H237403   2.747   6.572   2.071
 5282TIP3   OH237404   2.429   5.703   0.818
 5282TIP3    H137405   2.414   5.715   0.724
 5282TIP3    H237406   2.493   5.632   0.823
 5283TIP3   OH237407   5.321   4.920   0.051
 5283TIP3    H137408   5.250   4.983   0.041
 5283TIP3    H237409   5.365   4.945   0.132
 5284TIP3   OH237410   5.068   1.862   1.617
 5284TIP3    H137411   5.116   1.779   1.618
 5284TIP3    H237412   5.128   1.924   1.576
 5285TIP3   OH237413   1.410   3.753   1.298
 5285TIP3    H137414   1.413   3.848   1.310
 5285TIP3    H237415   1.369   3.720   1.378
 5286TIP3   OH237416   2.662   1.256   7.936
 5286TIP3    H137417   2.724   1.322   7.905
 5286TIP3    H237418   2.579   1.280   7.895
 5287TIP3   OH237419   2.456   2.491   0.164
 5287TIP3    H137420   2.421   2.453   0.245
 5287TIP3    H237421   2.397   2.458   0.096
 5288TIP3   OH237422   2.113   2.645   1.109
 5288TIP3    H137423   2.054   2.648   1.185
 5288TIP3    H237424   2.173   2.718   1.123
 5289TIP3   OH237425   4.857   6.505   6.856
 5289TIP3    H137426   4.847   6.464   6.770
 5289TIP3    H237427   4.820   6.593   6.844
 5290TIP3   OH237428   4.609   0.699   2.249
 5290TIP3    H137429   4.670   0.663   2.185
 5290TIP3    H237430   4.555   0.624   2.275
 5291TIP3   OH237431   5.777   4.666   1.087
 5291TIP3    H137432   5.714   4.676   1.016
 5291TIP3    H237433   5.824   4.586   1.066
 5292TIP3   OH237434   0.191   1.312   0.828
 5292TIP3    H137435   0.277   1.333   0.792
 5292TIP3    H237436   0.134   1.383   0.799
 5293TIP3   OH237437   0.335   1.300   2.243
 5293TIP3    H137438   0.249   1.288   2.203
 5293TIP3    H237439   0.379   1.215   2.233
 5294TIP3   OH237440   0.314   3.102   6.512
 5294TIP3    H137441   0.291   3.073   6.424
 5294TIP3    H237442   0.285   3.193   6.516
 5295TIP3   OH237443   6.204   0.322   0.196
 5295TIP3    H137444   6.165   0.248   0.242
 5295TIP3    H237445   6.229   0.384   0.265
 5296TIP3   OH237446   4.706   5.578   1.033
 5296TIP3    H137447   4.761   5.648   1.000
 5296TIP3    H237448   4.759   5.535   1.101
 5297TIP3   OH237449   6.522   5.873   0.576
 5297TIP3    H137450   6.547   5.894   0.666
 5297TIP3    H237451   6.501   5.780   0.578
 5298TIP3   OH237452   1.698   4.490   7.264
 5298TIP3    H137453   1.793   4.479   7.269
 5298TIP3    H237454   1.684   4.545   7.187
 5299TIP3   OH237455   2.375   3.986   1.967
 5299TIP3    H137456   2.335   3.909   2.006
 5299TIP3    H237457   2.469   3.971   1.975
 5300TIP3   OH237458   2.115   5.487   6.766
 5300TIP3    H137459   2.139   5.559   6.708
 5300TIP3    H237460   2.164   5.503   6.847
 5301TIP3   OH237461   1.375   5.174   8.556
 5301TIP3    H137462   1.469   5.184   8.571
 5301TIP3    H237463   1.334   5.229   8.622
 5302TIP3   OH237464   0.476   0.481   6.898
 5302TIP3    H137465   0.389   0.520   6.904
 5302TIP3    H237466   0.518   0.528   6.826
 5303TIP3   OH237467   4.443   4.124   0.167
 5303TIP3    H137468   4.371   4.138   0.106
 5303TIP3    H237469   4.466   4.032   0.156
 5304TIP3   OH237470   3.340   0.314   7.919
 5304TIP3    H137471   3.327   0.278   8.007
 5304TIP3    H237472   3.431   0.293   7.898
 5305TIP3   OH237473   3.103   6.362   8.103
 5305TIP3    H137474   3.081   6.305   8.177
 5305TIP3    H237475   3.043   6.436   8.111
 5306TIP3   OH237476   6.064   3.385   2.080
 5306TIP3    H137477   5.983   3.335   2.074
 5306TIP3    H237478   6.037   3.476   2.066
 5307TIP3   OH237479   1.726   5.858   0.582
 5307TIP3    H137480   1.745   5.801   0.656
 5307TIP3    H237481   1.640   5.896   0.603
 5308TIP3   OH237482   1.593   3.359   2.549
 5308TIP3    H137483   1.514   3.404   2.580
 5308TIP3    H237484   1.639   3.425   2.497
 5309TIP3   OH237485   4.588   1.779   8.801
 5309TIP3    H137486   4.601   1.825   8.884
 5309TIP3    H237487   4.649   1.821   8.741
 5310TIP3   OH237488   2.007   0.980   1.029
 5310TIP3    H137489   2.065   0.972   0.953
 5310TIP3    H237490   2.044   0.919   1.093
 5311TIP3   OH237491   5.676   3.948   8.444
 5311TIP3    H137492   5.650   4.031   8.402
 5311TIP3    H237493   5.761   3.967   8.483
 5312TIP3   OH237494   5.059   0.768   1.677
 5312TIP3    H137495   5.071   0.683   1.636
 5312TIP3    H237496   5.031   0.825   1.605
 5313TIP3   OH237497   1.505   0.627   7.223
 5313TIP3    H137498   1.536   0.549   7.268
 5313TIP3    H237499   1.563   0.636   7.147
 5314TIP3   OH237500   3.579   4.399   0.567
 5314TIP3    H137501   3.504   4.394   0.625
 5314TIP3    H237502   3.546   4.373   0.481
 5315TIP3   OH237503   5.278   5.675   6.501
 5315TIP3    H137504   5.240   5.646   6.419
 5315TIP3    H237505   5.319   5.596   6.538
 5316TIP3   OH237506   1.959   1.525   7.399
 5316TIP3    H137507   2.013   1.516   7.321
 5316TIP3    H237508   1.972   1.616   7.427
 5317TIP3   OH237509   1.407   5.654   7.227
 5317TIP3    H137510   1.359   5.737   7.227
 5317TIP3    H237511   1.435   5.642   7.136
 5318TIP3   OH237512   3.074   3.852   6.429
 5318TIP3    H137513   3.155   3.894   6.456
 5318TIP3    H237514   3.092   3.758   6.431
 5319TIP3   OH237515   3.798   3.409   1.089
 5319TIP3    H137516   3.880   3.362   1.103
 5319TIP3    H237517   3.800   3.480   1.153
 5320TIP3   OH237518   4.483   4.285   1.086
 5320TIP3    H137519   4.407   4.229   1.100
 5320TIP3    H237520   4.450   4.357   1.032
 5321TIP3   OH237521   2.241   0.647   0.224
 5321TIP3    H137522   2.157   0.638   0.179
 5321TIP3    H237523   2.294   0.574   0.193
 5322TIP3   OH237524   3.153   2.332   8.819
 5322TIP3    H137525   3.063   2.314   8.844
 5322TIP3    H237526   3.206   2.298   8.891
 5323TIP3   OH237527   0.456   1.877   1.775
 5323TIP3    H137528   0.516   1.871   1.849
 5323TIP3    H237529   0.392   1.944   1.801
 5324TIP3   OH237530   0.499   5.066   8.568
 5324TIP3    H137531   0.546   5.136   8.613
 5324TIP3    H237532   0.408   5.095   8.568
 5325TIP3   OH237533   3.051   1.828   1.408
 5325TIP3    H137534   3.110   1.866   1.344
 5325TIP3    H237535   3.059   1.733   1.395
 5326TIP3   OH237536   1.927   6.095   0.656
 5326TIP3    H137537   2.005   6.097   0.711
 5326TIP3    H237538   1.960   6.094   0.566
 5327TIP3   OH237539   1.397   4.721   1.001
 5327TIP3    H137540   1.324   4.664   1.026
 5327TIP3    H237541   1.475   4.673   1.030
 5328TIP3   OH237542   1.146   3.083   8.298
 5328TIP3    H137543   1.112   3.150   8.239
 5328TIP3    H237544   1.241   3.099   8.299
 5329TIP3   OH237545   1.990   0.394   0.161
 5329TIP3    H137546   1.942   0.343   0.096
 5329TIP3    H237547   2.079   0.361   0.155
 5330TIP3   OH237548   5.705   3.694   0.407
 5330TIP3    H137549   5.649   3.719   0.480
 5330TIP3    H237550   5.674   3.747   0.333
 5331TIP3   OH237551   0.520   5.465   8.477
 5331TIP3    H137552   0.570   5.402   8.426
 5331TIP3    H237553   0.462   5.507   8.413
 5332TIP3   OH237554   2.608   4.522   2.376
 5332TIP3    H137555   2.552   4.451   2.345
 5332TIP3    H237556   2.577   4.599   2.329
 5333TIP3   OH237557   0.019   3.175   8.681
 5333TIP3    H137558   0.073   3.144   8.609
 5333TIP3    H237559   0.034   3.270   8.684
 5334TIP3   OH237560   3.952   3.209   7.850
 5334TIP3    H137561   3.910   3.275   7.905
 5334TIP3    H237562   3.950   3.129   7.902
 5335TIP3   OH237563   3.873   4.821   6.705
 5335TIP3    H137564   3.942   4.817   6.638
 5335TIP3    H237565   3.810   4.885   6.672
 5336TIP3   OH237566   3.739   5.369   8.332
 5336TIP3    H137567   3.791   5.390   8.254
 5336TIP3    H237568   3.652   5.402   8.312
 5337TIP3   OH237569   0.705   3.074   8.404
 5337TIP3    H137570   0.764   3.101   8.474
 5337TIP3    H237571   0.754   3.090   8.324
 5338TIP3   OH237572   3.946   4.309   7.344
 5338TIP3    H137573   4.008   4.262   7.288
 5338TIP3    H237574   3.870   4.252   7.349
 5339TIP3   OH237575   3.341   6.391   0.462
 5339TIP3    H137576   3.266   6.451   0.460
 5339TIP3    H237577   3.335   6.343   0.379
 5340TIP3   OH237578   5.001   0.505   8.009
 5340TIP3    H137579   4.969   0.419   8.036
 5340TIP3    H237580   4.952   0.525   7.929
 5341TIP3   OH237581   1.878   4.207   0.766
 5341TIP3    H137582   1.922   4.123   0.776
 5341TIP3    H237583   1.860   4.213   0.672
 5342TIP3   OH237584   0.005   5.206   0.274
 5342TIP3    H137585   0.055   5.153   0.336
 5342TIP3    H237586   0.067   5.227   0.204
 5343TIP3   OH237587   3.741   1.523   0.148
 5343TIP3    H137588   3.767   1.566   0.230
 5343TIP3    H237589   3.707   1.438   0.176
 5344TIP3   OH237590   2.782   3.723   0.802
 5344TIP3    H137591   2.855   3.784   0.789
 5344TIP3    H237592   2.754   3.739   0.892
 5345TIP3   OH237593   4.002   1.992   1.910
 5345TIP3    H137594   3.929   2.015   1.852
 5345TIP3    H237595   3.963   1.934   1.975
 5346TIP3   OH237596   6.439   3.238   0.713
 5346TIP3    H137597   6.391   3.291   0.649
 5346TIP3    H237598   6.506   3.194   0.661
 5347TIP3   OH237599   2.725   2.112   7.058
 5347TIP3    H137600   2.804   2.064   7.035
 5347TIP3    H237601   2.744   2.152   7.142
 5348TIP3   OH237602   2.055   0.555   0.596
 5348TIP3    H137603   2.061   0.488   0.528
 5348TIP3    H237604   2.007   0.513   0.667
 5349TIP3   OH237605   0.250   6.242   0.896
 5349TIP3    H137606   0.179   6.234   0.959
 5349TIP3    H237607   0.297   6.159   0.902
 5350TIP3   OH237608   6.027   4.364   6.175
 5350TIP3    H137609   5.940   4.325   6.176
 5350TIP3    H237610   6.087   4.289   6.172
 5351TIP3   OH237611   4.893   1.405   6.034
 5351TIP3    H137612   4.829   1.407   5.963
 5351TIP3    H237613   4.857   1.464   6.101
 5352TIP3   OH237614   1.664   5.421   0.049
 5352TIP3    H137615   1.655   5.471  -0.033
 5352TIP3    H237616   1.754   5.390   0.048
 5353TIP3   OH237617   4.406   6.373   7.232
 5353TIP3    H137618   4.467   6.351   7.302
 5353TIP3    H237619   4.423   6.307   7.164
 5354TIP3   OH237620   2.486   5.369   7.463
 5354TIP3    H137621   2.444   5.454   7.471
 5354TIP3    H237622   2.441   5.313   7.526
 5355TIP3   OH237623   0.458   3.354   0.428
 5355TIP3    H137624   0.490   3.275   0.471
 5355TIP3    H237625   0.537   3.407   0.414
 5356TIP3   OH237626   1.905   1.002   6.093
 5356TIP3    H137627   1.838   1.058   6.132
 5356TIP3    H237628   1.858   0.923   6.067
 5357TIP3   OH237629   5.442   1.578   7.023
 5357TIP3    H137630   5.459   1.484   7.032
 5357TIP3    H237631   5.509   1.609   6.961
 5358TIP3   OH237632   6.760   1.051   7.409
 5358TIP3    H137633   6.783   1.009   7.326
 5358TIP3    H237634   6.843   1.060   7.455
 5359TIP3   OH237635   1.828   3.942   1.290
 5359TIP3    H137636   1.917   3.964   1.265
 5359TIP3    H237637   1.773   3.992   1.230
 5360TIP3   OH237638   1.924   6.103   0.980
 5360TIP3    H137639   2.015   6.111   1.010
 5360TIP3    H237640   1.899   6.193   0.958
 5361TIP3   OH237641   2.155   5.656   0.006
 5361TIP3    H137642   2.233   5.641   0.060
 5361TIP3    H237643   2.162   5.747  -0.021
 5362TIP3   OH237644   0.938   2.574   1.456
 5362TIP3    H137645   0.882   2.597   1.382
 5362TIP3    H237646   0.979   2.657   1.482
 5363TIP3   OH237647   3.159   1.290   0.433
 5363TIP3    H137648   3.074   1.284   0.388
 5363TIP3    H237649   3.138   1.328   0.518
 5364TIP3   OH237650   6.606   4.361   0.226
 5364TIP3    H137651   6.538   4.428   0.226
 5364TIP3    H237652   6.659   4.379   0.304
 5365TIP3   OH237653   3.419   3.287   6.809
 5365TIP3    H137654   3.388   3.198   6.792
 5365TIP3    H237655   3.503   3.292   6.763
 5366TIP3   OH237656   0.158   1.441   7.922
 5366TIP3    H137657   0.102   1.504   7.968
 5366TIP3    H237658   0.244   1.484   7.918
 5367TIP3   OH237659   4.676   2.543   0.360
 5367TIP3    H137660   4.769   2.541   0.383
 5367TIP3    H237661   4.631   2.543   0.445
 5368TIP3   OH237662   2.112   1.850   8.111
 5368TIP3    H137663   2.090   1.880   8.199
 5368TIP3    H237664   2.106   1.755   8.116
 5369TIP3   OH237665   3.643   6.147   8.544
 5369TIP3    H137666   3.738   6.145   8.558
 5369TIP3    H237667   3.631   6.213   8.476
 5370TIP3   OH237668   1.970   2.648   0.532
 5370TIP3    H137669   1.998   2.738   0.545
 5370TIP3    H237670   1.896   2.637   0.592
 5371TIP3   OH237671   6.198   1.640   2.150
 5371TIP3    H137672   6.163   1.728   2.132
 5371TIP3    H237673   6.161   1.616   2.234
 5372TIP3   OH237674   5.490   2.535   1.080
 5372TIP3    H137675   5.470   2.587   1.158
 5372TIP3    H237676   5.422   2.468   1.078
 5373TIP3   OH237677   1.814   0.728   1.465
 5373TIP3    H137678   1.826   0.727   1.370
 5373TIP3    H237679   1.719   0.729   1.477
 5374TIP3   OH237680   0.332   0.794   1.132
 5374TIP3    H137681   0.382   0.871   1.161
 5374TIP3    H237682   0.241   0.817   1.150
 5375TIP3   OH237683   0.781   3.407   1.620
 5375TIP3    H137684   0.737   3.326   1.646
 5375TIP3    H237685   0.721   3.449   1.559
 5376TIP3   OH237686   6.254   1.060   8.148
 5376TIP3    H137687   6.201   1.139   8.148
 5376TIP3    H237688   6.341   1.088   8.179
 5377TIP3   OH237689   2.106   3.840   0.576
 5377TIP3    H137690   2.017   3.814   0.600
 5377TIP3    H237691   2.118   3.926   0.616
 5378TIP3   OH237692   5.006   1.055   0.021
 5378TIP3    H137693   4.953   1.129   0.050
 5378TIP3    H237694   5.041   1.018   0.102
 5379TIP3   OH237695   4.510   1.798   1.336
 5379TIP3    H137696   4.537   1.829   1.250
 5379TIP3    H237697   4.486   1.707   1.322
 5380TIP3   OH237698   4.563   6.750   8.653
 5380TIP3    H137699   4.545   6.844   8.659
 5380TIP3    H237700   4.517   6.713   8.729
 5381TIP3   OH237701   5.669   3.052   0.575
 5381TIP3    H137702   5.638   2.971   0.616
 5381TIP3    H237703   5.709   3.023   0.493
 5382TIP3   OH237704   2.571   4.737   2.194
 5382TIP3    H137705   2.483   4.708   2.219
 5382TIP3    H237706   2.560   4.775   2.106
 5383TIP3   OH237707   3.649   1.560   6.936
 5383TIP3    H137708   3.568   1.561   6.988
 5383TIP3    H237709   3.624   1.600   6.852
 5384TIP3   OH237710   1.953   3.214   0.347
 5384TIP3    H137711   1.861   3.230   0.368
 5384TIP3    H237712   1.952   3.135   0.293
 5385TIP3   OH237713   2.478   5.665   8.104
 5385TIP3    H137714   2.477   5.666   8.009
 5385TIP3    H237715   2.434   5.746   8.129
 5386TIP3   OH237716   4.949   1.973   7.478
 5386TIP3    H137717   4.872   1.925   7.448
 5386TIP3    H237718   5.023   1.913   7.462
 5387TIP3   OH237719   6.564   2.933   6.477
 5387TIP3    H137720   6.518   3.005   6.520
 5387TIP3    H237721   6.631   2.975   6.423
 5388TIP3   OH237722   1.687   4.055   7.021
 5388TIP3    H137723   1.594   4.079   7.022
 5388TIP3    H237724   1.714   4.070   6.930
 5389TIP3   OH237725   4.511   0.761   7.028
 5389TIP3    H137726   4.516   0.780   7.122
 5389TIP3    H237727   4.495   0.667   7.023
 5390TIP3   OH237728   5.711   4.284   7.244
 5390TIP3    H137729   5.757   4.351   7.194
 5390TIP3    H237730   5.781   4.227   7.278
 5391TIP3   OH237731   1.002   0.926   0.942
 5391TIP3    H137732   0.926   0.890   0.988
 5391TIP3    H237733   0.970   0.945   0.854
 5392TIP3   OH237734   4.830   5.171   0.308
 5392TIP3    H137735   4.886   5.241   0.275
 5392TIP3    H237736   4.886   5.123   0.369
 5393TIP3   OH237737   4.299   0.681   7.784
 5393TIP3    H137738   4.216   0.713   7.749
 5393TIP3    H237739   4.326   0.612   7.722
 5394TIP3   OH237740   4.562   3.114   0.057
 5394TIP3    H137741   4.647   3.124   0.015
 5394TIP3    H237742   4.501   3.097  -0.015
 5395TIP3   OH237743   0.542   4.048   8.472
 5395TIP3    H137744   0.609   4.011   8.415
 5395TIP3    H237745   0.591   4.102   8.535
 5396TIP3   OH237746   3.807   4.407   8.687
 5396TIP3    H137747   3.839   4.327   8.646
 5396TIP3    H237748   3.720   4.421   8.649
 5397TIP3   OH237749   4.799   5.776   0.249
 5397TIP3    H137750   4.743   5.813   0.318
 5397TIP3    H237751   4.857   5.715   0.295
 5398TIP3   OH237752   0.790   1.995   8.481
 5398TIP3    H137753   0.862   2.058   8.481
 5398TIP3    H237754   0.819   1.926   8.540
 5399TIP3   OH237755   0.666   1.550   8.201
 5399TIP3    H137756   0.703   1.483   8.258
 5399TIP3    H237757   0.717   1.629   8.221
 5400TIP3   OH237758   6.323   0.202   7.289
 5400TIP3    H137759   6.398   0.244   7.246
 5400TIP3    H237760   6.357   0.173   7.374
 5401TIP3   OH237761   1.719   1.669   1.229
 5401TIP3    H137762   1.796   1.709   1.268
 5401TIP3    H237763   1.752   1.588   1.189
 5402TIP3   OH237764   2.852   3.274   0.444
 5402TIP3    H137765   2.860   3.320   0.528
 5402TIP3    H237766   2.893   3.188   0.459
 5403TIP3   OH237767   3.872   5.894   2.408
 5403TIP3    H137768   3.850   5.835   2.336
 5403TIP3    H237769   3.906   5.972   2.364
 5404TIP3   OH237770   2.991   2.619   0.652
 5404TIP3    H137771   2.936   2.606   0.575
 5404TIP3    H237772   3.043   2.697   0.631
 5405TIP3   OH237773   0.021   4.850   8.609
 5405TIP3    H137774  -0.017   4.907   8.675
 5405TIP3    H237775   0.019   4.762   8.648
 5406TIP3   OH237776   3.274   3.582   8.523
 5406TIP3    H137777   3.195   3.580   8.469
 5406TIP3    H237778   3.345   3.595   8.460
 5407TIP3   OH237779   4.703   1.469   1.088
 5407TIP3    H137780   4.739   1.471   0.999
 5407TIP3    H237781   4.609   1.472   1.076
 5408TIP3   OH237782   4.219   6.080   0.854
 5408TIP3    H137783   4.147   6.110   0.799
 5408TIP3    H237784   4.181   6.011   0.908
 5409TIP3   OH237785   4.120   1.819   7.529
 5409TIP3    H137786   4.033   1.824   7.568
 5409TIP3    H237787   4.104   1.788   7.440
 5410TIP3   OH237788   5.974   1.338   1.146
 5410TIP3    H137789   5.914   1.369   1.077
 5410TIP3    H237790   6.039   1.407   1.154
 5411TIP3   OH237791   2.624   2.845   8.131
 5411TIP3    H137792   2.544   2.796   8.112
 5411TIP3    H237793   2.593   2.932   8.156
 5412TIP3   OH237794   1.655   5.032   6.982
 5412TIP3    H137795   1.712   4.959   6.958
 5412TIP3    H237796   1.715   5.103   7.006
 5413TIP3   OH237797   3.912   4.216   0.916
 5413TIP3    H137798   3.920   4.258   0.831
 5413TIP3    H237799   3.956   4.275   0.977
 5414TIP3   OH237800   0.436   6.587   7.393
 5414TIP3    H137801   0.482   6.671   7.392
 5414TIP3    H237802   0.485   6.532   7.332
 5415TIP3   OH237803   1.083   3.102   6.157
 5415TIP3    H137804   1.114   3.186   6.191
 5415TIP3    H237805   1.139   3.086   6.081
 5416TIP3   OH237806   6.300   5.927   8.203
 5416TIP3    H137807   6.331   5.886   8.122
 5416TIP3    H237808   6.205   5.913   8.202
 5417TIP3   OH237809   4.962   2.628   6.939
 5417TIP3    H137810   4.890   2.633   7.002
 5417TIP3    H237811   4.933   2.564   6.874
 5418TIP3   OH237812   3.242   2.695   5.904
 5418TIP3    H137813   3.250   2.782   5.944
 5418TIP3    H237814   3.276   2.635   5.970
 5419TIP3   OH237815   2.863   6.455   7.828
 5419TIP3    H137816   2.800   6.474   7.759
 5419TIP3    H237817   2.850   6.526   7.892
 5420TIP3   OH237818   3.872   5.938   8.777
 5420TIP3    H137819   3.873   5.856   8.728
 5420TIP3    H237820   3.902   5.914   8.865
 5421TIP3   OH237821   0.216   3.693   1.817
 5421TIP3    H137822   0.156   3.623   1.791
 5421TIP3    H237823   0.283   3.650   1.869
 5422TIP3   OH237824   5.161   4.377   7.397
 5422TIP3    H137825   5.106   4.312   7.440
 5422TIP3    H237826   5.218   4.326   7.340
 5423TIP3   OH237827   1.584   1.471   6.515
 5423TIP3    H137828   1.652   1.466   6.582
 5423TIP3    H237829   1.589   1.388   6.468
 5424TIP3   OH237830   2.022   3.373   7.430
 5424TIP3    H137831   1.996   3.439   7.365
 5424TIP3    H237832   1.961   3.301   7.416
 5425TIP3   OH237833   2.360   1.293   7.362
 5425TIP3    H137834   2.362   1.305   7.457
 5425TIP3    H237835   2.438   1.338   7.331
 5426TIP3   OH237836   5.713   3.357   7.273
 5426TIP3    H137837   5.733   3.263   7.273
 5426TIP3    H237838   5.621   3.363   7.247
 5427TIP3   OH237839   5.506   5.706   1.689
 5427TIP3    H137840   5.477   5.623   1.653
 5427TIP3    H237841   5.600   5.709   1.671
 5428TIP3   OH237842   1.218   0.607   6.034
 5428TIP3    H137843   1.132   0.567   6.050
 5428TIP3    H237844   1.279   0.551   6.083
 5429TIP3   OH237845   0.474   2.695   7.124
 5429TIP3    H137846   0.402   2.712   7.185
 5429TIP3    H237847   0.480   2.774   7.071
 5430TIP3   OH237848   5.224   5.111   2.616
 5430TIP3    H137849   5.294   5.046   2.621
 5430TIP3    H237850   5.246   5.163   2.539
 5431TIP3   OH237851   5.691   1.415   8.431
 5431TIP3    H137852   5.674   1.412   8.525
 5431TIP3    H237853   5.774   1.368   8.421
 5432TIP3   OH237854   6.743   2.190   8.601
 5432TIP3    H137855   6.704   2.166   8.685
 5432TIP3    H237856   6.693   2.267   8.572
 5433TIP3   OH237857   6.428   0.194   0.085
 5433TIP3    H137858   6.347   0.214   0.131
 5433TIP3    H237859   6.481   0.147   0.149
 5434TIP3   OH237860   3.847   5.306   8.029
 5434TIP3    H137861   3.916   5.312   7.963
 5434TIP3    H237862   3.767   5.288   7.979
 5435TIP3   OH237863   0.689   1.514   6.614
 5435TIP3    H137864   0.594   1.503   6.622
 5435TIP3    H237865   0.702   1.542   6.524
 5436TIP3   OH237866   6.127   3.479   7.665
 5436TIP3    H137867   6.069   3.462   7.592
 5436TIP3    H237868   6.142   3.393   7.705
 5437TIP3   OH237869   5.916   0.629   7.637
 5437TIP3    H137870   6.007   0.608   7.618
 5437TIP3    H237871   5.868   0.548   7.621
 5438TIP3   OH237872   3.520   2.579   7.269
 5438TIP3    H137873   3.591   2.519   7.289
 5438TIP3    H237874   3.545   2.618   7.185
 5439TIP3   OH237875   2.703   5.966   7.245
 5439TIP3    H137876   2.735   6.035   7.186
 5439TIP3    H237877   2.610   5.984   7.254
 5440TIP3   OH237878   6.493   1.643   1.277
 5440TIP3    H137879   6.546   1.602   1.208
 5440TIP3    H237880   6.456   1.569   1.326
 5441TIP3   OH237881   5.357   0.197   7.678
 5441TIP3    H137882   5.311   0.138   7.737
 5441TIP3    H237883   5.333   0.285   7.708
 5442TIP3   OH237884   3.211   5.933   2.286
 5442TIP3    H137885   3.263   5.904   2.211
 5442TIP3    H237886   3.273   5.934   2.359
 5443TIP3   OH237887   5.739   0.690   1.570
 5443TIP3    H137888   5.663   0.725   1.617
 5443TIP3    H237889   5.728   0.595   1.575
 5444TIP3   OH237890   6.117   2.885   0.291
 5444TIP3    H137891   6.109   2.824   0.364
 5444TIP3    H237892   6.141   2.831   0.217
 5445TIP3   OH237893   6.226   0.755   1.948
 5445TIP3    H137894   6.219   0.718   1.860
 5445TIP3    H237895   6.148   0.725   1.993
 5446TIP3   OH237896   2.930   2.473   7.221
 5446TIP3    H137897   2.960   2.545   7.277
 5446TIP3    H237898   2.858   2.433   7.270
 5447TIP3   OH237899   5.664   0.704   7.098
 5447TIP3    H137900   5.609   0.671   7.027
 5447TIP3    H237901   5.700   0.786   7.064
 5448TIP3   OH237902   4.983   5.919   1.189
 5448TIP3    H137903   5.073   5.893   1.173
 5448TIP3    H237904   4.979   6.011   1.161
 5449TIP3   OH237905   3.632   4.950   6.957
 5449TIP3    H137906   3.687   5.005   7.012
 5449TIP3    H237907   3.681   4.942   6.875
 5450TIP3   OH237908   0.780   0.159   0.145
 5450TIP3    H137909   0.696   0.138   0.186
 5450TIP3    H237910   0.758   0.216   0.071
 5451TIP3   OH237911   4.668   3.364   1.405
 5451TIP3    H137912   4.592   3.393   1.454
 5451TIP3    H237913   4.742   3.376   1.465
 5452TIP3   OH237914   6.674   6.179   6.512
 5452TIP3    H137915   6.716   6.135   6.586
 5452TIP3    H237916   6.747   6.215   6.461
 5453TIP3   OH237917   4.124   3.923   1.076
 5453TIP3    H137918   4.036   3.959   1.075
 5453TIP3    H237919   4.112   3.831   1.101
 5454TIP3   OH237920   0.171   5.839   0.380
 5454TIP3    H137921   0.183   5.745   0.393
 5454TIP3    H237922   0.076   5.850   0.370
 5455TIP3   OH237923   4.642   3.285   0.250
 5455TIP3    H137924   4.600   3.219   0.195
 5455TIP3    H237925   4.581   3.359   0.251
 5456TIP3   OH237926   1.341   3.378   6.298
 5456TIP3    H137927   1.327   3.443   6.229
 5456TIP3    H237928   1.420   3.330   6.270
 5457TIP3   OH237929   1.145   3.575   1.431
 5457TIP3    H137930   1.104   3.586   1.346
 5457TIP3    H237931   1.113   3.490   1.462
 5458TIP3   OH237932   1.716   3.785   8.627
 5458TIP3    H137933   1.732   3.879   8.623
 5458TIP3    H237934   1.729   3.754   8.538
 5459TIP3   OH237935   6.523   3.166   8.051
 5459TIP3    H137936   6.606   3.183   8.096
 5459TIP3    H237937   6.464   3.138   8.121
 5460TIP3   OH237938   6.147   6.411   1.629
 5460TIP3    H137939   6.144   6.458   1.545
 5460TIP3    H237940   6.187   6.474   1.689
 5461TIP3   OH237941   3.996   0.915   0.136
 5461TIP3    H137942   4.089   0.914   0.110
 5461TIP3    H237943   3.996   0.955   0.223
 5462TIP3   OH237944   6.055   6.407   8.144
 5462TIP3    H137945   6.115   6.480   8.160
 5462TIP3    H237946   6.111   6.336   8.113
 5463TIP3   OH237947   0.183   3.320   1.126
 5463TIP3    H137948   0.101   3.367   1.110
 5463TIP3    H237949   0.156   3.236   1.162
 5464TIP3   OH237950   1.166   0.602   8.047
 5464TIP3    H137951   1.145   0.560   7.963
 5464TIP3    H237952   1.106   0.560   8.110
 5465TIP3   OH237953   2.477   0.072   0.846
 5465TIP3    H137954   2.503  -0.010   0.889
 5465TIP3    H237955   2.549   0.092   0.787
 5466TIP3   OH237956   6.057   2.084   1.631
 5466TIP3    H137957   6.085   2.006   1.679
 5466TIP3    H237958   6.016   2.140   1.697
 5467TIP3   OH237959   6.532   5.603   8.221
 5467TIP3    H137960   6.477   5.550   8.164
 5467TIP3    H237961   6.515   5.570   8.309
 5468TIP3   OH237962   1.901   0.124   0.768
 5468TIP3    H137963   1.958   0.096   0.840
 5468TIP3    H237964   1.921   0.065   0.696
 5469TIP3   OH237965   5.341   4.848   7.654
 5469TIP3    H137966   5.429   4.817   7.632
 5469TIP3    H237967   5.347   4.943   7.649
 5470TIP3   OH237968   2.589   6.307   1.212
 5470TIP3    H137969   2.603   6.213   1.210
 5470TIP3    H237970   2.505   6.320   1.168
 5471TIP3   OH237971   0.408   6.420   0.618
 5471TIP3    H137972   0.375   6.473   0.546
 5471TIP3    H237973   0.337   6.358   0.637
 5472TIP3   OH237974   2.576   1.114   0.485
 5472TIP3    H137975   2.527   1.042   0.523
 5472TIP3    H237976   2.578   1.095   0.391
 5473TIP3   OH237977   2.081   1.654   1.402
 5473TIP3    H137978   2.169   1.646   1.438
 5473TIP3    H237979   2.065   1.572   1.356
 5474TIP3   OH237980   3.985   0.229   7.776
 5474TIP3    H137981   4.001   0.145   7.732
 5474TIP3    H237982   4.035   0.223   7.858
 5475TIP3   OH237983   0.473   5.007   7.345
 5475TIP3    H137984   0.468   5.102   7.350
 5475TIP3    H237985   0.460   4.988   7.252
 5476TIP3   OH237986   4.932   4.053   8.143
 5476TIP3    H137987   4.905   3.989   8.210
 5476TIP3    H237988   4.940   4.001   8.063
 5477TIP3   OH237989   2.619   0.512   7.031
 5477TIP3    H137990   2.622   0.601   7.065
 5477TIP3    H237991   2.575   0.461   7.100
 5478TIP3   OH237992   2.175   5.738   7.839
 5478TIP3    H137993   2.088   5.773   7.855
 5478TIP3    H237994   2.172   5.649   7.876
 5479TIP3   OH237995   4.161   6.106   8.147
 5479TIP3    H137996   4.199   6.026   8.183
 5479TIP3    H237997   4.133   6.082   8.059
 5480TIP3   OH237998   3.416   6.104   0.786
 5480TIP3    H137999   3.408   6.199   0.777
 5480TIP3    H238000   3.503   6.092   0.825
 5481TIP3   OH238001   4.445   5.055   0.864
 5481TIP3    H138002   4.364   5.104   0.875
 5481TIP3    H238003   4.427   4.993   0.793
 5482TIP3   OH238004   6.109   6.288   1.245
 5482TIP3    H138005   6.145   6.205   1.278
 5482TIP3    H238006   6.015   6.275   1.244
 5483TIP3   OH238007   3.881   6.697   1.371
 5483TIP3    H138008   3.824   6.627   1.339
 5483TIP3    H238009   3.969   6.670   1.346
 5484TIP3   OH238010   6.559   2.611   8.415
 5484TIP3    H138011   6.613   2.649   8.346
 5484TIP3    H238012   6.575   2.517   8.410
 5485TIP3   OH238013   1.910   5.627   2.563
 5485TIP3    H138014   1.972   5.668   2.502
 5485TIP3    H238015   1.824   5.650   2.528
 5486TIP3   OH238016   4.764   5.382   0.837
 5486TIP3    H138017   4.726   5.445   0.898
 5486TIP3    H238018   4.690   5.326   0.812
 5487TIP3   OH238019   4.486   5.913   8.134
 5487TIP3    H138020   4.554   5.859   8.174
 5487TIP3    H238021   4.403   5.874   8.164
 5488TIP3   OH238022   3.181   4.841   1.244
 5488TIP3    H138023   3.141   4.903   1.182
 5488TIP3    H238024   3.198   4.893   1.322
 5489TIP3   OH238025   5.125   3.735   7.099
 5489TIP3    H138026   5.053   3.774   7.049
 5489TIP3    H238027   5.117   3.641   7.083
 5490TIP3   OH238028   0.791   0.519   6.184
 5490TIP3    H138029   0.824   0.582   6.120
 5490TIP3    H238030   0.817   0.556   6.269
 5491TIP3   OH238031   2.917   3.263   0.192
 5491TIP3    H138032   2.983   3.332   0.193
 5491TIP3    H238033   2.877   3.267   0.278
 5492TIP3   OH238034   4.712   3.466   0.504
 5492TIP3    H138035   4.702   3.370   0.506
 5492TIP3    H238036   4.623   3.499   0.516
 5493TIP3   OH238037   0.584   2.356   8.695
 5493TIP3    H138038   0.511   2.365   8.635
 5493TIP3    H238039   0.557   2.288   8.757
 5494TIP3   OH238040   0.168   4.760   7.783
 5494TIP3    H138041   0.117   4.750   7.702
 5494TIP3    H238042   0.253   4.793   7.753
 5495TIP3   OH238043   6.744   6.670   8.122
 5495TIP3    H138044   6.796   6.635   8.194
 5495TIP3    H238045   6.653   6.666   8.153
 5496TIP3   OH238046   5.530   4.578   1.227
 5496TIP3    H138047   5.595   4.547   1.290
 5496TIP3    H238048   5.580   4.627   1.162
 5497TIP3   OH238049   1.133   2.274   6.924
 5497TIP3    H138050   1.100   2.354   6.884
 5497TIP3    H238051   1.076   2.205   6.891
 5498TIP3   OH238052   5.192   4.416   1.418
 5498TIP3    H138053   5.104   4.379   1.420
 5498TIP3    H238054   5.209   4.446   1.507
 5499TIP3   OH238055   3.958   1.528   7.386
 5499TIP3    H138056   3.915   1.497   7.306
 5499TIP3    H238057   4.002   1.609   7.359
 5500TIP3   OH238058   6.764   4.404   8.244
 5500TIP3    H138059   6.785   4.497   8.236
 5500TIP3    H238060   6.841   4.359   8.211
 5501TIP3   OH238061   4.768   2.668   7.872
 5501TIP3    H138062   4.743   2.623   7.791
 5501TIP3    H238063   4.859   2.694   7.857
 5502TIP3   OH238064   3.836   6.290   1.613
 5502TIP3    H138065   3.852   6.291   1.707
 5502TIP3    H238066   3.916   6.324   1.574
 5503TIP3   OH238067   0.590   6.344   1.775
 5503TIP3    H138068   0.578   6.280   1.704
 5503TIP3    H238069   0.658   6.305   1.830
 5504TIP3   OH238070   2.531   4.656   8.453
 5504TIP3    H138071   2.470   4.598   8.499
 5504TIP3    H238072   2.521   4.740   8.498
 5505TIP3   OH238073   1.396   3.581   0.093
 5505TIP3    H138074   1.350   3.610   0.172
 5505TIP3    H238075   1.487   3.608   0.107
 5506TIP3   OH238076   4.967   0.521   8.351
 5506TIP3    H138077   5.016   0.593   8.392
 5506TIP3    H238078   4.981   0.533   8.257
 5507TIP3   OH238079   3.204   1.848   8.570
 5507TIP3    H138080   3.121   1.806   8.588
 5507TIP3    H238081   3.212   1.846   8.474
 5508TIP3   OH238082   2.542   4.874   8.255
 5508TIP3    H138083   2.531   4.794   8.305
 5508TIP3    H238084   2.594   4.931   8.312
 5509TIP3   OH238085   2.764   2.583   1.207
 5509TIP3    H138086   2.831   2.591   1.139
 5509TIP3    H238087   2.791   2.508   1.260
 5510TIP3   OH238088   5.777   0.467   6.714
 5510TIP3    H138089   5.809   0.486   6.626
 5510TIP3    H238090   5.853   0.432   6.760
 5511TIP3   OH238091   0.823   5.628   7.315
 5511TIP3    H138092   0.876   5.692   7.267
 5511TIP3    H238093   0.748   5.678   7.347
 5512TIP3   OH238094   2.310   4.952   7.076
 5512TIP3    H138095   2.406   4.950   7.073
 5512TIP3    H238096   2.288   5.044   7.080
 5513TIP3   OH238097   4.454   2.314   8.402
 5513TIP3    H138098   4.463   2.270   8.487
 5513TIP3    H238099   4.535   2.294   8.356
 5514TIP3   OH238100   4.865   4.756   2.000
 5514TIP3    H138101   4.773   4.776   1.986
 5514TIP3    H238102   4.899   4.831   2.048
 5515TIP3   OH238103   2.621   2.780   2.293
 5515TIP3    H138104   2.583   2.784   2.205
 5515TIP3    H238105   2.589   2.859   2.336
 5516TIP3   OH238106   3.500   1.194   0.884
 5516TIP3    H138107   3.534   1.199   0.973
 5516TIP3    H238108   3.541   1.267   0.838
 5517TIP3   OH238109   0.690   4.394   7.618
 5517TIP3    H138110   0.737   4.386   7.701
 5517TIP3    H238111   0.651   4.481   7.620
 5518TIP3   OH238112   2.689   2.375   1.581
 5518TIP3    H138113   2.675   2.450   1.639
 5518TIP3    H238114   2.611   2.320   1.594
 5519TIP3   OH238115   0.395   5.411   8.135
 5519TIP3    H138116   0.314   5.385   8.090
 5519TIP3    H238117   0.372   5.492   8.181
 5520TIP3   OH238118   0.039   0.798   0.431
 5520TIP3    H138119   0.018   0.710   0.399
 5520TIP3    H238120  -0.046   0.836   0.454
 5521TIP3   OH238121   4.489   5.271   5.909
 5521TIP3    H138122   4.458   5.359   5.932
 5521TIP3    H238123   4.490   5.223   5.991
 5522TIP3   OH238124   1.607   5.341   1.566
 5522TIP3    H138125   1.642   5.254   1.585
 5522TIP3    H238126   1.684   5.394   1.546
 5523TIP3   OH238127   0.711   5.193   7.213
 5523TIP3    H138128   0.764   5.272   7.217
 5523TIP3    H238129   0.753   5.139   7.146
 5524TIP3   OH238130   1.446   2.266   7.867
 5524TIP3    H138131   1.415   2.177   7.884
 5524TIP3    H238132   1.486   2.261   7.781
 5525TIP3   OH238133   2.393   0.684   1.033
 5525TIP3    H138134   2.352   0.610   1.079
 5525TIP3    H238135   2.428   0.646   0.953
 5526TIP3   OH238136   4.734   1.061   6.668
 5526TIP3    H138137   4.803   0.995   6.662
 5526TIP3    H238138   4.676   1.042   6.595
 5527TIP3   OH238139   4.218   0.977   7.922
 5527TIP3    H138140   4.208   0.900   7.866
 5527TIP3    H238141   4.313   0.986   7.932
 5528TIP3   OH238142   1.428   1.912   7.717
 5528TIP3    H138143   1.505   1.871   7.678
 5528TIP3    H238144   1.357   1.851   7.698
 5529TIP3   OH238145   0.729   1.262   6.997
 5529TIP3    H138146   0.635   1.275   6.984
 5529TIP3    H238147   0.767   1.268   6.909
 5530TIP3   OH238148   0.805   1.732   1.669
 5530TIP3    H138149   0.780   1.651   1.624
 5530TIP3    H238150   0.739   1.796   1.642
 5531TIP3   OH238151   3.733   2.341   1.934
 5531TIP3    H138152   3.761   2.430   1.915
 5531TIP3    H238153   3.795   2.310   2.000
 5532TIP3   OH238154   5.417   2.120   6.309
 5532TIP3    H138155   5.380   2.095   6.393
 5532TIP3    H238156   5.441   2.037   6.267
 5533TIP3   OH238157   0.080   6.010   8.461
 5533TIP3    H138158   0.132   5.971   8.531
 5533TIP3    H238159   0.121   5.978   8.380
 5534TIP3   OH238160   5.083   4.636   6.791
 5534TIP3    H138161   5.046   4.686   6.719
 5534TIP3    H238162   5.172   4.616   6.763
 5535TIP3   OH238163   1.786   3.150   0.770
 5535TIP3    H138164   1.728   3.091   0.818
 5535TIP3    H238165   1.857   3.093   0.740
 5536TIP3   OH238166   3.051   2.184   1.266
 5536TIP3    H138167   3.097   2.247   1.211
 5536TIP3    H238168   2.959   2.194   1.240
 5537TIP3   OH238169   0.835   5.720   6.708
 5537TIP3    H138170   0.837   5.780   6.634
 5537TIP3    H238171   0.900   5.653   6.687
 5538TIP3   OH238172   1.250   1.031   0.860
 5538TIP3    H138173   1.160   1.001   0.874
 5538TIP3    H238174   1.264   1.097   0.928
 5539TIP3   OH238175   5.953   6.213   0.796
 5539TIP3    H138176   5.923   6.125   0.817
 5539TIP3    H238177   6.045   6.214   0.820
 5540TIP3   OH238178   3.505   0.720   1.133
 5540TIP3    H138179   3.547   0.734   1.048
 5540TIP3    H238180   3.423   0.770   1.128
 5541TIP3   OH238181   6.214   6.027   1.309
 5541TIP3    H138182   6.295   6.054   1.266
 5541TIP3    H238183   6.220   5.932   1.312
 5542TIP3   OH238184   3.329   4.087   0.861
 5542TIP3    H138185   3.322   4.074   0.766
 5542TIP3    H238186   3.423   4.088   0.878
 5543TIP3   OH238187   3.833   6.372   8.078
 5543TIP3    H138188   3.793   6.458   8.086
 5543TIP3    H238189   3.897   6.369   8.150
 5544TIP3   OH238190   4.378   0.191   7.394
 5544TIP3    H138191   4.370   0.110   7.445
 5544TIP3    H238192   4.453   0.176   7.338
 5545TIP3   OH238193   0.849   6.027   0.955
 5545TIP3    H138194   0.783   6.097   0.952
 5545TIP3    H238195   0.837   5.979   0.873
 5546TIP3   OH238196   6.316   3.063   0.375
 5546TIP3    H138197   6.397   3.019   0.347
 5546TIP3    H238198   6.246   3.005   0.344
 5547TIP3   OH238199   1.938   1.099   6.672
 5547TIP3    H138200   2.001   1.028   6.657
 5547TIP3    H238201   1.882   1.098   6.594
 5548TIP3   OH238202   3.963   6.372   1.098
 5548TIP3    H138203   3.887   6.322   1.127
 5548TIP3    H238204   3.962   6.364   1.003
 5549TIP3   OH238205   3.634   0.598   0.933
 5549TIP3    H138206   3.703   0.650   0.892
 5549TIP3    H238207   3.682   0.526   0.975
 5550TIP3   OH238208   1.459   2.691   0.183
 5550TIP3    H138209   1.499   2.731   0.105
 5550TIP3    H238210   1.395   2.755   0.213
 5551TIP3   OH238211   0.757   2.609   7.701
 5551TIP3    H138212   0.775   2.702   7.713
 5551TIP3    H238213   0.661   2.602   7.700
 5552TIP3   OH238214   2.109   4.555   1.672
 5552TIP3    H138215   2.024   4.510   1.671
 5552TIP3    H238216   2.100   4.624   1.738
 5553TIP3   OH238217   2.771   4.017   7.452
 5553TIP3    H138218   2.827   3.978   7.519
 5553TIP3    H238219   2.714   4.077   7.499
 5554TIP3   OH238220   5.909   5.475   8.339
 5554TIP3    H138221   5.885   5.431   8.257
 5554TIP3    H238222   5.898   5.568   8.320
 5555TIP3   OH238223   5.092   6.378   7.724
 5555TIP3    H138224   4.999   6.357   7.728
 5555TIP3    H238225   5.095   6.474   7.721
 5556TIP3   OH238226   6.247   4.670   0.514
 5556TIP3    H138227   6.259   4.578   0.490
 5556TIP3    H238228   6.153   4.685   0.504
 5557TIP3   OH238229   1.598   4.690   0.206
 5557TIP3    H138230   1.664   4.661   0.269
 5557TIP3    H238231   1.595   4.785   0.216
 5558TIP3   OH238232   0.757   4.930   8.447
 5558TIP3    H138233   0.827   4.985   8.412
 5558TIP3    H238234   0.797   4.888   8.524
 5559TIP3   OH238235   5.445   0.921   1.514
 5559TIP3    H138236   5.433   0.843   1.568
 5559TIP3    H238237   5.359   0.939   1.477
 5560TIP3   OH238238   5.483   3.703   0.075
 5560TIP3    H138239   5.547   3.661   0.017
 5560TIP3    H238240   5.472   3.641   0.147
 5561TIP3   OH238241   0.846   3.725   0.481
 5561TIP3    H138242   0.860   3.766   0.566
 5561TIP3    H238243   0.866   3.793   0.417
 5562TIP3   OH238244   6.750   2.688   0.716
 5562TIP3    H138245   6.777   2.728   0.633
 5562TIP3    H238246   6.765   2.595   0.704
 5563TIP3   OH238247   6.573   4.330   7.734
 5563TIP3    H138248   6.486   4.355   7.705
 5563TIP3    H238249   6.614   4.290   7.657
 5564TIP3   OH238250   0.438   4.908   1.605
 5564TIP3    H138251   0.394   4.855   1.671
 5564TIP3    H238252   0.468   4.845   1.539
 5565TIP3   OH238253   0.461   1.088   7.698
 5565TIP3    H138254   0.493   1.143   7.770
 5565TIP3    H238255   0.479   0.999   7.727
 5566TIP3   OH238256   5.868   4.769   2.377
 5566TIP3    H138257   5.914   4.686   2.387
 5566TIP3    H238258   5.793   4.749   2.322
 5567TIP3   OH238259   5.220   4.241   8.186
 5567TIP3    H138260   5.235   4.301   8.259
 5567TIP3    H238261   5.125   4.241   8.174
 5568TIP3   OH238262   2.583   3.791   8.109
 5568TIP3    H138263   2.552   3.846   8.181
 5568TIP3    H238264   2.508   3.785   8.050
 5569TIP3   OH238265   0.536   6.684   6.909
 5569TIP3    H138266   0.469   6.730   6.960
 5569TIP3    H238267   0.532   6.594   6.940
 5570TIP3   OH238268   4.898   0.291   8.487
 5570TIP3    H138269   4.863   0.339   8.562
 5570TIP3    H238270   4.923   0.359   8.425
 5571TIP3   OH238271   0.286   3.737   7.575
 5571TIP3    H138272   0.275   3.716   7.482
 5571TIP3    H238273   0.204   3.782   7.599
 5572TIP3   OH238274   5.856   4.281   1.586
 5572TIP3    H138275   5.932   4.223   1.584
 5572TIP3    H238276   5.872   4.344   1.516
 5573TIP3   OH238277   3.615   0.934   1.772
 5573TIP3    H138278   3.541   0.938   1.832
 5573TIP3    H238279   3.614   0.844   1.739
 5574TIP3   OH238280   4.577   2.174   7.714
 5574TIP3    H138281   4.534   2.148   7.632
 5574TIP3    H238282   4.553   2.106   7.777
 5575TIP3   OH238283   4.080   0.136   0.773
 5575TIP3    H138284   3.985   0.126   0.768
 5575TIP3    H238285   4.094   0.230   0.758
 5576TIP3   OH238286   5.953   6.130   7.408
 5576TIP3    H138287   5.985   6.208   7.362
 5576TIP3    H238288   5.880   6.162   7.461
 5577TIP3   OH238289   3.271   2.672   6.194
 5577TIP3    H138290   3.198   2.625   6.235
 5577TIP3    H238291   3.271   2.758   6.236
 5578TIP3   OH238292   6.661   5.330   1.763
 5578TIP3    H138293   6.708   5.280   1.697
 5578TIP3    H238294   6.626   5.406   1.716
 5579TIP3   OH238295   0.932   0.288   0.353
 5579TIP3    H138296   0.899   0.229   0.421
 5579TIP3    H238297   0.886   0.260   0.273
 5580TIP3   OH238298   0.647   1.695   7.535
 5580TIP3    H138299   0.565   1.721   7.493
 5580TIP3    H238300   0.678   1.774   7.579
 5581TIP3   OH238301   4.389   3.651   7.782
 5581TIP3    H138302   4.454   3.611   7.840
 5581TIP3    H238303   4.428   3.733   7.753
 5582TIP3   OH238304   5.207   2.823   0.585
 5582TIP3    H138305   5.134   2.819   0.646
 5582TIP3    H238306   5.174   2.874   0.511
 5583TIP3   OH238307   5.308   1.239   7.583
 5583TIP3    H138308   5.319   1.245   7.678
 5583TIP3    H238309   5.227   1.190   7.571
 5584TIP3   OH238310   1.257   4.938   6.387
 5584TIP3    H138311   1.195   4.913   6.318
 5584TIP3    H238312   1.290   5.023   6.359
 5585TIP3   OH238313   5.547   6.542   0.070
 5585TIP3    H138314   5.566   6.451   0.049
 5585TIP3    H238315   5.452   6.545   0.082
 5586TIP3   OH238316   2.191   3.617   1.678
 5586TIP3    H138317   2.154   3.668   1.750
 5586TIP3    H238318   2.199   3.528   1.713
 5587TIP3   OH238319   5.799   0.058   0.817
 5587TIP3    H138320   5.717   0.085   0.858
 5587TIP3    H238321   5.859   0.043   0.890
 5588TIP3   OH238322   0.884   1.850   0.257
 5588TIP3    H138323   0.859   1.907   0.330
 5588TIP3    H238324   0.974   1.824   0.277
 5589TIP3   OH238325   4.489   0.516   0.966
 5589TIP3    H138326   4.421   0.453   0.990
 5589TIP3    H238327   4.559   0.501   1.029
 5590TIP3   OH238328   1.420   4.926   8.078
 5590TIP3    H138329   1.444   5.016   8.053
 5590TIP3    H238330   1.325   4.927   8.083
 5591TIP3   OH238331   4.657   3.002   6.242
 5591TIP3    H138332   4.712   3.012   6.319
 5591TIP3    H238333   4.646   2.907   6.233
 5592TIP3   OH238334   0.128   5.468   1.433
 5592TIP3    H138335   0.106   5.503   1.520
 5592TIP3    H238336   0.164   5.543   1.386
 5593TIP3   OH238337   4.085   3.784   0.493
 5593TIP3    H138338   4.083   3.846   0.420
 5593TIP3    H238339   4.028   3.822   0.560
 5594TIP3   OH238340   1.895   5.731   7.254
 5594TIP3    H138341   1.932   5.656   7.208
 5594TIP3    H238342   1.966   5.763   7.310
 5595TIP3   OH238343   5.035   6.235   8.169
 5595TIP3    H138344   5.041   6.275   8.256
 5595TIP3    H238345   4.966   6.285   8.125
 5596TIP3   OH238346   6.078   2.141   0.121
 5596TIP3    H138347   6.018   2.090   0.067
 5596TIP3    H238348   6.165   2.108   0.099
 5597TIP3   OH238349   5.519   3.395   1.829
 5597TIP3    H138350   5.555   3.307   1.840
 5597TIP3    H238351   5.455   3.404   1.900
 5598TIP3   OH238352   5.441   3.552   7.692
 5598TIP3    H138353   5.384   3.492   7.740
 5598TIP3    H238354   5.429   3.636   7.735
 5599TIP3   OH238355   6.427   2.982   1.187
 5599TIP3    H138356   6.441   3.002   1.095
 5599TIP3    H238357   6.349   2.928   1.189
 5600TIP3   OH238358   6.033   4.616   1.566
 5600TIP3    H138359   5.990   4.614   1.480
 5600TIP3    H238360   6.126   4.619   1.546
 5601TIP3   OH238361   2.574   1.213   8.764
 5601TIP3    H138362   2.603   1.261   8.842
 5601TIP3    H238363   2.540   1.280   8.705
 5602TIP3   OH238364   3.232   5.355   1.322
 5602TIP3    H138365   3.181   5.411   1.264
 5602TIP3    H238366   3.216   5.390   1.410
 5603TIP3   OH238367   3.201   0.155   1.018
 5603TIP3    H138368   3.190   0.201   0.935
 5603TIP3    H238369   3.194   0.224   1.084
 5604TIP3   OH238370   5.512   1.921   0.171
 5604TIP3    H138371   5.587   1.969   0.206
 5604TIP3    H238372   5.543   1.831   0.162
 5605TIP3   OH238373   1.013   5.595   1.480
 5605TIP3    H138374   1.024   5.500   1.490
 5605TIP3    H238375   0.943   5.618   1.541
 5606TIP3   OH238376   4.433   2.563   8.512
 5606TIP3    H138377   4.421   2.477   8.472
 5606TIP3    H238378   4.480   2.546   8.593
 5607TIP3   OH238379   6.137   6.273   7.717
 5607TIP3    H138380   6.177   6.297   7.634
 5607TIP3    H238381   6.052   6.315   7.717
 5608TIP3   OH238382   4.303   2.134   0.727
 5608TIP3    H138383   4.227   2.165   0.678
 5608TIP3    H238384   4.378   2.157   0.672
 5609TIP3   OH238385   6.703   6.359   7.162
 5609TIP3    H138386   6.792   6.362   7.197
 5609TIP3    H238387   6.689   6.446   7.125
 5610TIP3   OH238388   6.657   4.247   7.226
 5610TIP3    H138389   6.620   4.181   7.166
 5610TIP3    H238390   6.704   4.195   7.291
 5611TIP3   OH238391   0.380   3.290   0.021
 5611TIP3    H138392   0.310   3.355   0.020
 5611TIP3    H238393   0.460   3.341   0.007
 5612TIP3   OH238394   2.197   2.146   0.349
 5612TIP3    H138395   2.125   2.131   0.410
 5612TIP3    H238396   2.234   2.059   0.334
 5613TIP3   OH238397   0.462   6.492   1.143
 5613TIP3    H138398   0.398   6.476   1.073
 5613TIP3    H238399   0.512   6.568   1.113
 5614TIP3   OH238400   5.340   0.887   1.022
 5614TIP3    H138401   5.429   0.904   1.052
 5614TIP3    H238402   5.351   0.824   0.950
 5615TIP3   OH238403   6.181   6.324   0.576
 5615TIP3    H138404   6.205   6.403   0.624
 5615TIP3    H238405   6.093   6.342   0.542
 5616TIP3   OH238406   0.083   4.580   0.177
 5616TIP3    H138407   0.082   4.552   0.268
 5616TIP3    H238408   0.095   4.499   0.127
 5617TIP3   OH238409   6.195   4.018   8.429
 5617TIP3    H138410   6.174   3.960   8.356
 5617TIP3    H238411   6.288   4.036   8.419
 5618TIP3   OH238412   4.950   2.822   8.594
 5618TIP3    H138413   4.893   2.758   8.636
 5618TIP3    H238414   4.894   2.868   8.532
 5619TIP3   OH238415   4.902   5.109   8.698
 5619TIP3    H138416   4.842   5.037   8.720
 5619TIP3    H238417   4.895   5.118   8.602
 5620TIP3   OH238418   2.554   0.011   0.202
 5620TIP3    H138419   2.631  -0.025   0.246
 5620TIP3    H238420   2.517  -0.063   0.153
 5621TIP3   OH238421   6.554   0.566   8.006
 5621TIP3    H138422   6.643   0.541   8.031
 5621TIP3    H238423   6.535   0.516   7.927
 5622TIP3   OH238424   2.739   0.640   8.645
 5622TIP3    H138425   2.773   0.573   8.584
 5622TIP3    H238426   2.788   0.719   8.623
 5623TIP3   OH238427   2.131   5.043   1.514
 5623TIP3    H138428   2.119   5.090   1.596
 5623TIP3    H238429   2.042   5.023   1.484
 5624TIP3   OH238430   5.544   6.474   0.521
 5624TIP3    H138431   5.521   6.519   0.439
 5624TIP3    H238432   5.505   6.388   0.512
 5625TIP3   OH238433   2.802   5.297   7.844
 5625TIP3    H138434   2.816   5.298   7.939
 5625TIP3    H238435   2.718   5.252   7.834
 5626TIP3   OH238436   4.719   2.642   8.344
 5626TIP3    H138437   4.673   2.686   8.273
 5626TIP3    H238438   4.741   2.556   8.309
 5627TIP3   OH238439   1.151   0.923   1.880
 5627TIP3    H138440   1.171   0.998   1.936
 5627TIP3    H238441   1.236   0.897   1.844
 5628TIP3   OH238442   2.044   0.337   7.335
 5628TIP3    H138443   2.078   0.381   7.413
 5628TIP3    H238444   2.007   0.256   7.368
 5629TIP3   OH238445   3.550   4.914   1.328
 5629TIP3    H138446   3.462   4.949   1.322
 5629TIP3    H238447   3.539   4.819   1.325
 5630TIP3   OH238448   5.422   6.030   1.975
 5630TIP3    H138449   5.419   6.000   2.066
 5630TIP3    H238450   5.365   6.106   1.973
 5631TIP3   OH238451   1.809   0.294   8.430
 5631TIP3    H138452   1.849   0.335   8.353
 5631TIP3    H238453   1.720   0.329   8.432
 5632TIP3   OH238454   4.331   5.896   0.648
 5632TIP3    H138455   4.317   5.977   0.697
 5632TIP3    H238456   4.409   5.857   0.688
 5633TIP3   OH238457   4.772   2.179   7.467
 5633TIP3    H138458   4.828   2.103   7.485
 5633TIP3    H238459   4.732   2.200   7.551
 5634TIP3   OH238460   5.157   6.539   0.694
 5634TIP3    H138461   5.178   6.598   0.621
 5634TIP3    H238462   5.230   6.549   0.755
 5635TIP3   OH238463   0.260   4.750   7.343
 5635TIP3    H138464   0.312   4.769   7.421
 5635TIP3    H238465   0.234   4.836   7.309
 5636TIP3   OH238466   4.826   3.711   8.494
 5636TIP3    H138467   4.895   3.651   8.524
 5636TIP3    H238468   4.769   3.657   8.440
 5637TIP3   OH238469   6.206   1.500   8.406
 5637TIP3    H138470   6.259   1.574   8.436
 5637TIP3    H238471   6.130   1.500   8.464
 5638TIP3   OH238472   4.157   3.893   7.415
 5638TIP3    H138473   4.112   3.808   7.420
 5638TIP3    H238474   4.134   3.926   7.328
 5639TIP3   OH238475   1.663   1.705   8.435
 5639TIP3    H138476   1.702   1.699   8.348
 5639TIP3    H238477   1.574   1.737   8.419
 5640TIP3   OH238478   1.697   5.346   8.045
 5640TIP3    H138479   1.691   5.313   8.135
 5640TIP3    H238480   1.782   5.389   8.041
 5641TIP3   OH238481   0.297   0.157   7.500
 5641TIP3    H138482   0.224   0.210   7.468
 5641TIP3    H238483   0.258   0.071   7.516
 5642TIP3   OH238484   5.431   1.544   8.701
 5642TIP3    H138485   5.348   1.515   8.739
 5642TIP3    H238486   5.415   1.635   8.675
 5643TIP3   OH238487   2.389   1.930   8.113
 5643TIP3    H138488   2.398   2.012   8.161
 5643TIP3    H238489   2.299   1.902   8.131
 5644TIP3   OH238490   5.796   1.756   0.456
 5644TIP3    H138491   5.854   1.701   0.403
 5644TIP3    H238492   5.711   1.712   0.453
 5645TIP3   OH238493   2.728   2.944   7.363
 5645TIP3    H138494   2.761   3.007   7.300
 5645TIP3    H238495   2.651   2.905   7.319
 5646TIP3   OH238496   5.954   2.079   2.848
 5646TIP3    H138497   5.975   2.023   2.773
 5646TIP3    H238498   5.859   2.083   2.850
 5647TIP3   OH238499   2.291   4.540   8.528
 5647TIP3    H138500   2.245   4.616   8.493
 5647TIP3    H238501   2.238   4.511   8.602
 5648TIP3   OH238502   1.405   6.476   0.464
 5648TIP3    H138503   1.352   6.458   0.386
 5648TIP3    H238504   1.456   6.554   0.443
 5649TIP3   OH238505   2.887   5.439   0.755
 5649TIP3    H138506   2.826   5.366   0.760
 5649TIP3    H238507   2.852   5.504   0.816
 5650TIP3   OH238508   5.029   3.838   8.725
 5650TIP3    H138509   4.990   3.842   8.638
 5650TIP3    H238510   5.111   3.790   8.712
 5651TIP3   OH238511   2.726   3.425   1.059
 5651TIP3    H138512   2.668   3.469   0.997
 5651TIP3    H238513   2.677   3.347   1.086
 5652TIP3   OH238514   1.707   4.493   8.414
 5652TIP3    H138515   1.747   4.527   8.334
 5652TIP3    H238516   1.712   4.565   8.476
 5653TIP3   OH238517   1.969   0.054   1.235
 5653TIP3    H138518   1.964  -0.037   1.264
 5653TIP3    H238519   1.884   0.070   1.194
 5654TIP3   OH238520   6.609   6.598   7.417
 5654TIP3    H138521   6.603   6.591   7.322
 5654TIP3    H238522   6.670   6.528   7.442
 5655TIP3   OH238523   3.265   1.370   8.719
 5655TIP3    H138524   3.253   1.411   8.633
 5655TIP3    H238525   3.262   1.442   8.781
 5656TIP3   OH238526   3.904   4.656   8.095
 5656TIP3    H138527   3.990   4.691   8.069
 5656TIP3    H238528   3.924   4.574   8.139
 5657TIP3   OH238529   2.021   0.356   8.606
 5657TIP3    H138530   2.013   0.450   8.619
 5657TIP3    H238531   1.942   0.332   8.557
 5658TIP3   OH238532   2.882   4.442   0.211
 5658TIP3    H138533   2.862   4.431   0.305
 5658TIP3    H238534   2.797   4.448   0.169
 5659TIP3   OH238535   5.089   6.735   8.119
 5659TIP3    H138536   5.172   6.714   8.160
 5659TIP3    H238537   5.056   6.811   8.166
 5660TIP3   OH238538   2.013   5.595   1.102
 5660TIP3    H138539   2.075   5.523   1.117
 5660TIP3    H238540   2.005   5.599   1.006
 5661TIP3   OH238541   0.492   0.074   8.149
 5661TIP3    H138542   0.399   0.056   8.139
 5661TIP3    H238543   0.497   0.156   8.197
 5662TIP3   OH238544   0.468   3.596   7.863
 5662TIP3    H138545   0.527   3.556   7.799
 5662TIP3    H238546   0.424   3.666   7.814
 5663TIP3   OH238547   3.516   1.060   7.615
 5663TIP3    H138548   3.459   1.022   7.682
 5663TIP3    H238549   3.479   1.146   7.597
 5664TIP3   OH238550   5.709   2.597   0.637
 5664TIP3    H138551   5.796   2.559   0.622
 5664TIP3    H238552   5.680   2.558   0.719
 5665TIP3   OH238553   2.212   5.915   8.733
 5665TIP3    H138554   2.134   5.909   8.678
 5665TIP3    H238555   2.246   6.003   8.715
 5666TIP3   OH238556   0.964   0.367   7.301
 5666TIP3    H138557   1.059   0.374   7.316
 5666TIP3    H238558   0.956   0.364   7.205
 5667TIP3   OH238559   0.070   3.707   8.138
 5667TIP3    H138560   0.040   3.672   8.222
 5667TIP3    H238561  -0.007   3.747   8.099
 5668TIP3   OH238562   1.268   6.521   7.766
 5668TIP3    H138563   1.251   6.615   7.771
 5668TIP3    H238564   1.352   6.514   7.720
 5669TIP3   OH238565   2.902   3.722   1.662
 5669TIP3    H138566   2.831   3.711   1.599
 5669TIP3    H238567   2.930   3.813   1.651
 5670TIP3   OH238568   0.545   1.953   8.001
 5670TIP3    H138569   0.495   1.912   8.071
 5670TIP3    H238570   0.622   1.989   8.044
 5671TIP3   OH238571   6.658   1.593   1.952
 5671TIP3    H138572   6.563   1.588   1.960
 5671TIP3    H238573   6.674   1.676   1.907
 5672TIP3   OH238574   2.773   4.147   6.344
 5672TIP3    H138575   2.683   4.162   6.372
 5672TIP3    H238576   2.822   4.138   6.426
 5673TIP3   OH238577   1.879   1.434   1.039
 5673TIP3    H138578   1.945   1.479   1.093
 5673TIP3    H238579   1.878   1.344   1.073
 5674TIP3   OH238580   5.566   4.643   0.898
 5674TIP3    H138581   5.544   4.657   0.806
 5674TIP3    H238582   5.533   4.555   0.918
 5675TIP3   OH238583   0.087   1.622   0.973
 5675TIP3    H138584   0.022   1.593   0.908
 5675TIP3    H238585   0.142   1.684   0.925
 5676TIP3   OH238586   1.508   3.332   0.867
 5676TIP3    H138587   1.540   3.387   0.795
 5676TIP3    H238588   1.435   3.283   0.829
 5677TIP3   OH238589   3.916   5.236   0.707
 5677TIP3    H138590   3.850   5.180   0.748
 5677TIP3    H238591   3.969   5.268   0.781
 5678TIP3   OH238592   1.868   3.915   6.551
 5678TIP3    H138593   1.823   3.887   6.471
 5678TIP3    H238594   1.862   3.839   6.609
 5679TIP3   OH238595   0.847   5.907   1.635
 5679TIP3    H138596   0.842   6.002   1.646
 5679TIP3    H238597   0.939   5.887   1.651
 5680TIP3   OH238598   2.702   3.399   6.183
 5680TIP3    H138599   2.647   3.328   6.151
 5680TIP3    H238600   2.730   3.446   6.104
 5681TIP3   OH238601   0.030   4.162   6.334
 5681TIP3    H138602   0.069   4.105   6.269
 5681TIP3    H238603   0.092   4.234   6.344
 5682TIP3   OH238604   3.673   5.672   7.272
 5682TIP3    H138605   3.737   5.729   7.315
 5682TIP3    H238606   3.619   5.731   7.219
 5683TIP3   OH238607   2.237   2.884   1.223
 5683TIP3    H138608   2.142   2.896   1.219
 5683TIP3    H238609   2.265   2.935   1.300
 5684TIP3   OH238610   0.887   1.399   1.302
 5684TIP3    H138611   0.950   1.423   1.370
 5684TIP3    H238612   0.889   1.304   1.300
 5685TIP3   OH238613   2.348   5.055   2.251
 5685TIP3    H138614   2.383   5.049   2.162
 5685TIP3    H238615   2.360   4.968   2.288
 5686TIP3   OH238616   2.310   3.920   0.223
 5686TIP3    H138617   2.317   3.838   0.173
 5686TIP3    H238618   2.245   3.901   0.291
 5687TIP3   OH238619   6.128   4.413   6.428
 5687TIP3    H138620   6.077   4.401   6.348
 5687TIP3    H238621   6.209   4.366   6.412
 5688TIP3   OH238622   6.106   2.423   0.887
 5688TIP3    H138623   6.195   2.448   0.863
 5688TIP3    H238624   6.110   2.329   0.903
 5689TIP3   OH238625   1.833   3.425   0.870
 5689TIP3    H138626   1.794   3.340   0.849
 5689TIP3    H238627   1.918   3.404   0.908
 5690TIP3   OH238628   1.744   6.059   8.082
 5690TIP3    H138629   1.790   5.982   8.047
 5690TIP3    H238630   1.713   6.105   8.004
 5691TIP3   OH238631   2.850   4.223   1.116
 5691TIP3    H138632   2.766   4.196   1.078
 5691TIP3    H238633   2.860   4.315   1.089
 5692TIP3   OH238634   5.134   2.177   1.259
 5692TIP3    H138635   5.138   2.257   1.206
 5692TIP3    H238636   5.154   2.206   1.348
 5693TIP3   OH238637   1.143   0.363   6.620
 5693TIP3    H138638   1.096   0.341   6.700
 5693TIP3    H238639   1.170   0.279   6.583
 5694TIP3   OH238640   6.406   2.721   7.337
 5694TIP3    H138641   6.335   2.669   7.374
 5694TIP3    H238642   6.467   2.656   7.300
 5695TIP3   OH238643   6.723   5.036   6.910
 5695TIP3    H138644   6.727   5.120   6.955
 5695TIP3    H238645   6.678   5.056   6.827
 5696TIP3   OH238646   1.922   6.706   0.119
 5696TIP3    H138647   1.867   6.639   0.079
 5696TIP3    H238648   1.931   6.773   0.051
 5697TIP3   OH238649   2.195   4.206   6.582
 5697TIP3    H138650   2.182   4.220   6.676
 5697TIP3    H238651   2.281   4.164   6.576
 5698TIP3   OH238652   2.297   4.537   0.438
 5698TIP3    H138653   2.339   4.555   0.522
 5698TIP3    H238654   2.368   4.504   0.382
 5699TIP3   OH238655   1.796   2.586   0.721
 5699TIP3    H138656   1.788   2.673   0.759
 5699TIP3    H238657   1.706   2.556   0.711
 5700TIP3   OH238658   3.322   5.038   8.809
 5700TIP3    H138659   3.388   4.986   8.764
 5700TIP3    H238660   3.360   5.125   8.815
 5701TIP3   OH238661   6.650   5.821   1.418
 5701TIP3    H138662   6.569   5.836   1.467
 5701TIP3    H238663   6.626   5.832   1.326
 5702TIP3   OH238664   6.669   2.068   1.317
 5702TIP3    H138665   6.626   2.101   1.237
 5702TIP3    H238666   6.680   1.975   1.301
 5703TIP3   OH238667   5.590   3.680   8.046
 5703TIP3    H138668   5.603   3.722   8.131
 5703TIP3    H238669   5.611   3.588   8.060
 5704TIP3   OH238670   2.430   5.425   7.878
 5704TIP3    H138671   2.361   5.378   7.925
 5704TIP3    H238672   2.436   5.383   7.793
 5705TIP3   OH238673   1.544   5.725   7.973
 5705TIP3    H138674   1.542   5.634   7.944
 5705TIP3    H238675   1.543   5.776   7.893
 5706TIP3   OH238676   3.382   3.570   6.884
 5706TIP3    H138677   3.387   3.487   6.931
 5706TIP3    H238678   3.425   3.553   6.801
 5707TIP3   OH238679   6.015   3.678   6.956
 5707TIP3    H138680   5.930   3.666   6.998
 5707TIP3    H238681   6.002   3.645   6.867
 5708TIP3   OH238682   0.612   0.827   8.306
 5708TIP3    H138683   0.608   0.756   8.241
 5708TIP3    H238684   0.520   0.845   8.327
 5709TIP3   OH238685   3.866   1.663   0.731
 5709TIP3    H138686   3.827   1.576   0.739
 5709TIP3    H238687   3.812   1.708   0.666
 5710TIP3   OH238688   4.718   3.354   7.657
 5710TIP3    H138689   4.658   3.362   7.732
 5710TIP3    H238690   4.699   3.431   7.603
 5711TIP3   OH238691   1.924   4.021   2.227
 5711TIP3    H138692   1.833   4.030   2.254
 5711TIP3    H238693   1.954   4.111   2.213
 5712TIP3   OH238694   2.312   0.688   7.074
 5712TIP3    H138695   2.358   0.758   7.027
 5712TIP3    H238696   2.293   0.622   7.006
 5713TIP3   OH238697   0.541   3.973   7.687
 5713TIP3    H138698   0.545   3.991   7.593
 5713TIP3    H238699   0.517   4.057   7.726
 5714TIP3   OH238700   1.546   1.740   0.555
 5714TIP3    H138701   1.491   1.689   0.495
 5714TIP3    H238702   1.620   1.682   0.575
 5715TIP3   OH238703   0.764   3.075   0.859
 5715TIP3    H138704   0.810   3.157   0.872
 5715TIP3    H238705   0.680   3.100   0.820
 5716TIP3   OH238706   2.147   2.003   7.067
 5716TIP3    H138707   2.189   1.927   7.110
 5716TIP3    H238708   2.102   2.048   7.138
 5717TIP3   OH238709   3.848   0.810   1.565
 5717TIP3    H138710   3.809   0.725   1.545
 5717TIP3    H238711   3.790   0.874   1.524
 5718TIP3   OH238712   2.891   1.283   0.401
 5718TIP3    H138713   2.846   1.265   0.484
 5718TIP3    H238714   2.834   1.346   0.356
 5719TIP3   OH238715   0.326   1.764   0.188
 5719TIP3    H138716   0.299   1.773   0.096
 5719TIP3    H238717   0.418   1.790   0.188
 5720TIP3   OH238718   0.277   6.237   8.817
 5720TIP3    H138719   0.342   6.235   8.747
 5720TIP3    H238720   0.266   6.330   8.837
 5721TIP3   OH238721   4.596   0.983   0.013
 5721TIP3    H138722   4.671   0.924   0.005
 5721TIP3    H238723   4.569   0.975   0.105
 5722TIP3   OH238724   2.995   4.751   0.224
 5722TIP3    H138725   2.977   4.657   0.211
 5722TIP3    H238726   2.932   4.796   0.168
 5723TIP3   OH238727   4.727   0.978   1.011
 5723TIP3    H138728   4.752   1.070   1.004
 5723TIP3    H238729   4.641   0.972   0.970
 5724TIP3   OH238730   6.487   1.219   8.184
 5724TIP3    H138731   6.426   1.258   8.121
 5724TIP3    H238732   6.574   1.242   8.150
 5725TIP3   OH238733   0.493   2.894   6.909
 5725TIP3    H138734   0.534   2.867   6.827
 5725TIP3    H238735   0.400   2.900   6.889
 5726TIP3   OH238736   2.849   2.469   2.245
 5726TIP3    H138737   2.794   2.452   2.169
 5726TIP3    H238738   2.938   2.473   2.209
 5727TIP3   OH238739   1.806   4.948   0.016
 5727TIP3    H138740   1.816   5.002   0.094
 5727TIP3    H238741   1.732   4.987  -0.030
 5728TIP3   OH238742   6.758   2.087   7.008
 5728TIP3    H138743   6.843   2.125   7.031
 5728TIP3    H238744   6.777   1.995   6.988
 5729TIP3   OH238745   4.553   2.075   1.504
 5729TIP3    H138746   4.625   2.017   1.479
 5729TIP3    H238747   4.515   2.034   1.582
 5730TIP3   OH238748   5.715   3.383   8.618
 5730TIP3    H138749   5.708   3.406   8.711
 5730TIP3    H238750   5.752   3.295   8.617
 5731TIP3   OH238751   3.622   6.125   8.041
 5731TIP3    H138752   3.690   6.187   8.067
 5731TIP3    H238753   3.544   6.179   8.030
 5732TIP3   OH238754   1.264   5.801   1.258
 5732TIP3    H138755   1.319   5.876   1.278
 5732TIP3    H238756   1.276   5.786   1.164
 5733TIP3   OH238757   0.703   5.674   0.854
 5733TIP3    H138758   0.764   5.616   0.809
 5733TIP3    H238759   0.745   5.760   0.852
 5734TIP3   OH238760   0.074   5.026   0.457
 5734TIP3    H138761  -0.019   5.016   0.476
 5734TIP3    H238762   0.118   4.981   0.529
 5735TIP3   OH238763   1.253   6.646   8.602
 5735TIP3    H138764   1.162   6.617   8.592
 5735TIP3    H238765   1.287   6.648   8.512
 5736TIP3   OH238766   1.984   0.900   0.678
 5736TIP3    H138767   1.984   0.947   0.595
 5736TIP3    H238768   2.075   0.872   0.689
 5737TIP3   OH238769   6.355   0.219   0.904
 5737TIP3    H138770   6.303   0.200   0.826
 5737TIP3    H238771   6.395   0.135   0.927
 5738TIP3   OH238772   1.170   6.716   7.200
 5738TIP3    H138773   1.163   6.770   7.121
 5738TIP3    H238774   1.178   6.626   7.167
 5739TIP3   OH238775   0.980   5.387   6.934
 5739TIP3    H138776   1.033   5.311   6.907
 5739TIP3    H238777   0.946   5.423   6.852
 5740TIP3   OH238778   4.761   5.975   6.590
 5740TIP3    H138779   4.783   6.064   6.617
 5740TIP3    H238780   4.772   5.923   6.670
 5741TIP3   OH238781   3.180   1.149   0.079
 5741TIP3    H138782   3.202   1.233   0.040
 5741TIP3    H238783   3.265   1.111   0.103
 5742TIP3   OH238784   1.789   5.790   8.081
 5742TIP3    H138785   1.699   5.768   8.057
 5742TIP3    H238786   1.826   5.708   8.114
 5743TIP3   OH238787   6.096   5.938   0.817
 5743TIP3    H138788   6.174   5.884   0.807
 5743TIP3    H238789   6.027   5.890   0.771
 5744TIP3   OH238790   1.141   5.347   1.513
 5744TIP3    H138791   1.220   5.304   1.481
 5744TIP3    H238792   1.083   5.275   1.537
 5745TIP3   OH238793   1.469   1.620   7.843
 5745TIP3    H138794   1.491   1.654   7.930
 5745TIP3    H238795   1.378   1.647   7.829
 5746TIP3   OH238796   3.359   0.917   7.792
 5746TIP3    H138797   3.354   0.984   7.860
 5746TIP3    H238798   3.296   0.946   7.725
 5747TIP3   OH238799   4.045   4.543   0.847
 5747TIP3    H138800   4.023   4.620   0.795
 5747TIP3    H238801   4.012   4.564   0.935
 5748TIP3   OH238802   3.590   5.818   8.679
 5748TIP3    H138803   3.655   5.798   8.611
 5748TIP3    H238804   3.602   5.911   8.697
 5749TIP3   OH238805   4.921   0.810   1.920
 5749TIP3    H138806   4.907   0.726   1.964
 5749TIP3    H238807   4.959   0.786   1.835
 5750TIP3   OH238808   4.285   6.187   2.294
 5750TIP3    H138809   4.340   6.109   2.285
 5750TIP3    H238810   4.259   6.188   2.386
 5751TIP3   OH238811   4.174   3.967   0.799
 5751TIP3    H138812   4.247   3.911   0.773
 5751TIP3    H238813   4.160   3.946   0.892
 5752TIP3   OH238814   3.961   4.895   0.585
 5752TIP3    H138815   3.939   4.817   0.534
 5752TIP3    H238816   3.890   4.956   0.568
 5753TIP3   OH238817   3.064   2.107   8.101
 5753TIP3    H138818   3.083   2.083   8.010
 5753TIP3    H238819   3.050   2.201   8.098
 5754TIP3   OH238820   2.335   6.468   0.830
 5754TIP3    H138821   2.405   6.491   0.891
 5754TIP3    H238822   2.262   6.524   0.856
 5755TIP3   OH238823   0.766   1.296   6.365
 5755TIP3    H138824   0.852   1.263   6.338
 5755TIP3    H238825   0.776   1.391   6.360
 5756TIP3   OH238826   4.003   2.021   7.297
 5756TIP3    H138827   3.957   2.075   7.232
 5756TIP3    H238828   3.982   2.062   7.381
 5757TIP3   OH238829   2.968   0.654   7.575
 5757TIP3    H138830   2.949   0.604   7.496
 5757TIP3    H238831   3.062   0.646   7.587
 5758TIP3   OH238832   1.870   2.274   7.877
 5758TIP3    H138833   1.925   2.339   7.921
 5758TIP3    H238834   1.794   2.264   7.934
 5759TIP3   OH238835   2.318   3.040   1.428
 5759TIP3    H138836   2.365   3.087   1.496
 5759TIP3    H238837   2.225   3.059   1.445
 5760TIP3   OH238838   4.632   3.720   0.136
 5760TIP3    H138839   4.585   3.755   0.212
 5760TIP3    H238840   4.564   3.680   0.082
 5761TIP3   OH238841   1.933   4.551   7.090
 5761TIP3    H138842   1.894   4.492   7.026
 5761TIP3    H238843   1.927   4.638   7.049
 5762TIP3   OH238844   0.252   6.501   0.969
 5762TIP3    H138845   0.255   6.427   0.907
 5762TIP3    H238846   0.161   6.531   0.966
 5763TIP3   OH238847   0.746   6.415   8.348
 5763TIP3    H138848   0.833   6.376   8.359
 5763TIP3    H238849   0.689   6.342   8.328
 5764TIP3   OH238850   0.606   0.552   0.608
 5764TIP3    H138851   0.634   0.530   0.519
 5764TIP3    H238852   0.652   0.635   0.626
 5765TIP3   OH238853   1.761   0.267   0.963
 5765TIP3    H138854   1.798   0.203   0.903
 5765TIP3    H238855   1.667   0.249   0.963
 5766TIP3   OH238856   4.665   5.357   8.809
 5766TIP3    H138857   4.713   5.362   8.726
 5766TIP3    H238858   4.734   5.358   8.876
 5767TIP3   OH238859   3.901   3.935   7.123
 5767TIP3    H138860   3.822   3.884   7.140
 5767TIP3    H238861   3.893   3.961   7.031
 5768TIP3   OH238862   2.654   3.645   1.453
 5768TIP3    H138863   2.722   3.710   1.437
 5768TIP3    H238864   2.699   3.561   1.450
 5769TIP3   OH238865   1.626   2.555   8.647
 5769TIP3    H138866   1.533   2.569   8.630
 5769TIP3    H238867   1.666   2.552   8.561
 5770TIP3   OH238868   1.013   5.459   0.027
 5770TIP3    H138869   0.935   5.498  -0.013
 5770TIP3    H238870   1.077   5.530   0.028
 5771TIP3   OH238871   3.596   4.596   7.354
 5771TIP3    H138872   3.629   4.595   7.264
 5771TIP3    H238873   3.662   4.643   7.404
 5772TIP3   OH238874   0.336   3.434   7.567
 5772TIP3    H138875   0.261   3.429   7.627
 5772TIP3    H238876   0.357   3.527   7.563
 5773TIP3   OH238877   6.669   6.031   2.302
 5773TIP3    H138878   6.627   5.989   2.377
 5773TIP3    H238879   6.762   6.037   2.326
 5774TIP3   OH238880   1.787   3.491   7.585
 5774TIP3    H138881   1.863   3.466   7.533
 5774TIP3    H238882   1.772   3.583   7.563
 5775TIP3   OH238883   6.543   0.085   6.248
 5775TIP3    H138884   6.559   0.061   6.339
 5775TIP3    H238885   6.477   0.154   6.252
 5776TIP3   OH238886   5.472   2.842   0.660
 5776TIP3    H138887   5.382   2.866   0.638
 5776TIP3    H238888   5.464   2.764   0.714
 5777TIP3   OH238889   2.924   4.377   7.622
 5777TIP3    H138890   2.849   4.424   7.658
 5777TIP3    H238891   2.998   4.403   7.676
 5778TIP3   OH238892   3.354   6.176   0.260
 5778TIP3    H138893   3.269   6.194   0.220
 5778TIP3    H238894   3.349   6.085   0.290
 5779TIP3   OH238895   4.124   1.427   1.103
 5779TIP3    H138896   4.032   1.405   1.089
 5779TIP3    H238897   4.171   1.380   1.033
 5780TIP3   OH238898   3.640   1.326   7.494
 5780TIP3    H138899   3.702   1.328   7.567
 5780TIP3    H238900   3.686   1.371   7.422
 5781TIP3   OH238901   4.811   1.619   0.152
 5781TIP3    H138902   4.728   1.589   0.188
 5781TIP3    H238903   4.872   1.612   0.226
 5782TIP3   OH238904   4.427   6.103   8.662
 5782TIP3    H138905   4.464   6.015   8.668
 5782TIP3    H238906   4.481   6.146   8.595
 5783TIP3   OH238907   6.355   1.516   0.226
 5783TIP3    H138908   6.322   1.561   0.148
 5783TIP3    H238909   6.418   1.577   0.264
 5784TIP3   OH238910   1.436   3.635   7.226
 5784TIP3    H138911   1.475   3.653   7.141
 5784TIP3    H238912   1.418   3.721   7.263
 5785TIP3   OH238913   3.392   1.797   0.225
 5785TIP3    H138914   3.345   1.715   0.242
 5785TIP3    H238915   3.369   1.820   0.135
 5786TIP3   OH238916   0.586   6.677   7.948
 5786TIP3    H138917   0.540   6.593   7.956
 5786TIP3    H238918   0.625   6.692   8.034
 5787TIP3   OH238919   3.540   6.612   1.191
 5787TIP3    H138920   3.553   6.704   1.171
 5787TIP3    H238921   3.539   6.569   1.105
 5788TIP3   OH238922   4.466   0.973   0.688
 5788TIP3    H138923   4.561   0.960   0.680
 5788TIP3    H238924   4.450   1.058   0.647
 5789TIP3   OH238925   4.133   5.601   2.081
 5789TIP3    H138926   4.135   5.692   2.053
 5789TIP3    H238927   4.138   5.605   2.177
 5790TIP3   OH238928   6.691   6.092   8.671
 5790TIP3    H138929   6.661   6.003   8.688
 5790TIP3    H238930   6.762   6.082   8.607
 5791TIP3   OH238931   1.610   4.586   1.102
 5791TIP3    H138932   1.688   4.640   1.092
 5791TIP3    H238933   1.628   4.508   1.051
 5792TIP3   OH238934   4.004   3.739   6.524
 5792TIP3    H138935   4.077   3.789   6.486
 5792TIP3    H238936   4.031   3.647   6.514
 5793TIP3   OH238937   5.216   5.811   7.793
 5793TIP3    H138938   5.256   5.892   7.825
 5793TIP3    H238939   5.269   5.787   7.717
 5794TIP3   OH238940   1.482   1.254   7.991
 5794TIP3    H138941   1.566   1.297   7.975
 5794TIP3    H238942   1.455   1.221   7.906
 5795TIP3   OH238943   1.179   6.593   1.056
 5795TIP3    H138944   1.268   6.618   1.029
 5795TIP3    H238945   1.153   6.662   1.117
 5796TIP3   OH238946   1.079   2.711   7.239
 5796TIP3    H138947   1.170   2.703   7.211
 5796TIP3    H238948   1.047   2.621   7.243
 5797TIP3   OH238949   5.472   1.552   1.614
 5797TIP3    H138950   5.405   1.509   1.666
 5797TIP3    H238951   5.505   1.484   1.556
 5798TIP3   OH238952   6.736   3.921   6.083
 5798TIP3    H138953   6.741   3.845   6.025
 5798TIP3    H238954   6.828   3.945   6.099
 5799TIP3   OH238955   5.269   1.919   0.089
 5799TIP3    H138956   5.239   1.983   0.153
 5799TIP3    H238957   5.360   1.904   0.111
 5800TIP3   OH238958   2.979   0.650   0.377
 5800TIP3    H138959   3.037   0.574   0.377
 5800TIP3    H238960   3.027   0.717   0.328
 5801TIP3   OH238961   3.469   6.402   0.698
 5801TIP3    H138962   3.418   6.371   0.624
 5801TIP3    H238963   3.558   6.412   0.663
 5802TIP3   OH238964   0.822   4.350   7.386
 5802TIP3    H138965   0.912   4.381   7.399
 5802TIP3    H238966   0.779   4.370   7.469
 5803TIP3   OH238967   5.999   5.091   8.686
 5803TIP3    H138968   5.991   5.129   8.774
 5803TIP3    H238969   5.914   5.108   8.645
 5804TIP3   OH238970   2.578   6.222   1.507
 5804TIP3    H138971   2.603   6.252   1.594
 5804TIP3    H238972   2.572   6.301   1.454
 5805TIP3   OH238973   6.279   5.802   1.471
 5805TIP3    H138974   6.308   5.847   1.550
 5805TIP3    H238975   6.359   5.768   1.432
 5806TIP3   OH238976   4.263   2.351   6.222
 5806TIP3    H138977   4.329   2.419   6.212
 5806TIP3    H238978   4.299   2.275   6.176
 5807TIP3   OH238979   3.090   4.947   7.955
 5807TIP3    H138980   3.012   4.931   7.901
 5807TIP3    H238981   3.058   4.947   8.045
 5808TIP3   OH238982   0.829   4.112   7.237
 5808TIP3    H138983   0.764   4.138   7.171
 5808TIP3    H238984   0.846   4.191   7.287
 5809TIP3   OH238985   3.718   3.669   1.203
 5809TIP3    H138986   3.654   3.731   1.167
 5809TIP3    H238987   3.744   3.707   1.287
 5810TIP3   OH238988   5.626   4.059   1.206
 5810TIP3    H138989   5.637   3.974   1.248
 5810TIP3    H238990   5.546   4.050   1.154
 5811TIP3   OH238991   3.017   2.039   7.418
 5811TIP3    H138992   2.957   2.058   7.346
 5811TIP3    H238993   3.102   2.025   7.376
 5812TIP3   OH238994   2.346   0.411   1.643
 5812TIP3    H138995   2.365   0.501   1.618
 5812TIP3    H238996   2.424   0.383   1.693
 5813TIP3   OH238997   6.106   5.456   6.825
 5813TIP3    H138998   6.086   5.372   6.782
 5813TIP3    H238999   6.122   5.516   6.753
 5814TIP3   OH239000   2.684   4.835   7.492
 5814TIP3    H139001   2.616   4.814   7.556
 5814TIP3    H239002   2.658   4.921   7.457
 5815TIP3   OH239003   1.595   5.351   8.532
 5815TIP3    H139004   1.509   5.394   8.527
 5815TIP3    H239005   1.639   5.376   8.451
 5816TIP3   OH239006   2.315   3.932   7.070
 5816TIP3    H139007   2.365   3.870   7.017
 5816TIP3    H239008   2.359   3.933   7.155
 5817TIP3   OH239009   1.038   6.473   0.092
 5817TIP3    H139010   1.040   6.502   0.183
 5817TIP3    H239011   1.127   6.444   0.074
 5818TIP3   OH239012   1.692   4.245   8.358
 5818TIP3    H139013   1.626   4.258   8.290
 5818TIP3    H239014   1.706   4.332   8.395
 5819TIP3   OH239015   5.728   6.021   8.476
 5819TIP3    H139016   5.794   5.976   8.529
 5819TIP3    H239017   5.767   6.107   8.458
 5820TIP3   OH239018   1.136   5.335   1.125
 5820TIP3    H139019   1.088   5.407   1.167
 5820TIP3    H239020   1.225   5.344   1.159
 5821TIP3   OH239021   5.895   6.307   1.631
 5821TIP3    H139022   5.878   6.372   1.563
 5821TIP3    H239023   5.985   6.324   1.658
 5822TIP3   OH239024   3.733   6.124   0.746
 5822TIP3    H139025   3.723   6.219   0.740
 5822TIP3    H239026   3.708   6.091   0.659
 5823TIP3   OH239027   0.107   0.843   0.890
 5823TIP3    H139028   0.094   0.933   0.861
 5823TIP3    H239029   0.110   0.849   0.986
 5824TIP3   OH239030   0.525   4.432   7.322
 5824TIP3    H139031   0.545   4.377   7.246
 5824TIP3    H239032   0.608   4.473   7.345
 5825TIP3   OH239033   1.488   2.466   6.935
 5825TIP3    H139034   1.529   2.542   6.893
 5825TIP3    H239035   1.556   2.399   6.934
 5826TIP3   OH239036   0.165   4.110   5.886
 5826TIP3    H139037   0.140   4.063   5.965
 5826TIP3    H239038   0.128   4.059   5.814
 5827TIP3   OH239039   0.774   6.309   0.894
 5827TIP3    H139040   0.700   6.370   0.887
 5827TIP3    H239041   0.832   6.348   0.959
 5828TIP3   OH239042   1.125   2.418   7.356
 5828TIP3    H139043   1.030   2.428   7.351
 5828TIP3    H239044   1.142   2.396   7.448
 5829TIP3   OH239045   4.619   0.593   1.945
 5829TIP3    H139046   4.631   0.503   1.917
 5829TIP3    H239047   4.680   0.603   2.019
 5830TIP3   OH239048   3.621   4.605   0.256
 5830TIP3    H139049   3.684   4.585   0.186
 5830TIP3    H239050   3.660   4.680   0.301
 5831TIP3   OH239051   2.737   0.532   1.072
 5831TIP3    H139052   2.796   0.457   1.081
 5831TIP3    H239053   2.785   0.593   1.017
 5832TIP3   OH239054   2.453   2.994   0.099
 5832TIP3    H139055   2.487   2.946   0.024
 5832TIP3    H239056   2.359   2.978   0.098
 5833TIP3   OH239057   4.408   3.443   7.372
 5833TIP3    H139058   4.332   3.448   7.430
 5833TIP3    H239059   4.371   3.446   7.284
 5834TIP3   OH239060   3.630   2.952   1.432
 5834TIP3    H139061   3.673   2.999   1.503
 5834TIP3    H239062   3.655   3.001   1.353
 5835TIP3   OH239063   2.384   6.651   0.584
 5835TIP3    H139064   2.345   6.587   0.643
 5835TIP3    H239065   2.479   6.638   0.594
 5836TIP3   OH239066   6.521   1.694   8.548
 5836TIP3    H139067   6.503   1.733   8.462
 5836TIP3    H239068   6.436   1.695   8.593
 5837TIP3   OH239069   0.660   0.866   6.459
 5837TIP3    H139070   0.670   0.777   6.425
 5837TIP3    H239071   0.750   0.896   6.476
 5838TIP3   OH239072   0.495   4.331   1.135
 5838TIP3    H139073   0.439   4.257   1.114
 5838TIP3    H239074   0.465   4.402   1.078
 5839TIP3   OH239075   3.248   5.172   7.915
 5839TIP3    H139076   3.201   5.211   7.841
 5839TIP3    H239077   3.194   5.098   7.942
 5840TIP3   OH239078   5.925   1.788   7.351
 5840TIP3    H139079   5.976   1.708   7.353
 5840TIP3    H239080   5.938   1.824   7.263
 5841TIP3   OH239081   5.076   3.625   7.639
 5841TIP3    H139082   5.046   3.536   7.657
 5841TIP3    H239083   5.071   3.633   7.544
 5842TIP3   OH239084   5.137   1.372   1.391
 5842TIP3    H139085   5.090   1.455   1.401
 5842TIP3    H239086   5.188   1.363   1.472
 5843TIP3   OH239087   4.694   1.099   8.429
 5843TIP3    H139088   4.620   1.152   8.398
 5843TIP3    H239089   4.740   1.155   8.490
 5844TIP3   OH239090   2.568   1.397   8.185
 5844TIP3    H139091   2.474   1.377   8.187
 5844TIP3    H239092   2.595   1.375   8.096
 5845TIP3   OH239093   0.560   2.434   7.012
 5845TIP3    H139094   0.554   2.512   7.068
 5845TIP3    H239095   0.653   2.428   6.990
 5846TIP3   OH239096   2.213   1.529   7.900
 5846TIP3    H139097   2.216   1.590   7.826
 5846TIP3    H239098   2.252   1.577   7.973
 5847TIP3   OH239099   1.155   6.410   7.183
 5847TIP3    H139100   1.068   6.417   7.223
 5847TIP3    H239101   1.138   6.414   7.088
 5848TIP3   OH239102   5.331   4.240   2.023
 5848TIP3    H139103   5.288   4.321   2.052
 5848TIP3    H239104   5.417   4.269   1.992
 5849TIP3   OH239105   4.019   2.228   6.917
 5849TIP3    H139106   4.048   2.285   6.845
 5849TIP3    H239107   4.081   2.245   6.987
 5850TIP3   OH239108   6.578   6.574   1.283
 5850TIP3    H139109   6.541   6.662   1.298
 5850TIP3    H239110   6.672   6.588   1.277
 5851TIP3   OH239111   1.277   0.074   7.493
 5851TIP3    H139112   1.198   0.034   7.455
 5851TIP3    H239113   1.347   0.050   7.433
 5852TIP3   OH239114   4.918   0.563   0.024
 5852TIP3    H139115   4.954   0.630  -0.034
 5852TIP3    H239116   4.946   0.480  -0.015
 5853TIP3   OH239117   4.476   2.160   0.523
 5853TIP3    H139118   4.437   2.114   0.448
 5853TIP3    H239119   4.529   2.229   0.483
 5854TIP3   OH239120   2.683   5.683   0.240
 5854TIP3    H139121   2.761   5.697   0.186
 5854TIP3    H239122   2.640   5.769   0.241
 5855TIP3   OH239123   5.400   6.547   7.099
 5855TIP3    H139124   5.350   6.629   7.098
 5855TIP3    H239125   5.421   6.533   7.191
 5856TIP3   OH239126   1.024   4.964   0.890
 5856TIP3    H139127   1.072   4.954   0.972
 5856TIP3    H239128   1.063   5.041   0.849
 5857TIP3   OH239129   5.800   3.474   0.720
 5857TIP3    H139130   5.850   3.436   0.792
 5857TIP3    H239131   5.848   3.553   0.697
 5858TIP3   OH239132   4.332   0.628   1.659
 5858TIP3    H139133   4.245   0.641   1.696
 5858TIP3    H239134   4.359   0.541   1.690
 5859TIP3   OH239135   2.200   4.443   7.147
 5859TIP3    H139136   2.199   4.538   7.153
 5859TIP3    H239137   2.108   4.419   7.135
 5860TIP3   OH239138   2.920   4.108   6.896
 5860TIP3    H139139   2.907   4.201   6.878
 5860TIP3    H239140   3.015   4.095   6.891
 5861TIP3   OH239141   3.141   6.415   7.746
 5861TIP3    H139142   3.149   6.320   7.759
 5861TIP3    H239143   3.068   6.441   7.802
 5862TIP3   OH239144   6.556   1.204   8.665
 5862TIP3    H139145   6.521   1.244   8.586
 5862TIP3    H239146   6.527   1.261   8.737
 5863TIP3   OH239147   0.599   3.089   8.778
 5863TIP3    H139148   0.628   2.998   8.787
 5863TIP3    H239149   0.523   3.096   8.836
 5864TIP3   OH239150   0.951   4.131   0.506
 5864TIP3    H139151   0.918   4.082   0.582
 5864TIP3    H239152   1.046   4.114   0.506
 5865TIP3   OH239153   5.058   5.629   0.997
 5865TIP3    H139154   5.069   5.553   0.940
 5865TIP3    H239155   5.067   5.594   1.086
 5866TIP3   OH239156   2.361   1.563   1.225
 5866TIP3    H139157   2.369   1.480   1.271
 5866TIP3    H239158   2.296   1.548   1.157
 5867TIP3   OH239159   0.036   2.430   1.322
 5867TIP3    H139160  -0.048   2.454   1.284
 5867TIP3    H239161   0.101   2.457   1.257
 5868TIP3   OH239162   1.572   3.764   0.501
 5868TIP3    H139163   1.592   3.680   0.542
 5868TIP3    H239164   1.488   3.789   0.539
 5869TIP3   OH239165   5.052   5.484   8.117
 5869TIP3    H139166   5.098   5.401   8.117
 5869TIP3    H239167   5.080   5.527   8.036
 5870TIP3   OH239168   1.483   5.956   0.660
 5870TIP3    H139169   1.458   6.023   0.597
 5870TIP3    H239170   1.539   6.001   0.723
 5871TIP3   OH239171   3.222   6.143   2.079
 5871TIP3    H139172   3.197   6.092   2.156
 5871TIP3    H239173   3.150   6.206   2.068
 5872TIP3   OH239174   6.431   1.502   1.505
 5872TIP3    H139175   6.370   1.554   1.558
 5872TIP3    H239176   6.382   1.424   1.481
 5873TIP3   OH239177   3.879   1.821   7.641
 5873TIP3    H139178   3.815   1.866   7.696
 5873TIP3    H239179   3.829   1.794   7.564
 5874TIP3   OH239180   5.098   0.458   8.658
 5874TIP3    H139181   5.042   0.479   8.583
 5874TIP3    H239182   5.183   0.435   8.620
 5875TIP3   OH239183   0.406   3.806   8.533
 5875TIP3    H139184   0.457   3.751   8.593
 5875TIP3    H239185   0.464   3.878   8.510
 5876TIP3   OH239186   2.490   6.114   0.873
 5876TIP3    H139187   2.410   6.074   0.907
 5876TIP3    H239188   2.462   6.165   0.797
 5877TIP3   OH239189   2.247   0.914   0.842
 5877TIP3    H139190   2.269   0.829   0.880
 5877TIP3    H239191   2.310   0.974   0.879
 5878TIP3   OH239192   0.248   2.885   6.649
 5878TIP3    H139193   0.175   2.946   6.664
 5878TIP3    H239194   0.316   2.939   6.609
 5879TIP3   OH239195   3.531   3.803   6.415
 5879TIP3    H139196   3.459   3.851   6.455
 5879TIP3    H239197   3.609   3.838   6.456
 5880TIP3   OH239198   3.034   2.964   8.828
 5880TIP3    H139199   3.051   2.948   8.735
 5880TIP3    H239200   2.939   2.970   8.835
 5881TIP3   OH239201   0.586   4.361   8.348
 5881TIP3    H139202   0.673   4.321   8.352
 5881TIP3    H239203   0.550   4.350   8.436
 5882TIP3   OH239204   1.351   3.102   1.703
 5882TIP3    H139205   1.429   3.107   1.757
 5882TIP3    H239206   1.373   3.151   1.624
 5883TIP3   OH239207   2.798   5.230   7.151
 5883TIP3    H139208   2.794   5.135   7.167
 5883TIP3    H239209   2.709   5.260   7.168
 5884TIP3   OH239210   3.666   3.803   0.271
 5884TIP3    H139211   3.750   3.845   0.253
 5884TIP3    H239212   3.689   3.715   0.300
 5885TIP3   OH239213   1.257   3.655   8.392
 5885TIP3    H139214   1.319   3.679   8.323
 5885TIP3    H239215   1.302   3.680   8.473
 5886TIP3   OH239216   0.454   5.712   0.516
 5886TIP3    H139217   0.463   5.698   0.422
 5886TIP3    H239218   0.542   5.738   0.545
 5887TIP3   OH239219   6.026   1.148   1.643
 5887TIP3    H139220   6.118   1.136   1.667
 5887TIP3    H239221   5.985   1.064   1.663
 5888TIP3   OH239222   2.612   6.110   7.551
 5888TIP3    H139223   2.597   6.023   7.588
 5888TIP3    H239224   2.704   6.108   7.523
 5889TIP3   OH239225   0.181   1.619   1.258
 5889TIP3    H139226   0.167   1.592   1.167
 5889TIP3    H239227   0.261   1.573   1.284
 5890TIP3   OH239228   1.026   6.749   7.431
 5890TIP3    H139229   1.062   6.735   7.343
 5890TIP3    H239230   1.035   6.664   7.474
 5891TIP3   OH239231   4.293   1.594   0.623
 5891TIP3    H139232   4.386   1.619   0.616
 5891TIP3    H239233   4.249   1.675   0.648
 5892TIP3   OH239234   3.405   0.078   1.614
 5892TIP3    H139235   3.355  -0.002   1.628
 5892TIP3    H239236   3.367   0.141   1.675
 5893TIP3   OH239237   2.451   1.225   0.702
 5893TIP3    H139238   2.495   1.181   0.629
 5893TIP3    H239239   2.521   1.248   0.763
 5894TIP3   OH239240   0.462   6.160   7.525
 5894TIP3    H139241   0.431   6.235   7.576
 5894TIP3    H239242   0.425   6.084   7.569
 5895TIP3   OH239243   5.541   4.902   0.732
 5895TIP3    H139244   5.492   4.945   0.661
 5895TIP3    H239245   5.555   4.813   0.701
 5896TIP3   OH239246   6.456   5.211   7.113
 5896TIP3    H139247   6.451   5.120   7.084
 5896TIP3    H239248   6.392   5.218   7.183
 5897TIP3   OH239249   3.846   2.132   7.097
 5897TIP3    H139250   3.891   2.152   7.015
 5897TIP3    H239251   3.778   2.199   7.104
 5898TIP3   OH239252   3.671   2.220   8.411
 5898TIP3    H139253   3.708   2.286   8.470
 5898TIP3    H239254   3.609   2.268   8.357
 5899TIP3   OH239255   3.260   4.316   7.486
 5899TIP3    H139256   3.352   4.340   7.470
 5899TIP3    H239257   3.227   4.383   7.545
 5900TIP3   OH239258   1.915   1.376   8.806
 5900TIP3    H139259   1.846   1.434   8.775
 5900TIP3    H239260   1.980   1.376   8.736
 5901TIP3   OH239261   1.507   6.111   0.083
 5901TIP3    H139262   1.547   6.039   0.034
 5901TIP3    H239263   1.516   6.187   0.026
 5902TIP3   OH239264   6.004   3.608   0.094
 5902TIP3    H139265   5.942   3.573   0.157
 5902TIP3    H239266   5.950   3.656   0.031
 5903TIP3   OH239267   0.645   1.844   6.543
 5903TIP3    H139268   0.682   1.866   6.457
 5903TIP3    H239269   0.578   1.778   6.523
 5904TIP3   OH239270   4.996   4.587   1.761
 5904TIP3    H139271   4.907   4.584   1.794
 5904TIP3    H239272   4.988   4.626   1.673
 5905TIP3   OH239273   6.645   2.867   1.333
 5905TIP3    H139274   6.573   2.886   1.273
 5905TIP3    H239275   6.651   2.945   1.388
 5906TIP3   OH239276   3.704   0.927   8.431
 5906TIP3    H139277   3.735   0.978   8.356
 5906TIP3    H239278   3.706   0.988   8.505
 5907TIP3   OH239279   3.901   5.543   8.129
 5907TIP3    H139280   3.899   5.455   8.091
 5907TIP3    H239281   3.942   5.597   8.061
 5908TIP3   OH239282   2.675   2.383   2.026
 5908TIP3    H139283   2.666   2.333   2.108
 5908TIP3    H239284   2.586   2.391   1.993
 5909TIP3   OH239285   1.084   2.806   1.522
 5909TIP3    H139286   1.165   2.803   1.572
 5909TIP3    H239287   1.092   2.883   1.467
 5910TIP3   OH239288   2.255   4.109   8.010
 5910TIP3    H139289   2.189   4.086   8.075
 5910TIP3    H239290   2.205   4.131   7.931
 5911TIP3   OH239291   2.904   1.258   8.806
 5911TIP3    H139292   2.877   1.317   8.736
 5911TIP3    H239293   2.840   1.274   8.876
 5912TIP3   OH239294   1.395   3.161   8.617
 5912TIP3    H139295   1.459   3.100   8.582
 5912TIP3    H239296   1.373   3.218   8.543
 5913TIP3   OH239297   2.206   0.770   7.464
 5913TIP3    H139298   2.205   0.730   7.551
 5913TIP3    H239299   2.187   0.863   7.480
 5914TIP3   OH239300   3.518   4.964   8.629
 5914TIP3    H139301   3.501   4.992   8.539
 5914TIP3    H239302   3.557   4.877   8.619
 5915TIP3   OH239303   2.742   3.234   1.494
 5915TIP3    H139304   2.771   3.162   1.438
 5915TIP3    H239305   2.740   3.197   1.582
 5916TIP3   OH239306   4.949   6.158   7.044
 5916TIP3    H139307   4.970   6.106   6.966
 5916TIP3    H239308   4.895   6.099   7.098
 5917TIP3   OH239309   2.192   0.374   8.390
 5917TIP3    H139310   2.141   0.358   8.469
 5917TIP3    H239311   2.129   0.373   8.319
 5918TIP3   OH239312   1.338   2.610   8.565
 5918TIP3    H139313   1.271   2.546   8.541
 5918TIP3    H239314   1.308   2.692   8.526
 5919TIP3   OH239315   4.302   4.045   7.912
 5919TIP3    H139316   4.237   3.979   7.886
 5919TIP3    H239317   4.249   4.116   7.950
 5920TIP3   OH239318   2.344   3.846   1.542
 5920TIP3    H139319   2.347   3.787   1.467
 5920TIP3    H239320   2.292   3.799   1.607
 5921TIP3   OH239321   1.931   2.173   2.495
 5921TIP3    H139322   2.002   2.177   2.559
 5921TIP3    H239323   1.942   2.089   2.451
 5922TIP3   OH239324   4.160   5.507   0.778
 5922TIP3    H139325   4.152   5.423   0.824
 5922TIP3    H239326   4.215   5.561   0.836
 5923TIP3   OH239327   2.413   1.695   7.969
 5923TIP3    H139328   2.392   1.780   8.008
 5923TIP3    H239329   2.471   1.715   7.896
 5924TIP3   OH239330   3.673   2.975   8.462
 5924TIP3    H139331   3.662   3.005   8.372
 5924TIP3    H239332   3.595   2.923   8.480
 5925TIP3   OH239333   3.847   2.464   0.561
 5925TIP3    H139334   3.923   2.450   0.504
 5925TIP3    H239335   3.774   2.477   0.500
 5926TIP3   OH239336   1.832   1.340   6.702
 5926TIP3    H139337   1.838   1.389   6.784
 5926TIP3    H239338   1.877   1.257   6.721
 5927TIP3   OH239339   1.972   1.796   7.749
 5927TIP3    H139340   1.997   1.876   7.795
 5927TIP3    H239341   1.934   1.826   7.667
 5928TIP3   OH239342   1.553   5.976   7.380
 5928TIP3    H139343   1.573   5.938   7.295
 5928TIP3    H239344   1.548   5.901   7.439
 5929TIP3   OH239345   1.784   1.165   1.053
 5929TIP3    H139346   1.747   1.184   0.967
 5929TIP3    H239347   1.831   1.083   1.042
 5930TIP3   OH239348   3.652   6.456   7.444
 5930TIP3    H139349   3.731   6.408   7.468
 5930TIP3    H239350   3.646   6.527   7.507
 5931TIP3   OH239351   5.300   4.522   7.593
 5931TIP3    H139352   5.322   4.441   7.640
 5931TIP3    H239353   5.276   4.493   7.505
 5932TIP3   OH239354   6.421   6.799   7.520
 5932TIP3    H139355   6.477   6.814   7.596
 5932TIP3    H239356   6.476   6.750   7.459
 5933TIP3   OH239357   1.456   1.322   0.825
 5933TIP3    H139358   1.477   1.272   0.746
 5933TIP3    H239359   1.411   1.400   0.794
 5934TIP3   OH239360   2.389   4.140   6.099
 5934TIP3    H139361   2.321   4.100   6.152
 5934TIP3    H239362   2.444   4.067   6.071
 5935TIP3   OH239363   2.498   2.787   2.042
 5935TIP3    H139364   2.438   2.713   2.047
 5935TIP3    H239365   2.442   2.862   2.020
 5936TIP3   OH239366   2.717   0.245   7.852
 5936TIP3    H139367   2.800   0.290   7.835
 5936TIP3    H239368   2.727   0.209   7.940
 5937TIP3   OH239369   3.829   2.247   0.144
 5937TIP3    H139370   3.754   2.226   0.088
 5937TIP3    H239371   3.905   2.226   0.091
 5938TIP3   OH239372   1.955   6.745   8.488
 5938TIP3    H139373   1.912   6.690   8.553
 5938TIP3    H239374   1.967   6.688   8.412
 5939TIP3   OH239375   3.721   5.148   0.104
 5939TIP3    H139376   3.813   5.144   0.079
 5939TIP3    H239377   3.715   5.226   0.160
 5940TIP3   OH239378   1.135   5.797   7.798
 5940TIP3    H139379   1.181   5.874   7.833
 5940TIP3    H239380   1.162   5.725   7.855
 5941TIP3   OH239381   6.397   2.921   0.774
 5941TIP3    H139382   6.419   3.012   0.754
 5941TIP3    H239383   6.466   2.891   0.832
 5942TIP3   OH239384   6.685   4.102   8.776
 5942TIP3    H139385   6.725   4.126   8.692
 5942TIP3    H239386   6.643   4.018   8.759
 5943TIP3   OH239387   0.782   1.958   1.831
 5943TIP3    H139388   0.807   1.881   1.780
 5943TIP3    H239389   0.706   1.930   1.882
 5944TIP3   OH239390   2.717   5.256   8.456
 5944TIP3    H139391   2.749   5.315   8.524
 5944TIP3    H239392   2.713   5.310   8.377
 5945TIP3   OH239393   6.274   6.415   0.070
 5945TIP3    H139394   6.229   6.393  -0.011
 5945TIP3    H239395   6.318   6.334   0.096
 5946TIP3   OH239396   5.048   2.456   7.988
 5946TIP3    H139397   5.058   2.511   7.911
 5946TIP3    H239398   5.075   2.369   7.959
 5947TIP3   OH239399   1.212   3.908   6.892
 5947TIP3    H139400   1.292   3.942   6.932
 5947TIP3    H239401   1.186   3.975   6.829
 5948TIP3   OH239402   6.250   0.789   7.363
 5948TIP3    H139403   6.345   0.780   7.371
 5948TIP3    H239404   6.238   0.844   7.286
 5949TIP3   OH239405   2.262   0.972   1.862
 5949TIP3    H139406   2.296   0.884   1.877
 5949TIP3    H239407   2.171   0.967   1.889
 5950TIP3   OH239408   6.450   4.061   1.561
 5950TIP3    H139409   6.448   4.080   1.467
 5950TIP3    H239410   6.480   3.970   1.567
 5951TIP3   OH239411   0.089   3.328   6.247
 5951TIP3    H139412   0.008   3.375   6.269
 5951TIP3    H239413   0.153   3.398   6.231
 5952TIP3   OH239414   0.895   6.103   6.562
 5952TIP3    H139415   0.934   6.027   6.518
 5952TIP3    H239416   0.819   6.068   6.608
 5953TIP3   OH239417   6.212   2.645   8.266
 5953TIP3    H139418   6.164   2.723   8.237
 5953TIP3    H239419   6.160   2.610   8.339
 5954TIP3   OH239420   3.737   0.297   1.072
 5954TIP3    H139421   3.795   0.232   1.111
 5954TIP3    H239422   3.765   0.380   1.110
 5955TIP3   OH239423   6.613   4.149   8.271
 5955TIP3    H139424   6.634   4.240   8.248
 5955TIP3    H239425   6.599   4.106   8.187
 5956TIP3   OH239426   3.199   2.833   1.050
 5956TIP3    H139427   3.132   2.900   1.038
 5956TIP3    H239428   3.196   2.812   1.143
 5957TIP3   OH239429   5.542   2.315   0.464
 5957TIP3    H139430   5.472   2.308   0.399
 5957TIP3    H239431   5.601   2.381   0.428
 5958TIP3   OH239432   6.516   2.516   0.125
 5958TIP3    H139433   6.575   2.586   0.153
 5958TIP3    H239434   6.432   2.540   0.163
 5959TIP3   OH239435   6.310   2.320   7.945
 5959TIP3    H139436   6.228   2.271   7.940
 5959TIP3    H239437   6.325   2.331   8.039
 5960TIP3   OH239438   6.382   2.516   2.138
 5960TIP3    H139439   6.373   2.425   2.163
 5960TIP3    H239440   6.477   2.532   2.137
 5961TIP3   OH239441   2.237   3.227   7.253
 5961TIP3    H139442   2.215   3.139   7.221
 5961TIP3    H239443   2.160   3.280   7.231
 5962TIP3   OH239444   2.614   0.559   7.865
 5962TIP3    H139445   2.670   0.508   7.806
 5962TIP3    H239446   2.674   0.592   7.932
 5963TIP3   OH239447   6.221   1.315   7.411
 5963TIP3    H139448   6.282   1.248   7.377
 5963TIP3    H239449   6.268   1.354   7.484
 5964TIP3   OH239450   1.077   0.011   7.983
 5964TIP3    H139451   1.069  -0.031   8.069
 5964TIP3    H239452   1.168  -0.004   7.957
 5965TIP3   OH239453   2.681   2.862   0.835
 5965TIP3    H139454   2.689   2.871   0.740
 5965TIP3    H239455   2.662   2.951   0.865
 5966TIP3   OH239456   5.563   6.159   8.215
 5966TIP3    H139457   5.643   6.107   8.227
 5966TIP3    H239458   5.571   6.230   8.279
 5967TIP3   OH239459   1.415   2.997   0.093
 5967TIP3    H139460   1.502   2.959   0.080
 5967TIP3    H239461   1.427   3.061   0.163
 5968TIP3   OH239462   2.064   2.685   8.591
 5968TIP3    H139463   2.148   2.691   8.546
 5968TIP3    H239464   2.026   2.772   8.584
 5969TIP3   OH239465   5.178   2.354   6.536
 5969TIP3    H139466   5.113   2.425   6.535
 5969TIP3    H239467   5.219   2.359   6.450
 5970TIP3   OH239468   4.103   3.805   7.857
 5970TIP3    H139469   4.140   3.716   7.852
 5970TIP3    H239470   4.009   3.792   7.844
 5971TIP3   OH239471   5.579   0.484   6.910
 5971TIP3    H139472   5.632   0.469   6.832
 5971TIP3    H239473   5.579   0.400   6.955
 5972TIP3   OH239474   6.501   6.441   8.296
 5972TIP3    H139475   6.469   6.356   8.266
 5972TIP3    H239476   6.465   6.504   8.234
 5973TIP3   OH239477   6.286   0.406   7.759
 5973TIP3    H139478   6.198   0.378   7.733
 5973TIP3    H239479   6.320   0.452   7.682
 5974TIP3   OH239480   4.196   2.743   8.056
 5974TIP3    H139481   4.253   2.812   8.022
 5974TIP3    H239482   4.252   2.667   8.064
 5975TIP3   OH239483   4.962   6.397   8.668
 5975TIP3    H139484   4.938   6.325   8.727
 5975TIP3    H239485   4.972   6.473   8.726
 5976TIP3   OH239486   4.659   1.166   8.092
 5976TIP3    H139487   4.684   1.258   8.105
 5976TIP3    H239488   4.740   1.117   8.108
 5977TIP3   OH239489   5.906   6.533   6.367
 5977TIP3    H139490   5.851   6.572   6.299
 5977TIP3    H239491   5.951   6.608   6.407
 5978TIP3   OH239492   0.393   5.934   0.706
 5978TIP3    H139493   0.303   5.904   0.716
 5978TIP3    H239494   0.440   5.859   0.669
 5979TIP3   OH239495   6.507   2.254   1.143
 5979TIP3    H139496   6.415   2.231   1.127
 5979TIP3    H239497   6.550   2.242   1.058
 5980TIP3   OH239498   4.379   0.408   7.568
 5980TIP3    H139499   4.298   0.423   7.617
 5980TIP3    H239500   4.361   0.330   7.515
 5981TIP3   OH239501   0.285   2.764   0.886
 5981TIP3    H139502   0.204   2.736   0.927
 5981TIP3    H239503   0.349   2.768   0.958
 5982TIP3   OH239504   4.818   2.826   7.317
 5982TIP3    H139505   4.749   2.865   7.264
 5982TIP3    H239506   4.780   2.743   7.348
 5983TIP3   OH239507   0.462   0.199   6.939
 5983TIP3    H139508   0.457   0.294   6.937
 5983TIP3    H239509   0.479   0.173   6.849
 5984TIP3   OH239510   0.518   2.404   1.533
 5984TIP3    H139511   0.433   2.359   1.533
 5984TIP3    H239512   0.502   2.485   1.581
 5985TIP3   OH239513   2.195   5.112   0.346
 5985TIP3    H139514   2.247   5.104   0.425
 5985TIP3    H239515   2.176   5.206   0.339
 5986TIP3   OH239516   6.210   0.910   2.179
 5986TIP3    H139517   6.274   0.862   2.127
 5986TIP3    H239518   6.155   0.843   2.220
 5987TIP3   OH239519   0.677   4.128   1.241
 5987TIP3    H139520   0.613   4.181   1.194
 5987TIP3    H239521   0.714   4.188   1.306
 5988TIP3   OH239522   4.033   1.588   0.140
 5988TIP3    H139523   4.044   1.677   0.174
 5988TIP3    H239524   3.939   1.570   0.152
 5989TIP3   OH239525   5.049   1.938   1.263
 5989TIP3    H139526   5.085   2.024   1.242
 5989TIP3    H239527   5.032   1.942   1.357
 5990TIP3   OH239528   4.541   5.270   0.706
 5990TIP3    H139529   4.499   5.198   0.752
 5990TIP3    H239530   4.552   5.239   0.616
 5991TIP3   OH239531   2.502   4.509   0.221
 5991TIP3    H139532   2.494   4.420   0.186
 5991TIP3    H239533   2.572   4.503   0.286
 5992TIP3   OH239534   2.298   6.228   1.958
 5992TIP3    H139535   2.242   6.296   1.995
 5992TIP3    H239536   2.386   6.251   1.987
 5993TIP3   OH239537   1.966   4.544   7.795
 5993TIP3    H139538   1.888   4.597   7.813
 5993TIP3    H239539   1.934   4.454   7.789
 5994TIP3   OH239540   0.347   3.327   6.806
 5994TIP3    H139541   0.432   3.285   6.822
 5994TIP3    H239542   0.324   3.301   6.717
 5995TIP3   OH239543   1.765   6.089   7.142
 5995TIP3    H139544   1.752   5.996   7.159
 5995TIP3    H239545   1.853   6.108   7.176
 5996TIP3   OH239546   3.425   6.305   6.845
 5996TIP3    H139547   3.416   6.220   6.888
 5996TIP3    H239548   3.519   6.317   6.836
 5997TIP3   OH239549   0.533   3.300   7.769
 5997TIP3    H139550   0.616   3.304   7.721
 5997TIP3    H239551   0.477   3.363   7.724
 5998TIP3   OH239552   1.052   2.380   0.949
 5998TIP3    H139553   1.103   2.457   0.971
 5998TIP3    H239554   0.995   2.366   1.024
 5999TIP3   OH239555   5.039   1.205   6.149
 5999TIP3    H139556   4.977   1.262   6.103
 5999TIP3    H239557   5.121   1.254   6.149
 6000TIP3   OH239558   0.349   3.228   8.256
 6000TIP3    H139559   0.401   3.193   8.184
 6000TIP3    H239560   0.373   3.320   8.261
 6001TIP3   OH239561   3.425   3.822   8.754
 6001TIP3    H139562   3.518   3.798   8.749
 6001TIP3    H239563   3.380   3.757   8.700
 6002TIP3   OH239564   5.731   4.559   7.280
 6002TIP3    H139565   5.677   4.543   7.203
 6002TIP3    H239566   5.796   4.623   7.251
 6003TIP3   OH239567   4.568   3.094   1.307
 6003TIP3    H139568   4.480   3.089   1.346
 6003TIP3    H239569   4.619   3.145   1.369
 6004TIP3   OH239570   3.050   3.388   1.519
 6004TIP3    H139571   3.043   3.310   1.575
 6004TIP3    H239572   2.963   3.426   1.519
 6005TIP3   OH239573   5.311   3.781   1.249
 6005TIP3    H139574   5.346   3.823   1.171
 6005TIP3    H239575   5.266   3.851   1.296
 6006TIP3   OH239576   2.002   2.028   8.720
 6006TIP3    H139577   1.941   2.081   8.669
 6006TIP3    H239578   2.045   1.971   8.656
 6007TIP3   OH239579   1.992   5.904   7.591
 6007TIP3    H139580   1.935   5.832   7.566
 6007TIP3    H239581   1.981   5.912   7.686
 6008TIP3   OH239582   4.786   1.278   1.268
 6008TIP3    H139583   4.773   1.348   1.205
 6008TIP3    H239584   4.709   1.222   1.259
 6009TIP3   OH239585   6.081   4.272   7.438
 6009TIP3    H139586   6.011   4.223   7.394
 6009TIP3    H239587   6.160   4.221   7.421
 6010TIP3   OH239588   0.369   4.742   6.444
 6010TIP3    H139589   0.347   4.788   6.364
 6010TIP3    H239590   0.462   4.762   6.459
 6011TIP3   OH239591   6.099   6.541   1.365
 6011TIP3    H139592   6.186   6.581   1.368
 6011TIP3    H239593   6.112   6.458   1.318
 6012TIP3   OH239594   0.708   3.771   7.776
 6012TIP3    H139595   0.688   3.863   7.758
 6012TIP3    H239596   0.677   3.724   7.698
 6013TIP3   OH239597   0.754   4.716   0.724
 6013TIP3    H139598   0.733   4.635   0.677
 6013TIP3    H239599   0.760   4.782   0.655
 6014TIP3   OH239600   5.376   3.372   6.896
 6014TIP3    H139601   5.413   3.367   6.808
 6014TIP3    H239602   5.357   3.282   6.921
 6015TIP3   OH239603   1.790   1.728   8.196
 6015TIP3    H139604   1.797   1.724   8.100
 6015TIP3    H239605   1.876   1.699   8.227
 6016TIP3   OH239606   3.578   3.133   1.027
 6016TIP3    H139607   3.558   3.185   0.949
 6016TIP3    H239608   3.639   3.188   1.078
 6017TIP3   OH239609   5.575   4.202   8.385
 6017TIP3    H139610   5.518   4.248   8.446
 6017TIP3    H239611   5.639   4.268   8.357
 6018TIP3   OH239612   1.656   3.981   2.227
 6018TIP3    H139613   1.572   4.015   2.197
 6018TIP3    H239614   1.659   3.892   2.193
 6019TIP3   OH239615   5.648   2.392   1.820
 6019TIP3    H139616   5.632   2.412   1.912
 6019TIP3    H239617   5.582   2.444   1.773
 6020TIP3   OH239618   2.731   6.413   7.538
 6020TIP3    H139619   2.660   6.450   7.487
 6020TIP3    H239620   2.725   6.319   7.523
 6021TIP3   OH239621   1.812   3.584   8.820
 6021TIP3    H139622   1.794   3.613   8.910
 6021TIP3    H239623   1.792   3.661   8.766
 6022TIP3   OH239624   2.913   2.429   1.400
 6022TIP3    H139625   2.982   2.450   1.463
 6022TIP3    H239626   2.844   2.389   1.452
 6023TIP3   OH239627   0.533   1.861   0.710
 6023TIP3    H139628   0.448   1.885   0.746
 6023TIP3    H239629   0.548   1.924   0.639
 6024TIP3   OH239630   4.924   5.083   7.460
 6024TIP3    H139631   4.981   5.159   7.469
 6024TIP3    H239632   4.856   5.096   7.526
 6025TIP3   OH239633   2.306   5.876   7.608
 6025TIP3    H139634   2.278   5.828   7.686
 6025TIP3    H239635   2.390   5.837   7.585
 6026TIP3   OH239636   3.382   3.249   1.249
 6026TIP3    H139637   3.406   3.193   1.176
 6026TIP3    H239638   3.408   3.337   1.222
 6027TIP3   OH239639   5.750   0.654   7.337
 6027TIP3    H139640   5.730   0.658   7.244
 6027TIP3    H239641   5.702   0.578   7.369
 6028TIP3   OH239642   5.280   2.052   1.549
 6028TIP3    H139643   5.366   2.013   1.531
 6028TIP3    H239644   5.291   2.145   1.530
 6029TIP3   OH239645   5.991   4.382   1.345
 6029TIP3    H139646   6.082   4.358   1.324
 6029TIP3    H239647   5.938   4.324   1.290
 6030TIP3   OH239648   2.916   0.270   8.265
 6030TIP3    H139649   2.878   0.341   8.214
 6030TIP3    H239650   3.010   0.274   8.247
 6031TIP3   OH239651   1.055   4.979   7.675
 6031TIP3    H139652   1.126   5.044   7.677
 6031TIP3    H239653   0.989   5.018   7.617
 6032TIP3   OH239654   0.199   2.072   7.980
 6032TIP3    H139655   0.239   2.050   8.063
 6032TIP3    H239656   0.252   2.144   7.945
 6033TIP3   OH239657   4.974   1.578   7.030
 6033TIP3    H139658   4.950   1.492   6.995
 6033TIP3    H239659   5.057   1.563   7.075
 6034TIP3   OH239660   4.904   5.516   1.246
 6034TIP3    H139661   4.865   5.441   1.290
 6034TIP3    H239662   4.966   5.551   1.310
 6035TIP3   OH239663   5.300   5.870   1.175
 6035TIP3    H139664   5.384   5.825   1.177
 6035TIP3    H239665   5.322   5.962   1.162
 6036TIP3   OH239666   6.514   1.917   7.993
 6036TIP3    H139667   6.601   1.950   8.018
 6036TIP3    H239668   6.531   1.832   7.952
 6037TIP3   OH239669   4.563   4.484   8.540
 6037TIP3    H139670   4.576   4.514   8.450
 6037TIP3    H239671   4.469   4.470   8.547
 6038TIP3   OH239672   0.218   3.013   8.544
 6038TIP3    H139673   0.290   3.075   8.559
 6038TIP3    H239674   0.244   2.965   8.465
 6039TIP3   OH239675   2.845   4.278   7.229
 6039TIP3    H139676   2.920   4.237   7.272
 6039TIP3    H239677   2.883   4.335   7.163
 6040TIP3   OH239678   5.308   6.559   1.960
 6040TIP3    H139679   5.308   6.634   2.019
 6040TIP3    H239680   5.221   6.520   1.971
 6041TIP3   OH239681   4.924   3.846   1.257
 6041TIP3    H139682   4.907   3.751   1.259
 6041TIP3    H239683   5.001   3.857   1.313
 6042TIP3   OH239684   4.375   3.992   8.595
 6042TIP3    H139685   4.394   4.080   8.629
 6042TIP3    H239686   4.456   3.943   8.608
 6043TIP3   OH239687   4.255   1.422   0.195
 6043TIP3    H139688   4.192   1.486   0.163
 6043TIP3    H239689   4.238   1.416   0.289
 6044TIP3   OH239690   4.189   3.445   8.821
 6044TIP3    H139691   4.104   3.461   8.862
 6044TIP3    H239692   4.169   3.419   8.731
 6045TIP3   OH239693   4.308   4.225   7.106
 6045TIP3    H139694   4.252   4.155   7.138
 6045TIP3    H239695   4.288   4.300   7.162
 6046TIP3   OH239696   4.561   2.006   0.873
 6046TIP3    H139697   4.490   2.064   0.844
 6046TIP3    H239698   4.640   2.044   0.833
 6047TIP3   OH239699   1.254   1.136   1.535
 6047TIP3    H139700   1.330   1.136   1.478
 6047TIP3    H239701   1.220   1.047   1.530
 6048TIP3   OH239702   3.938   4.396   0.374
 6048TIP3    H139703   3.896   4.461   0.429
 6048TIP3    H239704   3.886   4.393   0.294
 6049TIP3   OH239705   5.438   5.483   1.015
 6049TIP3    H139706   5.507   5.469   1.080
 6049TIP3    H239707   5.356   5.468   1.062
 6050TIP3   OH239708   2.684   4.277   0.115
 6050TIP3    H139709   2.635   4.313   0.040
 6050TIP3    H239710   2.637   4.196   0.137
 6051TIP3   OH239711   2.812   4.568   8.368
 6051TIP3    H139712   2.718   4.585   8.376
 6051TIP3    H239713   2.840   4.544   8.456
 6052TIP3   OH239714   3.773   3.490   0.831
 6052TIP3    H139715   3.757   3.453   0.918
 6052TIP3    H239716   3.745   3.581   0.838
 6053TIP3   OH239717   5.920   1.352   8.166
 6053TIP3    H139718   5.895   1.374   8.076
 6053TIP3    H239719   5.861   1.404   8.221
 6054TIP3   OH239720   6.326   0.557   8.148
 6054TIP3    H139721   6.412   0.559   8.107
 6054TIP3    H239722   6.270   0.609   8.090
 6055TIP3   OH239723   2.323   1.610   6.757
 6055TIP3    H139724   2.288   1.683   6.809
 6055TIP3    H239725   2.268   1.536   6.779
 6056TIP3   OH239726   3.726   2.845   7.383
 6056TIP3    H139727   3.642   2.885   7.363
 6056TIP3    H239728   3.712   2.798   7.465
 6057TIP3   OH239729   6.560   0.397   7.331
 6057TIP3    H139730   6.608   0.334   7.276
 6057TIP3    H239731   6.540   0.469   7.272
 6058TIP3   OH239732   3.895   4.744   1.479
 6058TIP3    H139733   3.853   4.759   1.564
 6058TIP3    H239734   3.954   4.819   1.468
 6059TIP3   OH239735   4.975   1.215   1.817
 6059TIP3    H139736   5.007   1.305   1.820
 6059TIP3    H239737   4.925   1.210   1.735
 6060TIP3   OH239738   1.826   4.716   1.085
 6060TIP3    H139739   1.806   4.805   1.113
 6060TIP3    H239740   1.895   4.686   1.145
 6061TIP3   OH239741   6.746   5.542   7.065
 6061TIP3    H139742   6.686   5.610   7.096
 6061TIP3    H239743   6.820   5.545   7.126
 6062TIP3   OH239744   1.346   3.572   1.649
 6062TIP3    H139745   1.283   3.506   1.676
 6062TIP3    H239746   1.342   3.639   1.718
 6063TIP3   OH239747   1.348   6.798   7.930
 6063TIP3    H139748   1.372   6.873   7.984
 6063TIP3    H239749   1.425   6.742   7.931
 6064TIP3   OH239750   0.740   3.059   6.973
 6064TIP3    H139751   0.808   3.015   7.023
 6064TIP3    H239752   0.675   2.990   6.956
 6065TIP3   OH239753   2.613   1.767   7.811
 6065TIP3    H139754   2.667   1.839   7.844
 6065TIP3    H239755   2.615   1.777   7.716
 6066TIP3   OH239756   4.175   4.249   0.825
 6066TIP3    H139757   4.162   4.154   0.823
 6066TIP3    H239758   4.115   4.282   0.758
 6067TIP3   OH239759   0.131   2.459   8.725
 6067TIP3    H139760   0.180   2.507   8.792
 6067TIP3    H239761   0.051   2.430   8.769
 6068TIP3   OH239762   1.393   6.162   0.483
 6068TIP3    H139763   1.433   6.244   0.512
 6068TIP3    H239764   1.328   6.189   0.418
 6069TIP3   OH239765   2.464   2.116   6.937
 6069TIP3    H139766   2.547   2.102   6.983
 6069TIP3    H239767   2.479   2.080   6.849
 6070TIP3   OH239768   6.336   3.446   0.534
 6070TIP3    H139769   6.277   3.507   0.489
 6070TIP3    H239770   6.424   3.480   0.515
 6071TIP3   OH239771   6.346   2.409   7.336
 6071TIP3    H139772   6.413   2.414   7.267
 6071TIP3    H239773   6.286   2.341   7.307
 6072TIP3   OH239774   4.023   0.566   7.416
 6072TIP3    H139775   3.996   0.475   7.422
 6072TIP3    H239776   3.946   0.612   7.384
 6073TIP3   OH239777   0.726   1.684   0.508
 6073TIP3    H139778   0.677   1.602   0.516
 6073TIP3    H239779   0.766   1.680   0.422
 6074TIP3   OH239780   6.781   3.210   0.863
 6074TIP3    H139781   6.842   3.262   0.811
 6074TIP3    H239782   6.800   3.120   0.839
 6075TIP3   OH239783   5.118   4.003   7.177
 6075TIP3    H139784   5.140   3.910   7.171
 6075TIP3    H239785   5.034   4.006   7.222
 6076TIP3   OH239786   1.776   2.189   0.777
 6076TIP3    H139787   1.720   2.230   0.712
 6076TIP3    H239788   1.726   2.193   0.859
 6077TIP3   OH239789   1.544   3.170   8.052
 6077TIP3    H139790   1.505   3.132   7.973
 6077TIP3    H239791   1.620   3.220   8.020
 6078TIP3   OH239792   2.576   5.823   7.602
 6078TIP3    H139793   2.585   5.773   7.683
 6078TIP3    H239794   2.632   5.778   7.539
 6079TIP3   OH239795   3.417   6.412   1.458
 6079TIP3    H139796   3.358   6.451   1.393
 6079TIP3    H239797   3.372   6.426   1.542
 6080TIP3   OH239798   1.168   1.700   0.574
 6080TIP3    H139799   1.159   1.631   0.508
 6080TIP3    H239800   1.080   1.712   0.609
 6081TIP3   OH239801   0.624   0.931   6.743
 6081TIP3    H139802   0.716   0.912   6.723
 6081TIP3    H239803   0.596   0.989   6.673
 6082TIP3   OH239804   4.989   0.753   7.532
 6082TIP3    H139805   4.924   0.687   7.557
 6082TIP3    H239806   5.064   0.736   7.589
 6083TIP3   OH239807   1.289   1.279   8.480
 6083TIP3    H139808   1.243   1.226   8.545
 6083TIP3    H239809   1.229   1.284   8.406
 6084TIP3   OH239810   5.410   3.791   8.610
 6084TIP3    H139811   5.427   3.697   8.605
 6084TIP3    H239812   5.422   3.813   8.703
 6085TIP3   OH239813   3.191   6.551   8.654
 6085TIP3    H139814   3.275   6.516   8.682
 6085TIP3    H239815   3.176   6.510   8.568
 6086TIP3   OH239816   1.175   5.917   0.985
 6086TIP3    H139817   1.211   5.828   0.984
 6086TIP3    H239818   1.109   5.916   1.055
 6087TIP3   OH239819   4.555   3.429   7.869
 6087TIP3    H139820   4.491   3.365   7.899
 6087TIP3    H239821   4.619   3.436   7.940
 6088TIP3   OH239822   4.741   5.530   0.170
 6088TIP3    H139823   4.672   5.520   0.235
 6088TIP3    H239824   4.750   5.625   0.160
 6089TIP3   OH239825   1.653   5.818   7.152
 6089TIP3    H139826   1.729   5.772   7.190
 6089TIP3    H239827   1.618   5.757   7.088
 6090TIP3   OH239828   3.059   1.234   0.926
 6090TIP3    H139829   3.067   1.138   0.924
 6090TIP3    H239830   2.995   1.251   0.995
 6091TIP3   OH239831   0.729   2.794   8.568
 6091TIP3    H139832   0.672   2.867   8.544
 6091TIP3    H239833   0.697   2.767   8.655
 6092TIP3   OH239834   1.509   0.787   1.439
 6092TIP3    H139835   1.429   0.796   1.491
 6092TIP3    H239836   1.492   0.836   1.359
 6093TIP3   OH239837   3.829   4.461   0.117
 6093TIP3    H139838   3.805   4.411   0.039
 6093TIP3    H239839   3.849   4.548   0.084
 6094TIP3   OH239840   0.065   4.889   1.390
 6094TIP3    H139841   0.011   4.957   1.348
 6094TIP3    H239842   0.153   4.904   1.355
 6095TIP3   OH239843   2.091   3.849   1.808
 6095TIP3    H139844   2.049   3.927   1.846
 6095TIP3    H239845   2.130   3.804   1.883
 6096TIP3   OH239846   1.979   4.994   0.495
 6096TIP3    H139847   2.064   5.009   0.452
 6096TIP3    H239848   1.995   4.921   0.555
 6097TIP3   OH239849   3.518   1.808   0.796
 6097TIP3    H139850   3.484   1.756   0.869
 6097TIP3    H239851   3.463   1.784   0.721
 6098TIP3   OH239852   4.493   1.625   6.725
 6098TIP3    H139853   4.475   1.560   6.792
 6098TIP3    H239854   4.411   1.631   6.675
 6099TIP3   OH239855   0.710   0.995   7.078
 6099TIP3    H139856   0.705   1.089   7.059
 6099TIP3    H239857   0.803   0.973   7.070
 6100TIP3   OH239858   1.399   2.857   2.127
 6100TIP3    H139859   1.473   2.865   2.188
 6100TIP3    H239860   1.411   2.771   2.087
 6101TIP3   OH239861   6.674   5.016   7.310
 6101TIP3    H139862   6.610   5.020   7.382
 6101TIP3    H239863   6.631   4.962   7.244
 6102TIP3   OH239864   1.647   2.650   8.024
 6102TIP3    H139865   1.564   2.682   7.990
 6102TIP3    H239866   1.712   2.711   7.988
 6103TIP3   OH239867   6.056   6.544   0.185
 6103TIP3    H139868   5.977   6.538   0.131
 6103TIP3    H239869   6.127   6.520   0.125
 6104TIP3   OH239870   3.141   1.415   6.943
 6104TIP3    H139871   3.237   1.420   6.941
 6104TIP3    H239872   3.115   1.423   6.851
 6105TIP3   OH239873   0.920   2.322   6.261
 6105TIP3    H139874   1.008   2.285   6.254
 6105TIP3    H239875   0.911   2.378   6.184
 6106TIP3   OH239876   2.472   5.391   1.404
 6106TIP3    H139877   2.442   5.302   1.423
 6106TIP3    H239878   2.563   5.380   1.376
 6107TIP3   OH239879   0.425   5.166   8.250
 6107TIP3    H139880   0.420   5.258   8.276
 6107TIP3    H239881   0.397   5.165   8.159
 6108TIP3   OH239882   2.951   4.648   1.228
 6108TIP3    H139883   2.965   4.572   1.285
 6108TIP3    H239884   3.011   4.714   1.262
 6109TIP3   OH239885   6.225   0.040   8.273
 6109TIP3    H139886   6.221   0.129   8.239
 6109TIP3    H239887   6.307   0.036   8.322
 6110TIP3   OH239888   4.571   2.198   1.973
 6110TIP3    H139889   4.513   2.175   2.046
 6110TIP3    H239890   4.519   2.258   1.919
 6111TIP3   OH239891   3.039   0.852   1.205
 6111TIP3    H139892   3.116   0.889   1.162
 6111TIP3    H239893   3.071   0.774   1.250
 6112TIP3   OH239894   1.834   0.397   0.682
 6112TIP3    H139895   1.827   0.335   0.755
 6112TIP3    H239896   1.765   0.461   0.700
 6113TIP3   OH239897   1.500   4.951   0.231
 6113TIP3    H139898   1.533   5.032   0.268
 6113TIP3    H239899   1.406   4.951   0.251
 6114TIP3   OH239900   2.089   0.414   2.161
 6114TIP3    H139901   2.043   0.352   2.105
 6114TIP3    H239902   2.181   0.389   2.154
 6115TIP3   OH239903   0.151   2.873   8.764
 6115TIP3    H139904   0.176   2.912   8.680
 6115TIP3    H239905   0.059   2.848   8.752
 6116TIP3   OH239906   6.002   2.273   8.581
 6116TIP3    H139907   5.931   2.298   8.640
 6116TIP3    H239908   6.060   2.350   8.579
 6117TIP3   OH239909   4.561   6.033   6.369
 6117TIP3    H139910   4.630   6.014   6.432
 6117TIP3    H239911   4.480   6.004   6.412
 6118TIP3   OH239912   0.776   2.554   8.018
 6118TIP3    H139913   0.775   2.493   7.944
 6118TIP3    H239914   0.868   2.562   8.041
 6119TIP3   OH239915   2.464   0.569   0.542
 6119TIP3    H139916   2.469   0.526   0.628
 6119TIP3    H239917   2.386   0.625   0.548
 6120TIP3   OH239918   1.499   1.227   6.955
 6120TIP3    H139919   1.530   1.243   6.866
 6120TIP3    H239920   1.404   1.216   6.946
 6121TIP3   OH239921   0.986   3.396   8.559
 6121TIP3    H139922   0.898   3.360   8.572
 6121TIP3    H239923   0.976   3.490   8.571
 6122TIP3   OH239924   5.741   2.397   0.096
 6122TIP3    H139925   5.753   2.377   0.003
 6122TIP3    H239926   5.729   2.492   0.099
 6123TIP3   OH239927   1.128   2.079   6.564
 6123TIP3    H139928   1.053   2.139   6.563
 6123TIP3    H239929   1.203   2.135   6.583
 6124TIP3   OH239930   1.430   2.888   7.010
 6124TIP3    H139931   1.494   2.848   7.069
 6124TIP3    H239932   1.416   2.822   6.942
 6125TIP3   OH239933   2.308   0.321   8.706
 6125TIP3    H139934   2.329   0.291   8.794
 6125TIP3    H239935   2.215   0.341   8.708
 6126TIP3   OH239936   3.706   6.009   7.678
 6126TIP3    H139937   3.719   5.952   7.754
 6126TIP3    H239938   3.629   6.061   7.700
 6127TIP3   OH239939   6.334   1.669   0.661
 6127TIP3    H139940   6.334   1.691   0.568
 6127TIP3    H239941   6.250   1.703   0.694
 6128TIP3   OH239942   4.330   5.501   0.493
 6128TIP3    H139943   4.238   5.505   0.520
 6128TIP3    H239944   4.341   5.413   0.458
 6129TIP3   OH239945   2.397   1.193   0.141
 6129TIP3    H139946   2.366   1.105   0.160
 6129TIP3    H239947   2.475   1.181   0.088
 6130TIP3   OH239948   5.640   3.039   7.078
 6130TIP3    H139949   5.723   2.991   7.080
 6130TIP3    H239950   5.665   3.128   7.054
 6131TIP3   OH239951   0.032   1.636   8.100
 6131TIP3    H139952   0.059   1.714   8.051
 6131TIP3    H239953  -0.058   1.654   8.125
 6132TIP3   OH239954   0.004   3.136   8.084
 6132TIP3    H139955   0.085   3.145   8.035
 6132TIP3    H239956   0.019   3.185   8.165
 6133TIP3   OH239957   3.551   6.056   1.023
 6133TIP3    H139958   3.464   6.032   1.055
 6133TIP3    H239959   3.598   5.973   1.017
 6134TIP3   OH239960   6.233   0.184   7.924
 6134TIP3    H139961   6.252   0.264   7.875
 6134TIP3    H239962   6.181   0.213   7.999
 6135TIP3   OH239963   5.764   0.137   0.380
 6135TIP3    H139964   5.715   0.054   0.372
 6135TIP3    H239965   5.712   0.188   0.443
 6136TIP3   OH239966   5.799   6.449   1.896
 6136TIP3    H139967   5.722   6.400   1.925
 6136TIP3    H239968   5.788   6.457   1.801
 6137TIP3   OH239969   1.503   4.275   8.637
 6137TIP3    H139970   1.454   4.257   8.717
 6137TIP3    H239971   1.590   4.302   8.668
 6138TIP3   OH239972   4.162   2.416   8.179
 6138TIP3    H139973   4.155   2.411   8.275
 6138TIP3    H239974   4.106   2.491   8.155
 6139TIP3   OH239975   1.098   6.151   0.306
 6139TIP3    H139976   1.076   6.239   0.275
 6139TIP3    H239977   1.103   6.098   0.226
 6140TIP3   OH239978   0.780   1.360   7.984
 6140TIP3    H139979   0.864   1.321   8.007
 6140TIP3    H239980   0.787   1.451   8.013
 6141TIP3   OH239981   0.969   2.994   8.500
 6141TIP3    H139982   1.007   2.984   8.587
 6141TIP3    H239983   1.022   3.062   8.458
 6142TIP3   OH239984   6.293   0.250   6.618
 6142TIP3    H139985   6.354   0.248   6.692
 6142TIP3    H239986   6.227   0.185   6.639
 6143TIP3   OH239987   5.616   1.923   2.610
 6143TIP3    H139988   5.650   1.862   2.546
 6143TIP3    H239989   5.657   2.007   2.588
 6144TIP3   OH239990   0.249   0.986   6.706
 6144TIP3    H139991   0.323   1.040   6.734
 6144TIP3    H239992   0.278   0.945   6.624
 6145TIP3   OH239993   4.361   0.045   8.239
 6145TIP3    H139994   4.354   0.036   8.144
 6145TIP3    H239995   4.347  -0.043   8.273
 6146TIP3   OH239996   5.093   6.035   0.284
 6146TIP3    H139997   5.165   6.005   0.228
 6146TIP3    H239998   5.079   5.962   0.345
 6147TIP3   OH239999   2.580   3.287   0.419
 6147TIP3    H140000   2.676   3.287   0.422
 6147TIP3    H240001   2.556   3.200   0.388
 6148TIP3   OH240002   5.086   5.389   7.743
 6148TIP3    H140003   5.041   5.319   7.790
 6148TIP3    H240004   5.142   5.431   7.809
 6149TIP3   OH240005   2.583   1.621   8.352
 6149TIP3    H140006   2.563   1.540   8.306
 6149TIP3    H240007   2.612   1.681   8.284
 6150TIP3   OH240008   2.228   0.249   0.169
 6150TIP3    H140009   2.254   0.157   0.165
 6150TIP3    H240010   2.242   0.275   0.260
 6151TIP3   OH240011   4.203   0.966   0.749
 6151TIP3    H140012   4.186   1.047   0.797
 6151TIP3    H240013   4.297   0.966   0.733
 6152TIP3   OH240014   6.478   0.441   0.920
 6152TIP3    H140015   6.437   0.355   0.913
 6152TIP3    H240016   6.551   0.439   0.859
 6153TIP3   OH240017   2.911   2.614   7.652
 6153TIP3    H140018   2.889   2.596   7.744
 6153TIP3    H240019   2.871   2.700   7.635
 6154TIP3   OH240020   1.775   1.607   8.748
 6154TIP3    H140021   1.684   1.619   8.775
 6154TIP3    H240022   1.797   1.689   8.704
 6155TIP3   OH240023   4.051   2.392   0.406
 6155TIP3    H140024   4.061   2.359   0.317
 6155TIP3    H240025   4.097   2.476   0.405
 6156TIP3   OH240026   5.960   0.990   0.701
 6156TIP3    H140027   5.978   0.897   0.708
 6156TIP3    H240028   5.965   1.009   0.607
 6157TIP3   OH240029   2.063   5.313   7.575
 6157TIP3    H140030   2.039   5.287   7.486
 6157TIP3    H240031   2.117   5.391   7.564
 6158TIP3   OH240032   0.536   6.100   7.014
 6158TIP3    H140033   0.611   6.153   7.041
 6158TIP3    H240034   0.514   6.133   6.927
 6159TIP3   OH240035   3.098   6.304   1.275
 6159TIP3    H140036   3.036   6.345   1.335
 6159TIP3    H240037   3.105   6.365   1.202
 6160TIP3   OH240038   2.920   1.062   7.734
 6160TIP3    H140039   2.898   1.106   7.652
 6160TIP3    H240040   2.872   0.979   7.730
 6161TIP3   OH240041   4.125   4.765   6.583
 6161TIP3    H140042   4.144   4.856   6.606
 6161TIP3    H240043   4.208   4.720   6.596
 6162TIP3   OH240044   2.160   0.772   6.760
 6162TIP3    H140045   2.128   0.822   6.685
 6162TIP3    H240046   2.201   0.694   6.722
 6163TIP3   OH240047   5.132   2.846   1.163
 6163TIP3    H140048   5.113   2.840   1.257
 6163TIP3    H240049   5.187   2.924   1.155
 6164TIP3   OH240050   2.008   0.629   8.576
 6164TIP3    H140051   1.996   0.676   8.659
 6164TIP3    H240052   1.948   0.672   8.515
 6165TIP3   OH240053   1.806   2.552   7.353
 6165TIP3    H140054   1.748   2.489   7.311
 6165TIP3    H240055   1.881   2.500   7.382
 6166TIP3   OH240056   3.842   5.111   8.387
 6166TIP3    H140057   3.766   5.058   8.412
 6166TIP3    H240058   3.808   5.199   8.376
 6167TIP3   OH240059   1.999   2.022   7.885
 6167TIP3    H140060   2.023   1.990   7.971
 6167TIP3    H240061   1.981   2.115   7.898
 6168TIP3   OH240062   2.372   0.205   6.221
 6168TIP3    H140063   2.344   0.247   6.303
 6168TIP3    H240064   2.314   0.242   6.155
 6169TIP3   OH240065   3.875   5.699   8.668
 6169TIP3    H140066   3.921   5.699   8.584
 6169TIP3    H240067   3.826   5.617   8.668
 6170TIP3   OH240068   2.542   6.154   0.221
 6170TIP3    H140069   2.512   6.186   0.136
 6170TIP3    H240070   2.549   6.233   0.275
 6171TIP3   OH240071   5.771   0.417   1.572
 6171TIP3    H140072   5.807   0.379   1.492
 6171TIP3    H240073   5.774   0.346   1.636
 6172TIP3   OH240074   6.734   0.903   8.362
 6172TIP3    H140075   6.807   0.852   8.328
 6172TIP3    H240076   6.668   0.838   8.385
 6173TIP3   OH240077   1.817   4.129   7.473
 6173TIP3    H140078   1.723   4.116   7.469
 6173TIP3    H240079   1.841   4.158   7.385
 6174TIP3   OH240080   4.405   4.629   0.695
 6174TIP3    H140081   4.393   4.581   0.777
 6174TIP3    H240082   4.489   4.598   0.661
 6175TIP3   OH240083   6.361   2.430   0.815
 6175TIP3    H140084   6.370   2.453   0.723
 6175TIP3    H240085   6.396   2.341   0.820
 6176TIP3   OH240086   6.662   0.966   6.763
 6176TIP3    H140087   6.592   0.928   6.816
 6176TIP3    H240088   6.679   0.900   6.696
 6177TIP3   OH240089   5.807   3.811   1.895
 6177TIP3    H140090   5.770   3.856   1.819
 6177TIP3    H240091   5.808   3.719   1.870
 6178TIP3   OH240092   4.154   0.146   2.217
 6178TIP3    H140093   4.201   0.229   2.225
 6178TIP3    H240094   4.076   0.157   2.270
 6179TIP3   OH240095   0.246   3.516   8.050
 6179TIP3    H140096   0.275   3.532   7.961
 6179TIP3    H240097   0.176   3.580   8.064
 6180TIP3   OH240098   3.666   5.426   7.112
 6180TIP3    H140099   3.663   5.508   7.162
 6180TIP3    H240100   3.614   5.365   7.164
 6181TIP3   OH240101   1.022   3.797   6.710
 6181TIP3    H140102   1.097   3.838   6.752
 6181TIP3    H240103   0.974   3.870   6.671
 6182TIP3   OH240104   4.585   5.986   2.512
 6182TIP3    H140105   4.553   5.934   2.439
 6182TIP3    H240106   4.568   6.077   2.485
 6183TIP3   OH240107   1.585   3.861   1.935
 6183TIP3    H140108   1.564   3.770   1.954
 6183TIP3    H240109   1.523   3.912   1.988
 6184TIP3   OH240110   5.974   5.412   1.411
 6184TIP3    H140111   6.027   5.408   1.490
 6184TIP3    H240112   5.974   5.323   1.377
 6185TIP3   OH240113   1.530   4.421   1.333
 6185TIP3    H140114   1.542   4.504   1.288
 6185TIP3    H240115   1.549   4.355   1.267
 6186TIP3   OH240116   4.252   4.999   1.496
 6186TIP3    H140117   4.233   4.909   1.523
 6186TIP3    H240118   4.184   5.021   1.433
 6187TIP3   OH240119   4.580   1.152   7.686
 6187TIP3    H140120   4.498   1.180   7.726
 6187TIP3    H240121   4.592   1.062   7.716
 6188TIP3   OH240122   5.123   0.258   6.348
 6188TIP3    H140123   5.087   0.184   6.298
 6188TIP3    H240124   5.057   0.276   6.415
 6189TIP3   OH240125   4.422   0.219   6.845
 6189TIP3    H140126   4.447   0.174   6.925
 6189TIP3    H240127   4.457   0.163   6.775
 6190TIP3   OH240128   3.647   0.669   2.418
 6190TIP3    H140129   3.727   0.630   2.452
 6190TIP3    H240130   3.604   0.598   2.370
 6191TIP3   OH240131   3.655   1.724   8.803
 6191TIP3    H140132   3.571   1.712   8.760
 6191TIP3    H240133   3.671   1.641   8.848
 6192TIP3   OH240134   3.281   2.994   7.165
 6192TIP3    H140135   3.230   3.066   7.201
 6192TIP3    H240136   3.227   2.916   7.179
 6193TIP3   OH240137   3.578   1.756   1.399
 6193TIP3    H140138   3.611   1.677   1.357
 6193TIP3    H240139   3.613   1.752   1.489
 6194TIP3   OH240140   2.480   4.512   0.968
 6194TIP3    H140141   2.497   4.481   1.057
 6194TIP3    H240142   2.495   4.606   0.972
 6195TIP3   OH240143   2.542   1.814   8.813
 6195TIP3    H140144   2.537   1.738   8.756
 6195TIP3    H240145   2.599   1.787   8.884
 6196TIP3   OH240146   6.346   6.025   7.232
 6196TIP3    H140147   6.440   6.026   7.215
 6196TIP3    H240148   6.307   6.063   7.153
 6197TIP3   OH240149   1.249   5.907   7.207
 6197TIP3    H140150   1.194   5.985   7.199
 6197TIP3    H240151   1.273   5.905   7.300
 6198TIP3   OH240152   5.303   1.100   1.224
 6198TIP3    H140153   5.350   1.031   1.177
 6198TIP3    H240154   5.352   1.179   1.205
 6199TIP3   OH240155   3.709   3.579   0.410
 6199TIP3    H140156   3.789   3.538   0.445
 6199TIP3    H240157   3.639   3.542   0.463
 6200TIP3   OH240158   0.143   2.325   6.988
 6200TIP3    H140159   0.153   2.332   7.083
 6200TIP3    H240160   0.231   2.306   6.956
 6201TIP3   OH240161   2.411   1.948   7.688
 6201TIP3    H140162   2.382   2.031   7.728
 6201TIP3    H240163   2.480   1.917   7.746
 6202TIP3   OH240164   4.847   6.110   0.774
 6202TIP3    H140165   4.847   6.194   0.727
 6202TIP3    H240166   4.915   6.119   0.841
 6203TIP3   OH240167   2.336   1.623   7.071
 6203TIP3    H140168   2.406   1.563   7.049
 6203TIP3    H240169   2.379   1.707   7.085
 6204TIP3   OH240170   3.860   4.725   0.096
 6204TIP3    H140171   3.928   4.770   0.046
 6204TIP3    H240172   3.797   4.793   0.118
 6205TIP3   OH240173   4.650   6.176   6.165
 6205TIP3    H140174   4.582   6.173   6.098
 6205TIP3    H240175   4.626   6.106   6.226
 6206TIP3   OH240176   0.270   0.635   6.709
 6206TIP3    H140177   0.362   0.659   6.723
 6206TIP3    H240178   0.252   0.663   6.619
 6207TIP3   OH240179   2.360   2.367   8.390
 6207TIP3    H140180   2.297   2.298   8.415
 6207TIP3    H240181   2.386   2.407   8.473
 6208TIP3   OH240182   1.250   6.288   8.267
 6208TIP3    H140183   1.224   6.351   8.199
 6208TIP3    H240184   1.338   6.260   8.241
 6209TIP3   OH240185   5.872   0.750   6.795
 6209TIP3    H140186   5.807   0.817   6.773
 6209TIP3    H240187   5.824   0.668   6.793
 6210TIP3   OH240188   6.747   1.902   2.493
 6210TIP3    H140189   6.752   1.934   2.583
 6210TIP3    H240190   6.738   1.981   2.440
 6211TIP3   OH240191   0.183   6.388   7.275
 6211TIP3    H140192   0.215   6.459   7.219
 6211TIP3    H240193   0.262   6.339   7.299
 6212TIP3   OH240194   6.208   5.373   0.534
 6212TIP3    H140195   6.177   5.354   0.445
 6212TIP3    H240196   6.137   5.342   0.591
 6213TIP3   OH240197   2.962   4.459   1.661
 6213TIP3    H140198   2.949   4.453   1.755
 6213TIP3    H240199   3.031   4.395   1.642
 6214TIP3   OH240200   4.812   5.999   8.527
 6214TIP3    H140201   4.787   6.024   8.617
 6214TIP3    H240202   4.768   6.064   8.472
 6215TIP3   OH240203   1.435   1.682   1.801
 6215TIP3    H140204   1.354   1.725   1.827
 6215TIP3    H240205   1.504   1.739   1.835
 6216TIP3   OH240206   1.455   0.678   7.743
 6216TIP3    H140207   1.527   0.741   7.753
 6216TIP3    H240208   1.394   0.721   7.683
 6217TIP3   OH240209   1.231   0.087   6.977
 6217TIP3    H140210   1.171   0.150   6.936
 6217TIP3    H240211   1.275   0.045   6.903
 6218TIP3   OH240212   5.773   3.226   6.938
 6218TIP3    H140213   5.866   3.225   6.959
 6218TIP3    H240214   5.770   3.221   6.842
 6219TIP3   OH240215   3.820   4.569   7.805
 6219TIP3    H140216   3.873   4.527   7.737
 6219TIP3    H240217   3.846   4.527   7.886
 6220TIP3   OH240218   0.266   2.186   0.387
 6220TIP3    H140219   0.332   2.156   0.324
 6220TIP3    H240220   0.218   2.107   0.411
 6221TIP3   OH240221   0.962   4.633   1.825
 6221TIP3    H140222   0.873   4.670   1.829
 6221TIP3    H240223   1.000   4.653   1.910
 6222TIP3   OH240224   5.963   5.502   7.064
 6222TIP3    H140225   5.991   5.481   6.974
 6222TIP3    H240226   5.980   5.421   7.113
 6223TIP3   OH240227   4.144   6.561   8.013
 6223TIP3    H140228   4.188   6.476   8.018
 6223TIP3    H240229   4.115   6.567   7.922
 6224TIP3   OH240230   0.524   6.372   0.056
 6224TIP3    H140231   0.484   6.320   0.126
 6224TIP3    H240232   0.499   6.462   0.076
 6225TIP3   OH240233   1.418   2.678   2.395
 6225TIP3    H140234   1.466   2.756   2.366
 6225TIP3    H240235   1.484   2.609   2.398
 6226TIP3   OH240236   1.353   6.122   1.111
 6226TIP3    H140237   1.337   6.208   1.073
 6226TIP3    H240238   1.288   6.065   1.069
 6227TIP3   OH240239   5.388   5.870   2.198
 6227TIP3    H140240   5.297   5.885   2.221
 6227TIP3    H240241   5.434   5.870   2.282
 6228TIP3   OH240242   1.785   3.709   7.445
 6228TIP3    H140243   1.831   3.787   7.479
 6228TIP3    H240244   1.718   3.745   7.387
 6229TIP3   OH240245   2.345   0.192   1.490
 6229TIP3    H140246   2.353   0.278   1.530
 6229TIP3    H240247   2.387   0.201   1.404
 6230TIP3   OH240248   3.708   5.809   0.278
 6230TIP3    H140249   3.692   5.804   0.372
 6230TIP3    H240250   3.621   5.814   0.239
 6231TIP3   OH240251   1.925   6.470   8.536
 6231TIP3    H140252   2.013   6.483   8.571
 6231TIP3    H240253   1.926   6.381   8.500
 6232TIP3   OH240254   2.124   6.493   8.817
 6232TIP3    H140255   2.115   6.411   8.866
 6232TIP3    H240256   2.067   6.555   8.863
 6233TIP3   OH240257   4.447   2.040   1.757
 6233TIP3    H140258   4.477   2.130   1.743
 6233TIP3    H240259   4.527   1.987   1.755
 6234TIP3   OH240260   2.104   2.235   1.058
 6234TIP3    H140261   2.068   2.179   0.989
 6234TIP3    H240262   2.192   2.259   1.027
 6235TIP3   OH240263   3.066   5.938   7.617
 6235TIP3    H140264   3.044   5.847   7.637
 6235TIP3    H240265   3.073   5.940   7.522
 6236TIP3   OH240266   4.651   1.855   1.803
 6236TIP3    H140267   4.703   1.783   1.767
 6236TIP3    H240268   4.568   1.814   1.827
 6237TIP3   OH240269   1.616   5.544   1.017
 6237TIP3    H140270   1.639   5.602   1.089
 6237TIP3    H240271   1.566   5.473   1.058
 6238TIP3   OH240272   4.928   5.467   7.508
 6238TIP3    H140273   4.979   5.399   7.463
 6238TIP3    H240274   4.963   5.468   7.597
 6239TIP3   OH240275   6.770   4.499   7.284
 6239TIP3    H140276   6.770   4.432   7.216
 6239TIP3    H240277   6.682   4.536   7.282
 6240TIP3   OH240278   1.078   5.123   6.511
 6240TIP3    H140279   1.134   5.052   6.480
 6240TIP3    H240280   1.138   5.185   6.552
 6241TIP3   OH240281   3.997   5.350   0.993
 6241TIP3    H140282   3.936   5.423   0.980
 6241TIP3    H240283   3.962   5.303   1.069
 6242TIP3   OH240284   1.314   1.126   2.014
 6242TIP3    H140285   1.394   1.100   1.968
 6242TIP3    H240286   1.338   1.206   2.060
 6243TIP3   OH240287   0.532   5.961   7.860
 6243TIP3    H140288   0.595   5.906   7.812
 6243TIP3    H240289   0.456   5.965   7.802
 6244TIP3   OH240290   6.583   1.669   8.168
 6244TIP3    H140291   6.536   1.741   8.209
 6244TIP3    H240292   6.544   1.590   8.205
 6245TIP3   OH240293   4.003   6.763   8.528
 6245TIP3    H140294   3.952   6.792   8.604
 6245TIP3    H240295   4.058   6.838   8.506
 6246TIP3   OH240296   1.511   1.939   8.719
 6246TIP3    H140297   1.603   1.943   8.744
 6246TIP3    H240298   1.504   1.864   8.661
 6247TIP3   OH240299   4.392   0.902   1.860
 6247TIP3    H140300   4.361   0.911   1.770
 6247TIP3    H240301   4.486   0.883   1.851
 6248TIP3   OH240302   0.265   3.144   0.301
 6248TIP3    H140303   0.315   3.096   0.235
 6248TIP3    H240304   0.321   3.219   0.323
 6249TIP3   OH240305   5.933   4.461   1.063
 6249TIP3    H140306   5.974   4.496   1.142
 6249TIP3    H240307   5.986   4.384   1.041
 6250TIP3   OH240308   3.929   0.631   0.562
 6250TIP3    H140309   3.912   0.672   0.477
 6250TIP3    H240310   3.912   0.700   0.626
 6251TIP3   OH240311   5.767   1.350   0.092
 6251TIP3    H140312   5.842   1.348   0.033
 6251TIP3    H240313   5.799   1.311   0.174
 6252TIP3   OH240314   0.657   1.994   6.035
 6252TIP3    H140315   0.742   1.993   5.991
 6252TIP3    H240316   0.663   2.065   6.098
 6253TIP3   OH240317   5.311   5.947   0.644
 6253TIP3    H140318   5.269   5.943   0.558
 6253TIP3    H240319   5.271   5.876   0.694
 6254TIP3   OH240320   2.148   0.976   0.461
 6254TIP3    H140321   2.186   0.890   0.473
 6254TIP3    H240322   2.126   0.980   0.368
 6255TIP3   OH240323   5.897   5.772   7.873
 6255TIP3    H140324   5.985   5.733   7.871
 6255TIP3    H240325   5.898   5.828   7.951
 6256TIP3   OH240326   2.611   2.077   1.609
 6256TIP3    H140327   2.625   1.984   1.596
 6256TIP3    H240328   2.678   2.102   1.673
 6257TIP3   OH240329   1.161   5.542   1.762
 6257TIP3    H140330   1.089   5.489   1.797
 6257TIP3    H240331   1.185   5.498   1.680
 6258TIP3   OH240332   1.221   0.534   0.579
 6258TIP3    H140333   1.212   0.521   0.484
 6258TIP3    H240334   1.246   0.448   0.612
 6259TIP3   OH240335   4.321   6.128   0.393
 6259TIP3    H140336   4.289   6.041   0.369
 6259TIP3    H240337   4.362   6.116   0.478
 6260TIP3   OH240338   2.870   3.911   7.212
 6260TIP3    H140339   2.834   3.944   7.295
 6260TIP3    H240340   2.898   3.990   7.165
 6261TIP3   OH240341   4.567   1.985   8.441
 6261TIP3    H140342   4.531   1.948   8.360
 6261TIP3    H240343   4.625   2.055   8.411
 6262TIP3   OH240344   5.013   3.440   6.398
 6262TIP3    H140345   5.030   3.534   6.387
 6262TIP3    H240346   4.975   3.412   6.315
 6263TIP3   OH240347   5.145   5.514   1.650
 6263TIP3    H140348   5.153   5.589   1.710
 6263TIP3    H240349   5.235   5.490   1.629
 6264TIP3   OH240350   6.473   2.889   8.316
 6264TIP3    H140351   6.555   2.849   8.287
 6264TIP3    H240352   6.487   2.906   8.409
 6265TIP3   OH240353   5.154   6.343   0.341
 6265TIP3    H140354   5.158   6.249   0.323
 6265TIP3    H240355   5.064   6.358   0.370
 6266TIP3   OH240356   0.316   1.704   2.513
 6266TIP3    H140357   0.353   1.617   2.495
 6266TIP3    H240358   0.248   1.689   2.578
 6267TIP3   OH240359   0.916   0.582   0.149
 6267TIP3    H140360   0.890   0.519   0.082
 6267TIP3    H240361   0.895   0.668   0.111
 6268TIP3   OH240362   2.519   5.854   1.657
 6268TIP3    H140363   2.515   5.872   1.563
 6268TIP3    H240364   2.515   5.940   1.698
 6269TIP3   OH240365   1.311   3.185   0.750
 6269TIP3    H140366   1.220   3.207   0.733
 6269TIP3    H240367   1.308   3.124   0.824
 6270TIP3   OH240368   1.234   1.974   8.758
 6270TIP3    H140369   1.207   1.883   8.766
 6270TIP3    H240370   1.318   1.970   8.711
 6271TIP3   OH240371   0.649   2.591   7.335
 6271TIP3    H140372   0.592   2.622   7.265
 6271TIP3    H240373   0.596   2.600   7.414
 6272TIP3   OH240374   6.797   0.359   8.264
 6272TIP3    H140375   6.714   0.361   8.313
 6272TIP3    H240376   6.772   0.330   8.176
 6273TIP3   OH240377   0.317   4.773   1.813
 6273TIP3    H140378   0.236   4.809   1.850
 6273TIP3    H240379   0.387   4.814   1.863
 6274TIP3   OH240380   1.556   4.914   8.582
 6274TIP3    H140381   1.561   4.822   8.607
 6274TIP3    H240382   1.536   4.961   8.663
 6275TIP3   OH240383   3.168   3.937   2.356
 6275TIP3    H140384   3.092   3.906   2.307
 6275TIP3    H240385   3.134   4.008   2.411
 6276TIP3   OH240386   4.230   2.175   7.814
 6276TIP3    H140387   4.163   2.123   7.858
 6276TIP3    H240388   4.255   2.123   7.738
 6277TIP3   OH240389   5.107   4.868   0.898
 6277TIP3    H140390   5.156   4.796   0.858
 6277TIP3    H240391   5.134   4.868   0.989
 6278TIP3   OH240392   1.686   2.044   1.651
 6278TIP3    H140393   1.635   2.108   1.701
 6278TIP3    H240394   1.735   2.096   1.588
 6279TIP3   OH240395   4.725   1.349   6.770
 6279TIP3    H140396   4.691   1.276   6.717
 6279TIP3    H240397   4.747   1.309   6.854
 6280TIP3   OH240398   6.445   1.522   6.900
 6280TIP3    H140399   6.429   1.437   6.859
 6280TIP3    H240400   6.393   1.521   6.980
 6281TIP3   OH240401   1.509   5.022   8.827
 6281TIP3    H140402   1.490   4.987   8.914
 6281TIP3    H240403   1.491   5.116   8.834
 6282TIP3   OH240404   2.145   4.642   0.182
 6282TIP3    H140405   2.159   4.736   0.192
 6282TIP3    H240406   2.209   4.602   0.241
 6283TIP3   OH240407   1.261   2.271   7.164
 6283TIP3    H140408   1.206   2.335   7.209
 6283TIP3    H240409   1.228   2.269   7.074
 6284TIP3   OH240410   3.638   6.595   7.933
 6284TIP3    H140411   3.640   6.509   7.891
 6284TIP3    H240412   3.589   6.581   8.014
 6285TIP3   OH240413   4.558   6.042   0.891
 6285TIP3    H140414   4.646   6.056   0.854
 6285TIP3    H240415   4.538   5.951   0.870
 6286TIP3   OH240416   3.929   2.290   8.011
 6286TIP3    H140417   3.970   2.227   7.952
 6286TIP3    H240418   3.949   2.376   7.973
 6287TIP3   OH240419   4.525   2.422   7.529
 6287TIP3    H140420   4.440   2.458   7.505
 6287TIP3    H240421   4.510   2.327   7.535
 6288TIP3   OH240422   6.658   6.310   7.912
 6288TIP3    H140423   6.587   6.375   7.919
 6288TIP3    H240424   6.718   6.333   7.983
 6289TIP3   OH240425   2.822   0.155   1.368
 6289TIP3    H140426   2.793   0.082   1.422
 6289TIP3    H240427   2.811   0.232   1.424
 6290TIP3   OH240428   6.485   2.931   7.686
 6290TIP3    H140429   6.419   2.943   7.618
 6290TIP3    H240430   6.450   2.860   7.741
 6291TIP3   OH240431   6.742   0.203   1.180
 6291TIP3    H140432   6.719   0.287   1.139
 6291TIP3    H240433   6.787   0.227   1.261
 6292TIP3   OH240434   4.205   5.262   8.588
 6292TIP3    H140435   4.171   5.313   8.515
 6292TIP3    H240436   4.164   5.300   8.666
 6293TIP3   OH240437   1.025   2.155   8.452
 6293TIP3    H140438   1.000   2.176   8.542
 6293TIP3    H240439   1.036   2.241   8.410
 6294TIP3   OH240440   4.461   3.809   7.522
 6294TIP3    H140441   4.482   3.876   7.588
 6294TIP3    H240442   4.370   3.827   7.499
 6295TIP3   OH240443   1.850   6.436   7.548
 6295TIP3    H140444   1.895   6.400   7.471
 6295TIP3    H240445   1.836   6.360   7.604
 6296TIP3   OH240446   5.723   0.709   8.509
 6296TIP3    H140447   5.744   0.619   8.534
 6296TIP3    H240448   5.803   0.759   8.530
 6297TIP3   OH240449   3.349   1.356   6.601
 6297TIP3    H140450   3.258   1.386   6.608
 6297TIP3    H240451   3.374   1.377   6.511
 6298TIP3   OH240452   5.673   1.060   1.568
 6298TIP3    H140453   5.615   0.995   1.530
 6298TIP3    H240454   5.740   1.009   1.613
 6299TIP3   OH240455   2.157   0.923   6.540
 6299TIP3    H140456   2.137   0.947   6.449
 6299TIP3    H240457   2.232   0.977   6.563
 6300TIP3   OH240458   0.487   2.997   8.552
 6300TIP3    H140459   0.511   3.038   8.635
 6300TIP3    H240460   0.547   3.034   8.488
 6301TIP3   OH240461   6.616   3.214   8.391
 6301TIP3    H140462   6.703   3.245   8.366
 6301TIP3    H240463   6.564   3.293   8.402
 6302TIP3   OH240464   2.968   4.638   8.160
 6302TIP3    H140465   2.902   4.623   8.229
 6302TIP3    H240466   2.928   4.603   8.081
 6303TIP3   OH240467   5.344   0.125   6.385
 6303TIP3    H140468   5.359   0.084   6.299
 6303TIP3    H240469   5.274   0.188   6.369
 6304TIP3   OH240470   4.271   5.200   7.244
 6304TIP3    H140471   4.351   5.245   7.218
 6304TIP3    H240472   4.278   5.113   7.205
 6305TIP3   OH240473   1.626   6.589   0.269
 6305TIP3    H140474   1.710   6.571   0.310
 6305TIP3    H240475   1.612   6.514   0.210
 6306TIP3   OH240476   5.931   3.808   7.268
 6306TIP3    H140477   6.019   3.785   7.238
 6306TIP3    H240478   5.878   3.811   7.189
 6307TIP3   OH240479   0.591   6.534   8.548
 6307TIP3    H140480   0.567   6.626   8.537
 6307TIP3    H240481   0.671   6.523   8.496
 6308TIP3   OH240482   0.931   6.441   1.068
 6308TIP3    H140483   0.903   6.439   1.160
 6308TIP3    H240484   1.011   6.493   1.069
 6309TIP3   OH240485   3.860   2.210   2.177
 6309TIP3    H140486   3.790   2.147   2.161
 6309TIP3    H240487   3.921   2.163   2.235
 6310TIP3   OH240488   3.512   5.760   8.354
 6310TIP3    H140489   3.596   5.719   8.337
 6310TIP3    H240490   3.520   5.848   8.319
 6311TIP3   OH240491   1.647   4.127   7.838
 6311TIP3    H140492   1.564   4.108   7.793
 6311TIP3    H240493   1.681   4.041   7.862
 6312TIP3   OH240494   2.102   2.456   7.931
 6312TIP3    H140495   2.053   2.514   7.872
 6312TIP3    H240496   2.087   2.493   8.018
 6313TIP3   OH240497   1.730   5.984   8.352
 6313TIP3    H140498   1.799   6.046   8.375
 6313TIP3    H240499   1.710   6.002   8.261
 6314TIP3   OH240500   5.138   3.463   7.061
 6314TIP3    H140501   5.205   3.421   7.008
 6314TIP3    H240502   5.138   3.414   7.144
 6315TIP3   OH240503   2.038   6.173   0.046
 6315TIP3    H140504   2.106   6.125   0.094
 6315TIP3    H240505   2.084   6.210  -0.029
 6316TIP3   OH240506   5.599   1.109   8.515
 6316TIP3    H140507   5.670   1.147   8.463
 6316TIP3    H240508   5.601   1.158   8.597
 6317TIP3   OH240509   4.608   1.420   8.586
 6317TIP3    H140510   4.669   1.463   8.526
 6317TIP3    H240511   4.639   1.330   8.591
 6318TIP3   OH240512   6.184   5.062   1.655
 6318TIP3    H140513   6.129   5.002   1.705
 6318TIP3    H240514   6.260   5.078   1.711
 6319TIP3   OH240515   6.235   2.931   7.111
 6319TIP3    H140516   6.282   2.850   7.093
 6319TIP3    H240517   6.163   2.905   7.170
 6320TIP3   OH240518   1.458   3.226   1.478
 6320TIP3    H140519   1.474   3.319   1.466
 6320TIP3    H240520   1.433   3.194   1.391
 6321TIP3   OH240521   4.886   0.967   7.702
 6321TIP3    H140522   4.916   0.900   7.640
 6321TIP3    H240523   4.946   0.961   7.775
 6322TIP3   OH240524   4.758   4.625   8.096
 6322TIP3    H140525   4.827   4.574   8.140
 6322TIP3    H240526   4.792   4.715   8.096
 6323TIP3   OH240527   1.025   2.655   0.390
 6323TIP3    H140528   0.969   2.580   0.411
 6323TIP3    H240529   1.030   2.654   0.294
 6324TIP3   OH240530   4.533   0.181   0.554
 6324TIP3    H140531   4.543   0.110   0.617
 6324TIP3    H240532   4.614   0.231   0.561
 6325TIP3   OH240533   6.552   3.448   0.088
 6325TIP3    H140534   6.517   3.505   0.020
 6325TIP3    H240535   6.519   3.486   0.170
 6326TIP3   OH240536   0.918   2.867   7.427
 6326TIP3    H140537   0.966   2.934   7.377
 6326TIP3    H240538   0.941   2.784   7.383
 6327TIP3   OH240539   1.130   2.483   0.668
 6327TIP3    H140540   1.110   2.390   0.679
 6327TIP3    H240541   1.047   2.527   0.686
 6328TIP3   OH240542   2.639   2.602   8.273
 6328TIP3    H140543   2.694   2.670   8.236
 6328TIP3    H240544   2.628   2.626   8.365
 6329TIP3   OH240545   2.619   2.668   1.424
 6329TIP3    H140546   2.663   2.639   1.344
 6329TIP3    H240547   2.663   2.621   1.494
 6330TIP3   OH240548   2.888   6.483   1.722
 6330TIP3    H140549   2.801   6.496   1.758
 6330TIP3    H240550   2.947   6.495   1.796
 6331TIP3   OH240551   5.158   6.036   8.307
 6331TIP3    H140552   5.227   6.035   8.241
 6331TIP3    H240553   5.092   6.095   8.272
 6332TIP3   OH240554   3.457   6.495   6.565
 6332TIP3    H140555   3.416   6.419   6.523
 6332TIP3    H240556   3.400   6.514   6.640
 6333TIP3   OH240557   2.565   3.655   7.477
 6333TIP3    H140558   2.562   3.711   7.554
 6333TIP3    H240559   2.656   3.659   7.447
 6334TIP3   OH240560   5.373   4.894   1.584
 6334TIP3    H140561   5.384   4.814   1.532
 6334TIP3    H240562   5.308   4.870   1.650
 6335TIP3   OH240563   4.153   3.785   8.798
 6335TIP3    H140564   4.212   3.846   8.754
 6335TIP3    H240565   4.160   3.704   8.748
 6336TIP3   OH240566   0.855   2.769   1.295
 6336TIP3    H140567   0.764   2.741   1.307
 6336TIP3    H240568   0.858   2.858   1.330
 6337TIP3   OH240569   5.597   1.648   2.235
 6337TIP3    H140570   5.618   1.613   2.322
 6337TIP3    H240571   5.570   1.738   2.251
 6338TIP3   OH240572   2.963   6.745   7.495
 6338TIP3    H140573   2.974   6.767   7.587
 6338TIP3    H240574   3.050   6.756   7.457
 6339TIP3   OH240575   1.604   0.371   7.263
 6339TIP3    H140576   1.604   0.314   7.340
 6339TIP3    H240577   1.529   0.342   7.211
 6340TIP3   OH240578   2.707   0.003   7.734
 6340TIP3    H140579   2.685   0.074   7.794
 6340TIP3    H240580   2.728   0.047   7.651
 6341TIP3   OH240581   2.683   1.766   6.634
 6341TIP3    H140582   2.736   1.835   6.595
 6341TIP3    H240583   2.744   1.694   6.647
 6342TIP3   OH240584   1.535   2.441   8.304
 6342TIP3    H140585   1.629   2.457   8.301
 6342TIP3    H240586   1.496   2.517   8.262
 6343TIP3   OH240587   1.125   3.410   8.045
 6343TIP3    H140588   1.093   3.499   8.056
 6343TIP3    H240589   1.072   3.358   8.105
 6344TIP3   OH240590   6.140   3.464   1.169
 6344TIP3    H140591   6.197   3.392   1.194
 6344TIP3    H240592   6.197   3.541   1.170
 6345TIP3   OH240593   4.721   4.955   6.869
 6345TIP3    H140594   4.651   4.913   6.919
 6345TIP3    H240595   4.680   5.031   6.829
 6346TIP3   OH240596   4.008   3.585   8.206
 6346TIP3    H140597   4.073   3.623   8.265
 6346TIP3    H240598   4.016   3.490   8.219
 6347TIP3   OH240599   2.557   0.845   0.051
 6347TIP3    H140600   2.560   0.757   0.088
 6347TIP3    H240601   2.594   0.902   0.118
 6348TIP3   OH240602   2.800   2.142   1.211
 6348TIP3    H140603   2.719   2.176   1.175
 6348TIP3    H240604   2.786   2.048   1.218
 6349TIP3   OH240605   1.358   4.946   7.359
 6349TIP3    H140606   1.376   4.856   7.386
 6349TIP3    H240607   1.385   5.000   7.433
 6350TIP3   OH240608   2.481   3.809   6.871
 6350TIP3    H140609   2.501   3.773   6.958
 6350TIP3    H240610   2.471   3.732   6.815
 6351TIP3   OH240611   5.088   5.827   6.616
 6351TIP3    H140612   5.159   5.772   6.583
 6351TIP3    H240613   5.097   5.909   6.567
 6352TIP3   OH240614   4.183   5.180   0.212
 6352TIP3    H140615   4.268   5.224   0.213
 6352TIP3    H240616   4.170   5.150   0.302
 6353TIP3   OH240617   5.853   3.007   0.361
 6353TIP3    H140618   5.820   2.956   0.287
 6353TIP3    H240619   5.892   2.942   0.420
 6354TIP3   OH240620   4.333   6.531   6.824
 6354TIP3    H140621   4.288   6.447   6.827
 6354TIP3    H240622   4.290   6.580   6.755
 6355TIP3   OH240623   4.565   5.559   6.158
 6355TIP3    H140624   4.523   5.514   6.085
 6355TIP3    H240625   4.557   5.652   6.137
 6356TIP3   OH240626   0.774   5.589   8.405
 6356TIP3    H140627   0.713   5.576   8.478
 6356TIP3    H240628   0.787   5.502   8.368
 6357TIP3   OH240629   1.359   4.677   6.332
 6357TIP3    H140630   1.323   4.756   6.373
 6357TIP3    H240631   1.443   4.704   6.296
 6358TIP3   OH240632   3.018   4.524   0.001
 6358TIP3    H140633   2.960   4.487  -0.065
 6358TIP3    H240634   2.989   4.484   0.083
 6359TIP3   OH240635   5.096   1.459   6.681
 6359TIP3    H140636   5.124   1.436   6.769
 6359TIP3    H240637   5.169   1.434   6.625
 6360TIP3   OH240638   2.746   2.579   6.213
 6360TIP3    H140639   2.788   2.630   6.282
 6360TIP3    H240640   2.652   2.591   6.228
 6361TIP3   OH240641   5.009   5.119   0.896
 6361TIP3    H140642   5.020   5.129   0.990
 6361TIP3    H240643   5.041   5.030   0.877
 6362TIP3   OH240644   3.843   0.769   0.830
 6362TIP3    H140645   3.881   0.811   0.908
 6362TIP3    H240646   3.769   0.826   0.807
 6363TIP3   OH240647   0.351   4.575   8.529
 6363TIP3    H140648   0.304   4.496   8.558
 6363TIP3    H240649   0.301   4.606   8.454
 6364TIP3   OH240650   5.718   3.123   8.155
 6364TIP3    H140651   5.757   3.202   8.117
 6364TIP3    H240652   5.677   3.152   8.235
 6365TIP3   OH240653   0.880   2.335   6.713
 6365TIP3    H140654   0.839   2.281   6.645
 6365TIP3    H240655   0.966   2.358   6.676
 6366TIP3   OH240656   2.446   2.154   8.659
 6366TIP3    H140657   2.523   2.101   8.637
 6366TIP3    H240658   2.399   2.103   8.724
 6367TIP3   OH240659   0.660   1.402   7.604
 6367TIP3    H140660   0.751   1.375   7.618
 6367TIP3    H240661   0.667   1.486   7.559
 6368TIP3   OH240662   3.372   6.035   6.936
 6368TIP3    H140663   3.443   5.999   6.882
 6368TIP3    H240664   3.416   6.066   7.015
 6369TIP3   OH240665   0.415   6.128   1.981
 6369TIP3    H140666   0.364   6.070   2.037
 6369TIP3    H240667   0.489   6.074   1.951
 6370TIP3   OH240668   5.982   4.931   1.167
 6370TIP3    H140669   5.902   4.982   1.150
 6370TIP3    H240670   6.003   4.892   1.082
 6371TIP3   OH240671   5.032   0.290   0.665
 6371TIP3    H140672   5.027   0.244   0.581
 6371TIP3    H240673   4.956   0.261   0.714
 6372TIP3   OH240674   3.337   6.680   1.891
 6372TIP3    H140675   3.366   6.768   1.914
 6372TIP3    H240676   3.409   6.622   1.917
 6373TIP3   OH240677   5.552   0.509   8.332
 6373TIP3    H140678   5.511   0.429   8.365
 6373TIP3    H240679   5.643   0.484   8.314
 6374TIP3   OH240680   5.902   3.476   1.308
 6374TIP3    H140681   5.992   3.458   1.282
 6374TIP3    H240682   5.887   3.420   1.384
 6375TIP3   OH240683   5.399   3.349   7.239
 6375TIP3    H140684   5.377   3.434   7.275
 6375TIP3    H240685   5.440   3.302   7.312
 6376TIP3   OH240686   0.293   5.633   0.765
 6376TIP3    H140687   0.370   5.652   0.711
 6376TIP3    H240688   0.254   5.555   0.726
 6377TIP3   OH240689   4.438   3.650   8.107
 6377TIP3    H140690   4.493   3.636   8.184
 6377TIP3    H240691   4.374   3.579   8.110
 6378TIP3   OH240692   2.572   1.126   7.037
 6378TIP3    H140693   2.646   1.087   6.989
 6378TIP3    H240694   2.544   1.058   7.097
 6379TIP3   OH240695   3.201   3.867   0.197
 6379TIP3    H140696   3.280   3.920   0.193
 6379TIP3    H240697   3.157   3.883   0.114
 6380TIP3   OH240698   1.709   3.754   6.914
 6380TIP3    H140699   1.634   3.779   6.861
 6380TIP3    H240700   1.754   3.836   6.934
 6381TIP3   OH240701   0.762   0.630   1.326
 6381TIP3    H140702   0.777   0.675   1.409
 6381TIP3    H240703   0.674   0.593   1.335
 6382TIP3   OH240704   6.183   2.456   8.675
 6382TIP3    H140705   6.215   2.539   8.641
 6382TIP3    H240706   6.260   2.414   8.713
 6383TIP3   OH240707   6.332   1.286   7.065
 6383TIP3    H140708   6.283   1.209   7.093
 6383TIP3    H240709   6.269   1.357   7.069
 6384TIP3   OH240710   0.735   4.834   7.596
 6384TIP3    H140711   0.707   4.915   7.553
 6384TIP3    H240712   0.791   4.791   7.531
 6385TIP3   OH240713   0.822   0.691   8.132
 6385TIP3    H140714   0.792   0.739   8.054
 6385TIP3    H240715   0.836   0.602   8.101
 6386TIP3   OH240716   4.476   6.519   8.060
 6386TIP3    H140717   4.396   6.469   8.046
 6386TIP3    H240718   4.513   6.531   7.972
 6387TIP3   OH240719   2.257   3.452   1.135
 6387TIP3    H140720   2.249   3.423   1.045
 6387TIP3    H240721   2.172   3.429   1.175
 6388TIP3   OH240722   5.536   2.351   8.265
 6388TIP3    H140723   5.549   2.256   8.270
 6388TIP3    H240724   5.503   2.366   8.177
 6389TIP3   OH240725   1.845   1.072   7.852
 6389TIP3    H140726   1.855   1.111   7.939
 6389TIP3    H240727   1.820   1.146   7.796
 6390TIP3   OH240728   5.680   2.436   7.878
 6390TIP3    H140729   5.752   2.382   7.844
 6390TIP3    H240730   5.687   2.428   7.973
 6391TIP3   OH240731   6.509   4.395   1.207
 6391TIP3    H140732   6.508   4.488   1.229
 6391TIP3    H240733   6.583   4.386   1.147
 6392TIP3   OH240734   5.455   1.825   7.574
 6392TIP3    H140735   5.548   1.806   7.568
 6392TIP3    H240736   5.411   1.749   7.536
 6393TIP3   OH240737   6.151   4.000   0.522
 6393TIP3    H140738   6.153   4.077   0.465
 6393TIP3    H240739   6.075   3.950   0.490
 6394TIP3   OH240740   3.888   2.300   1.367
 6394TIP3    H140741   3.926   2.251   1.439
 6394TIP3    H240742   3.881   2.237   1.295
 6395TIP3   OH240743   6.482   4.797   6.822
 6395TIP3    H140744   6.470   4.818   6.729
 6395TIP3    H240745   6.458   4.878   6.868
 6396TIP3   OH240746   3.691   1.859   7.926
 6396TIP3    H140747   3.681   1.882   8.018
 6396TIP3    H240748   3.643   1.777   7.916
 6397TIP3   OH240749   3.695   6.036   7.353
 6397TIP3    H140750   3.774   5.985   7.334
 6397TIP3    H240751   3.671   6.013   7.442
 6398TIP3   OH240752   4.679   4.706   6.692
 6398TIP3    H140753   4.708   4.797   6.685
 6398TIP3    H240754   4.598   4.702   6.642
 6399TIP3   OH240755   3.649   3.293   6.692
 6399TIP3    H140756   3.703   3.365   6.724
 6399TIP3    H240757   3.663   3.293   6.597
 6400TIP3   OH240758   2.462   0.504   8.567
 6400TIP3    H140759   2.521   0.458   8.507
 6400TIP3    H240760   2.401   0.437   8.597
 6401TIP3   OH240761   1.323   0.947   0.621
 6401TIP3    H140762   1.245   0.989   0.585
 6401TIP3    H240763   1.320   0.968   0.715
 6402TIP3   OH240764   6.510   4.877   1.063
 6402TIP3    H140765   6.484   4.942   1.128
 6402TIP3    H240766   6.429   4.853   1.018
 6403TIP3   OH240767   5.616   0.055   7.997
 6403TIP3    H140768   5.560   0.129   8.018
 6403TIP3    H240769   5.556  -0.014   7.969
 6404TIP3   OH240770   6.135   3.611   7.909
 6404TIP3    H140771   6.151   3.563   7.828
 6404TIP3    H240772   6.205   3.677   7.912
 6405TIP3   OH240773   5.427   0.495   1.119
 6405TIP3    H140774   5.426   0.552   1.196
 6405TIP3    H240775   5.494   0.430   1.138
 6406TIP3   OH240776   5.065   5.769   8.143
 6406TIP3    H140777   5.055   5.686   8.189
 6406TIP3    H240778   5.137   5.755   8.081
 6407TIP3   OH240779   5.752   2.855   8.398
 6407TIP3    H140780   5.682   2.920   8.393
 6407TIP3    H240781   5.706   2.770   8.398
 6408TIP3   OH240782   6.042   0.338   6.838
 6408TIP3    H140783   6.051   0.260   6.782
 6408TIP3    H240784   6.072   0.410   6.783
 6409TIP3   OH240785   1.698   6.260   0.551
 6409TIP3    H140786   1.691   6.212   0.469
 6409TIP3    H240787   1.741   6.200   0.611
 6410TIP3   OH240788   6.027   1.477   8.640
 6410TIP3    H140789   6.003   1.541   8.707
 6410TIP3    H240790   6.005   1.392   8.680
 6411TIP3   OH240791   6.051   1.346   7.686
 6411TIP3    H140792   6.004   1.374   7.607
 6411TIP3    H240793   6.083   1.259   7.665
 6412TIP3   OH240794   6.412   5.154   0.461
 6412TIP3    H140795   6.420   5.225   0.398
 6412TIP3    H240796   6.425   5.195   0.546
 6413TIP3   OH240797   5.686   4.559   6.368
 6413TIP3    H140798   5.706   4.477   6.322
 6413TIP3    H240799   5.767   4.610   6.361
 6414TIP3   OH240800   6.381   3.628   1.167
 6414TIP3    H140801   6.433   3.656   1.092
 6414TIP3    H240802   6.439   3.641   1.242
 6415TIP3   OH240803   0.877   3.490   1.879
 6415TIP3    H140804   0.961   3.445   1.882
 6415TIP3    H240805   0.845   3.476   1.790
 6416TIP3   OH240806   6.772   5.332   8.340
 6416TIP3    H140807   6.814   5.312   8.423
 6416TIP3    H240808   6.681   5.353   8.363
 6417TIP3   OH240809   4.651   2.907   1.114
 6417TIP3    H140810   4.640   2.983   1.170
 6417TIP3    H240811   4.738   2.919   1.075
 6418TIP3   OH240812   6.621   5.544   7.756
 6418TIP3    H140813   6.659   5.565   7.671
 6418TIP3    H240814   6.635   5.624   7.808
 6419TIP3   OH240815   2.499   3.013   0.379
 6419TIP3    H140816   2.441   2.937   0.373
 6419TIP3    H240817   2.512   3.041   0.289
 6420TIP3   OH240818   0.129   0.545   8.445
 6420TIP3    H140819   0.087   0.480   8.389
 6420TIP3    H240820   0.163   0.495   8.519
 6421TIP3   OH240821   1.341   2.137   7.580
 6421TIP3    H140822   1.333   2.141   7.484
 6421TIP3    H240823   1.366   2.047   7.598
 6422TIP3   OH240824   3.235   2.003   7.241
 6422TIP3    H140825   3.323   1.984   7.272
 6422TIP3    H240826   3.247   2.038   7.153
 6423TIP3   OH240827   0.711   0.458   0.366
 6423TIP3    H140828   0.675   0.370   0.362
 6423TIP3    H240829   0.802   0.449   0.340
 6424TIP3   OH240830   5.959   2.071   6.060
 6424TIP3    H140831   5.985   2.163   6.053
 6424TIP3    H240832   5.888   2.071   6.124
 6425TIP3   OH240833   4.328   1.250   7.731
 6425TIP3    H140834   4.288   1.173   7.772
 6425TIP3    H240835   4.294   1.249   7.641
 6426TIP3   OH240836   3.135   1.886   0.346
 6426TIP3    H140837   3.132   1.798   0.308
 6426TIP3    H240838   3.220   1.921   0.319
 6427TIP3   OH240839   6.418   2.548   7.769
 6427TIP3    H140840   6.502   2.587   7.794
 6427TIP3    H240841   6.425   2.456   7.796
 6428TIP3   OH240842   2.278   4.051   0.676
 6428TIP3    H140843   2.257   3.999   0.755
 6428TIP3    H240844   2.272   4.142   0.705
 6429TIP3   OH240845   4.052   6.524   7.757
 6429TIP3    H140846   4.079   6.497   7.669
 6429TIP3    H240847   3.975   6.471   7.776
 6430TIP3   OH240848   6.089   2.539   1.324
 6430TIP3    H140849   6.012   2.545   1.268
 6430TIP3    H240850   6.088   2.449   1.358
 6431TIP3   OH240851   6.783   4.660   8.333
 6431TIP3    H140852   6.827   4.701   8.407
 6431TIP3    H240853   6.707   4.617   8.372
 6432TIP3   OH240854   2.633   3.108   7.064
 6432TIP3    H140855   2.595   3.188   7.102
 6432TIP3    H240856   2.721   3.135   7.037
 6433TIP3   OH240857   5.249   6.791   2.094
 6433TIP3    H140858   5.161   6.809   2.062
 6433TIP3    H240859   5.297   6.873   2.079
 6434TIP3   OH240860   4.610   4.418   0.688
 6434TIP3    H140861   4.564   4.339   0.657
 6434TIP3    H240862   4.671   4.386   0.754
 6435TIP3   OH240863   1.852   4.815   8.138
 6435TIP3    H140864   1.817   4.847   8.221
 6435TIP3    H240865   1.802   4.863   8.071
 6436TIP3   OH240866   2.929   1.932   7.079
 6436TIP3    H140867   3.024   1.932   7.088
 6436TIP3    H240868   2.913   1.919   6.986
 6437TIP3   OH240869   0.888   4.350   8.830
 6437TIP3    H140870   0.892   4.366   8.735
 6437TIP3    H240871   0.829   4.417   8.863
 6438TIP3   OH240872   6.673   1.740   0.591
 6438TIP3    H140873   6.647   1.779   0.674
 6438TIP3    H240874   6.769   1.738   0.595
 6439TIP3   OH240875   2.502   4.247   6.377
 6439TIP3    H140876   2.418   4.292   6.383
 6439TIP3    H240877   2.565   4.316   6.356
 6440TIP3   OH240878   0.432   5.276   7.323
 6440TIP3    H140879   0.348   5.311   7.294
 6440TIP3    H240880   0.496   5.314   7.263
 6441TIP3   OH240881   2.813   4.452   8.665
 6441TIP3    H140882   2.806   4.360   8.640
 6441TIP3    H240883   2.746   4.464   8.732
 6442TIP3   OH240884   0.577   3.475   8.141
 6442TIP3    H140885   0.514   3.523   8.194
 6442TIP3    H240886   0.523   3.425   8.079
 6443TIP3   OH240887   5.974   0.794   8.555
 6443TIP3    H140888   6.005   0.716   8.508
 6443TIP3    H240889   6.032   0.801   8.630
 6444TIP3   OH240890   6.445   4.362   8.806
 6444TIP3    H140891   6.469   4.271   8.823
 6444TIP3    H240892   6.390   4.357   8.727
 6445TIP3   OH240893   3.171   4.094   7.035
 6445TIP3    H140894   3.142   4.139   7.114
 6445TIP3    H240895   3.247   4.145   7.006
 6446TIP3   OH240896   3.757   3.985   1.293
 6446TIP3    H140897   3.835   3.938   1.324
 6446TIP3    H240898   3.750   4.061   1.351
 6447TIP3   OH240899   5.288   1.852   1.156
 6447TIP3    H140900   5.202   1.879   1.188
 6447TIP3    H240901   5.323   1.795   1.224
 6448TIP3   OH240902   0.389   4.895   7.582
 6448TIP3    H140903   0.434   4.939   7.510
 6448TIP3    H240904   0.344   4.965   7.629
 6449TIP3   OH240905   3.414   3.384   0.196
 6449TIP3    H140906   3.341   3.351   0.249
 6449TIP3    H240907   3.415   3.478   0.213
 6450TIP3   OH240908   4.161   4.618   7.960
 6450TIP3    H140909   4.203   4.546   7.913
 6450TIP3    H240910   4.133   4.679   7.892
 6451TIP3   OH240911   6.142   2.840   8.537
 6451TIP3    H140912   6.211   2.775   8.554
 6451TIP3    H240913   6.112   2.867   8.623
 6452TIP3   OH240914   4.917   2.107   8.610
 6452TIP3    H140915   4.870   2.190   8.598
 6452TIP3    H240916   4.965   2.094   8.528
 6453TIP3   OH240917   2.769   1.169   1.130
 6453TIP3    H140918   2.863   1.161   1.151
 6453TIP3    H240919   2.730   1.090   1.166
 6454TIP3   OH240920   0.061   2.985   2.250
 6454TIP3    H140921   0.003   2.913   2.271
 6454TIP3    H240922   0.138   2.944   2.210
 6455TIP3   OH240923   1.340   5.465   0.849
 6455TIP3    H140924   1.406   5.441   0.783
 6455TIP3    H240925   1.258   5.472   0.799
 6456TIP3   OH240926   5.103   6.535   1.419
 6456TIP3    H140927   5.140   6.581   1.494
 6456TIP3    H240928   5.124   6.590   1.344
 6457TIP3   OH240929   2.941   0.665   0.913
 6457TIP3    H140930   2.950   0.604   0.840
 6457TIP3    H240931   2.949   0.752   0.874
 6458TIP3   OH240932   5.682   1.583   0.752
 6458TIP3    H140933   5.688   1.677   0.731
 6458TIP3    H240934   5.604   1.575   0.806
 6459TIP3   OH240935   6.428   1.291   8.433
 6459TIP3    H140936   6.339   1.320   8.416
 6459TIP3    H240937   6.450   1.235   8.359
 6460TIP3   OH240938   3.288   5.036   1.410
 6460TIP3    H140939   3.271   5.108   1.350
 6460TIP3    H240940   3.248   5.062   1.493
 6461TIP3   OH240941   0.544   4.509   6.613
 6461TIP3    H140942   0.520   4.574   6.546
 6461TIP3    H240943   0.633   4.533   6.639
 6462TIP3   OH240944   2.712   3.279   6.426
 6462TIP3    H140945   2.642   3.335   6.459
 6462TIP3    H240946   2.733   3.315   6.340
 6463TIP3   OH240947   5.614   0.711   7.578
 6463TIP3    H140948   5.644   0.713   7.487
 6463TIP3    H240949   5.694   0.694   7.629
 6464TIP3   OH240950   4.149   6.318   1.312
 6464TIP3    H140951   4.193   6.260   1.249
 6464TIP3    H240952   4.122   6.394   1.259
 6465TIP3   OH240953   3.346   5.207   7.580
 6465TIP3    H140954   3.357   5.272   7.649
 6465TIP3    H240955   3.318   5.128   7.626
 6466TIP3   OH240956   5.298   4.119   8.835
 6466TIP3    H140957   5.203   4.129   8.842
 6466TIP3    H240958   5.332   4.203   8.865
 6467TIP3   OH240959   1.371   5.979   6.386
 6467TIP3    H140960   1.432   5.952   6.455
 6467TIP3    H240961   1.327   6.056   6.421
 6468TIP3   OH240962   4.025   0.409   8.255
 6468TIP3    H140963   4.014   0.457   8.172
 6468TIP3    H240964   4.120   0.398   8.264
 6469TIP3   OH240965   6.234   2.776   0.075
 6469TIP3    H140966   6.264   2.707   0.135
 6469TIP3    H240967   6.315   2.813   0.039
 6470TIP3   OH240968   1.617   3.243   0.583
 6470TIP3    H140969   1.536   3.192   0.584
 6470TIP3    H240970   1.673   3.202   0.649
 6471TIP3   OH240971   2.394   1.878   0.764
 6471TIP3    H140972   2.368   1.970   0.754
 6471TIP3    H240973   2.480   1.882   0.805
 6472TIP3   OH240974   0.416   5.597   6.185
 6472TIP3    H140975   0.477   5.665   6.158
 6472TIP3    H240976   0.341   5.644   6.221
 6473TIP3   OH240977   3.095   2.748   6.864
 6473TIP3    H140978   3.152   2.750   6.788
 6473TIP3    H240979   3.008   2.766   6.829
 6474TIP3   OH240980   2.380   2.301   7.131
 6474TIP3    H140981   2.412   2.245   7.059
 6474TIP3    H240982   2.377   2.243   7.207
 6475TIP3   OH240983   0.401   0.519   8.597
 6475TIP3    H140984   0.493   0.545   8.602
 6475TIP3    H240985   0.352   0.601   8.602
 6476TIP3   OH240986   1.633   0.894   7.813
 6476TIP3    H140987   1.676   0.840   7.879
 6476TIP3    H240988   1.695   0.964   7.795
 6477TIP3   OH240989   2.764   2.941   1.508
 6477TIP3    H140990   2.752   2.848   1.526
 6477TIP3    H240991   2.782   2.980   1.594
 6478TIP3   OH240992   6.507   5.172   1.430
 6478TIP3    H140993   6.472   5.171   1.519
 6478TIP3    H240994   6.602   5.160   1.441
 6479TIP3   OH240995   4.464   6.283   0.222
 6479TIP3    H140996   4.400   6.235   0.274
 6479TIP3    H240997   4.417   6.306   0.141
 6480TIP3   OH240998   4.984   6.090   6.771
 6480TIP3    H140999   5.027   6.006   6.786
 6480TIP3    H241000   4.979   6.098   6.675
 6481TIP3   OH241001   5.506   2.968   0.955
 6481TIP3    H141002   5.463   2.960   0.869
 6481TIP3    H241003   5.452   3.030   1.004
 6482TIP3   OH241004   3.421   3.621   7.237
 6482TIP3    H141005   3.475   3.584   7.306
 6482TIP3    H241006   3.402   3.547   7.179
 6483TIP3   OH241007   0.311   3.658   1.074
 6483TIP3    H141008   0.284   3.615   1.155
 6483TIP3    H241009   0.363   3.593   1.028
 6484TIP3   OH241010   5.507   4.557   8.282
 6484TIP3    H141011   5.591   4.595   8.304
 6484TIP3    H241012   5.528   4.484   8.224
 6485TIP3   OH241013   3.607   6.285   0.166
 6485TIP3    H141014   3.541   6.253   0.228
 6485TIP3    H241015   3.616   6.214   0.102
 6486TIP3   OH241016   6.453   4.794   1.558
 6486TIP3    H141017   6.429   4.877   1.599
 6486TIP3    H241018   6.412   4.727   1.613
 6487TIP3   OH241019   4.963   1.765   8.824
 6487TIP3    H141020   4.913   1.776   8.743
 6487TIP3    H241021   4.907   1.712   8.880
 6488TIP3   OH241022   2.640   1.813   7.525
 6488TIP3    H141023   2.709   1.796   7.460
 6488TIP3    H241024   2.582   1.738   7.519
 6489TIP3   OH241025   1.168   2.257   6.301
 6489TIP3    H141026   1.206   2.274   6.388
 6489TIP3    H241027   1.227   2.192   6.262
 6490TIP3   OH241028   3.682   3.480   1.945
 6490TIP3    H141029   3.767   3.452   1.911
 6490TIP3    H241030   3.657   3.410   2.006
 6491TIP3   OH241031   2.165   6.228   0.737
 6491TIP3    H141032   2.178   6.311   0.781
 6491TIP3    H241033   2.143   6.252   0.647
 6492TIP3   OH241034   0.774   1.814   8.246
 6492TIP3    H141035   0.790   1.833   8.154
 6492TIP3    H241036   0.794   1.897   8.291
 6493TIP3   OH241037   6.669   1.164   0.316
 6493TIP3    H141038   6.614   1.115   0.255
 6493TIP3    H241039   6.752   1.116   0.318
 6494TIP3   OH241040   5.062   2.430   8.753
 6494TIP3    H141041   5.015   2.383   8.822
 6494TIP3    H241042   5.098   2.507   8.797
 6495TIP3   OH241043   3.417   1.412   8.248
 6495TIP3    H141044   3.436   1.326   8.209
 6495TIP3    H241045   3.382   1.464   8.176
 6496TIP3   OH241046   0.611   5.308   0.328
 6496TIP3    H141047   0.652   5.300   0.242
 6496TIP3    H241048   0.683   5.319   0.390
 6497TIP3   OH241049   2.067   6.640   0.351
 6497TIP3    H141050   2.003   6.666   0.285
 6497TIP3    H241051   2.130   6.711   0.354
 6498TIP3   OH241052   6.434   6.521   7.618
 6498TIP3    H141053   6.379   6.470   7.559
 6498TIP3    H241054   6.508   6.549   7.564
 6499TIP3   OH241055   0.329   4.907   1.297
 6499TIP3    H141056   0.412   4.868   1.323
 6499TIP3    H241057   0.350   4.963   1.223
 6500TIP3   OH241058   4.687   3.276   6.159
 6500TIP3    H141059   4.603   3.318   6.143
 6500TIP3    H241060   4.673   3.223   6.238
 6501TIP3   OH241061   0.751   5.956   7.430
 6501TIP3    H141062   0.756   6.046   7.396
 6501TIP3    H241063   0.835   5.916   7.405
 6502TIP3   OH241064   6.037   3.642   2.006
 6502TIP3    H141065   6.040   3.737   2.019
 6502TIP3    H241066   5.974   3.629   1.936
 6503TIP3   OH241067   0.928   0.208   7.844
 6503TIP3    H141068   0.974   0.142   7.895
 6503TIP3    H241069   0.877   0.158   7.780
 6504TIP3   OH241070   6.437   3.878   1.362
 6504TIP3    H141071   6.447   3.947   1.297
 6504TIP3    H241072   6.524   3.839   1.370
 6505TIP3   OH241073   6.794   4.430   7.841
 6505TIP3    H141074   6.700   4.415   7.829
 6505TIP3    H241075   6.832   4.418   7.754
 6506TIP3   OH241076   3.045   4.163   8.786
 6506TIP3    H141077   3.044   4.069   8.805
 6506TIP3    H241078   2.972   4.175   8.726
 6507TIP3   OH241079   4.708   3.620   1.274
 6507TIP3    H141080   4.641   3.589   1.213
 6507TIP3    H241081   4.723   3.545   1.332
 6508TIP3   OH241082   4.259   4.930   1.113
 6508TIP3    H141083   4.231   4.840   1.133
 6508TIP3    H241084   4.351   4.932   1.137
 6509TIP3   OH241085   2.037   1.033   6.316
 6509TIP3    H141086   1.955   1.049   6.364
 6509TIP3    H241087   2.009   0.997   6.232
 6510TIP3   OH241088   1.252   5.242   0.189
 6510TIP3    H141089   1.197   5.289   0.251
 6510TIP3    H241090   1.240   5.150   0.212
 6511TIP3   OH241091   1.820   3.678   6.673
 6511TIP3    H141092   1.791   3.698   6.762
 6511TIP3    H241093   1.881   3.606   6.684
 6512TIP3   OH241094   1.978   1.302   8.053
 6512TIP3    H141095   2.027   1.377   8.086
 6512TIP3    H241096   1.895   1.304   8.100
 6513TIP3   OH241097   0.343   4.993   0.333
 6513TIP3    H141098   0.254   4.963   0.353
 6513TIP3    H241099   0.396   4.963   0.407
 6514TIP3   OH241100   3.013   4.466   7.099
 6514TIP3    H141101   3.013   4.561   7.091
 6514TIP3    H241102   3.097   4.445   7.140
 6515TIP3   OH241103   1.056   5.250   8.689
 6515TIP3    H141104   1.046   5.321   8.753
 6515TIP3    H241105   1.061   5.294   8.605
 6516TIP3   OH241106   1.957   5.259   0.031
 6516TIP3    H141107   1.975   5.350   0.054
 6516TIP3    H241108   1.929   5.218   0.113
 6517TIP3   OH241109   3.672   3.375   6.366
 6517TIP3    H141110   3.696   3.296   6.415
 6517TIP3    H241111   3.677   3.349   6.274
 6518TIP3   OH241112   5.405   0.533   7.603
 6518TIP3    H141113   5.395   0.542   7.698
 6518TIP3    H241114   5.471   0.598   7.579
 6519TIP3   OH241115   2.302   0.722   8.739
 6519TIP3    H141116   2.222   0.677   8.765
 6519TIP3    H241117   2.278   0.815   8.739
 6520TIP3   OH241118   4.020   1.961   0.035
 6520TIP3    H141119   4.002   1.903   0.109
 6520TIP3    H241120   4.116   1.962   0.029
 6521TIP3   OH241121   3.814   2.924   7.675
 6521TIP3    H141122   3.864   2.907   7.755
 6521TIP3    H241123   3.770   2.842   7.656
 6522TIP3   OH241124   0.178   1.190   8.085
 6522TIP3    H141125   0.223   1.214   8.167
 6522TIP3    H241126   0.202   1.259   8.023
 6523TIP3   OH241127   4.946   4.722   0.249
 6523TIP3    H141128   4.954   4.709   0.343
 6523TIP3    H241129   4.852   4.718   0.232
 6524TIP3   OH241130   6.174   3.849   7.090
 6524TIP3    H141131   6.120   3.803   7.026
 6524TIP3    H241132   6.143   3.940   7.086
 6525TIP3   OH241133   3.675   4.113   8.823
 6525TIP3    H141134   3.615   4.074   8.887
 6525TIP3    H241135   3.657   4.065   8.742
 6526TIP3   OH241136   0.553   0.675   6.729
 6526TIP3    H141137   0.590   0.649   6.645
 6526TIP3    H241138   0.561   0.770   6.731
 6527TIP3   OH241139   5.470   3.142   6.727
 6527TIP3    H141140   5.527   3.216   6.709
 6527TIP3    H241141   5.502   3.072   6.669
 6528TIP3   OH241142   1.840   6.456   0.383
 6528TIP3    H141143   1.806   6.391   0.445
 6528TIP3    H241144   1.902   6.408   0.329
 6529TIP3   OH241145   0.559   3.676   1.734
 6529TIP3    H141146   0.608   3.645   1.810
 6529TIP3    H241147   0.560   3.602   1.673
 6530TIP3   OH241148   4.191   1.389   7.503
 6530TIP3    H141149   4.183   1.346   7.418
 6530TIP3    H241150   4.259   1.455   7.491
 6531TIP3   OH241151   3.512   6.523   2.014
 6531TIP3    H141152   3.596   6.479   1.998
 6531TIP3    H241153   3.489   6.498   2.104
 6532TIP3   OH241154   3.562   1.417   8.497
 6532TIP3    H141155   3.522   1.335   8.528
 6532TIP3    H241156   3.520   1.433   8.413
 6533TIP3   OH241157   4.086   4.804   0.805
 6533TIP3    H141158   4.040   4.837   0.728
 6533TIP3    H241159   4.177   4.832   0.792
 6534TIP3   OH241160   4.399   2.488   1.381
 6534TIP3    H141161   4.396   2.530   1.467
 6534TIP3    H241162   4.392   2.394   1.399
 6535TIP3   OH241163   2.534   0.285   7.165
 6535TIP3    H141164   2.546   0.238   7.083
 6535TIP3    H241165   2.440   0.275   7.185
 6536TIP3   OH241166   3.694   5.871   7.926
 6536TIP3    H141167   3.629   5.812   7.964
 6536TIP3    H241168   3.675   5.956   7.965
 6537TIP3   OH241169   6.168   0.219   1.567
 6537TIP3    H141170   6.106   0.221   1.640
 6537TIP3    H241171   6.133   0.155   1.506
 6538TIP3   OH241172   5.517   1.064   7.162
 6538TIP3    H141173   5.580   1.008   7.118
 6538TIP3    H241174   5.557   1.083   7.248
 6539TIP3   OH241175   3.599   2.093   1.844
 6539TIP3    H141176   3.617   2.022   1.906
 6539TIP3    H241177   3.621   2.173   1.892
 6540TIP3   OH241178   3.382   4.436   0.848
 6540TIP3    H141179   3.318   4.442   0.778
 6540TIP3    H241180   3.342   4.377   0.912
 6541TIP3   OH241181   0.480   3.650   6.406
 6541TIP3    H141182   0.428   3.715   6.359
 6541TIP3    H241183   0.452   3.566   6.371
 6542TIP3   OH241184   6.426   1.709   7.258
 6542TIP3    H141185   6.466   1.637   7.306
 6542TIP3    H241186   6.433   1.785   7.316
 6543TIP3   OH241187   4.277   2.641   7.737
 6543TIP3    H141188   4.339   2.709   7.762
 6543TIP3    H241189   4.326   2.559   7.746
 6544TIP3   OH241190   3.748   1.927   1.085
 6544TIP3    H141191   3.808   1.940   1.012
 6544TIP3    H241192   3.668   1.974   1.060
 6545TIP3   OH241193   6.556   3.453   8.457
 6545TIP3    H141194   6.633   3.508   8.445
 6545TIP3    H241195   6.578   3.397   8.531
 6546TIP3   OH241196   2.002   3.340   1.176
 6546TIP3    H141197   2.008   3.281   1.101
 6546TIP3    H241198   1.909   3.360   1.183
 6547TIP3   OH241199   0.433   2.305   1.294
 6547TIP3    H141200   0.392   2.274   1.375
 6547TIP3    H241201   0.446   2.399   1.308
 6548TIP3   OH241202   4.508   0.611   7.981
 6548TIP3    H141203   4.492   0.517   7.971
 6548TIP3    H241204   4.449   0.652   7.918
 6549TIP3   OH241205   5.359   5.767   8.106
 6549TIP3    H141206   5.348   5.857   8.078
 6549TIP3    H241207   5.366   5.772   8.202
 6550TIP3   OH241208   4.864   5.780   8.402
 6550TIP3    H141209   4.952   5.744   8.408
 6550TIP3    H241210   4.874   5.872   8.428
 6551TIP3   OH241211   4.795   2.036   1.952
 6551TIP3    H141212   4.734   2.106   1.972
 6551TIP3    H241213   4.740   1.964   1.920
 6552TIP3   OH241214   2.119   4.250   7.337
 6552TIP3    H141215   2.148   4.196   7.263
 6552TIP3    H241216   2.178   4.225   7.409
 6553TIP3   OH241217   3.014   3.180   1.680
 6553TIP3    H141218   2.921   3.163   1.696
 6553TIP3    H241219   3.054   3.094   1.676
 6554TIP3   OH241220   0.645   1.019   8.490
 6554TIP3    H141221   0.734   1.055   8.489
 6554TIP3    H241222   0.646   0.952   8.422
 6555TIP3   OH241223   6.219   6.196   1.948
 6555TIP3    H141224   6.217   6.132   2.019
 6555TIP3    H241225   6.228   6.144   1.869
 6556TIP3   OH241226   3.039   2.547   8.668
 6556TIP3    H141227   3.090   2.529   8.589
 6556TIP3    H241228   3.077   2.492   8.736
 6557TIP3   OH241229   4.769   2.496   7.638
 6557TIP3    H141230   4.691   2.456   7.600
 6557TIP3    H241231   4.811   2.541   7.565
 6558TIP3   OH241232   5.282   1.180   7.869
 6558TIP3    H141233   5.370   1.210   7.893
 6558TIP3    H241234   5.232   1.184   7.951
 6559TIP3   OH241235   3.249   5.273   0.926
 6559TIP3    H141236   3.197   5.230   0.858
 6559TIP3    H241237   3.184   5.300   0.991
 6560TIP3   OH241238   5.582   4.440   0.092
 6560TIP3    H141239   5.500   4.444   0.044
 6560TIP3    H241240   5.627   4.363   0.058
 6561TIP3   OH241241   0.347   3.577   8.297
 6561TIP3    H141242   0.273   3.590   8.356
 6561TIP3    H241243   0.307   3.557   8.212
 6562TIP3   OH241244   4.957   4.176   7.458
 6562TIP3    H141245   4.963   4.129   7.541
 6562TIP3    H241246   4.910   4.116   7.400
 6563TIP3   OH241247   0.845   4.180   0.209
 6563TIP3    H141248   0.849   4.243   0.137
 6563TIP3    H241249   0.853   4.233   0.288
 6564TIP3   OH241250   2.209   2.108   8.210
 6564TIP3    H141251   2.176   2.105   8.300
 6564TIP3    H241252   2.131   2.110   8.155
 6565TIP3   OH241253   2.634   1.711   0.232
 6565TIP3    H141254   2.549   1.668   0.225
 6565TIP3    H241255   2.626   1.765   0.311
 6566TIP3   OH241256   4.418   3.141   2.077
 6566TIP3    H141257   4.347   3.078   2.063
 6566TIP3    H241258   4.390   3.191   2.154
 6567TIP3   OH241259   4.332   5.814   6.302
 6567TIP3    H141260   4.309   5.866   6.379
 6567TIP3    H241261   4.309   5.725   6.327
 6568TIP3   OH241262   3.926   1.584   2.671
 6568TIP3    H141263   3.844   1.563   2.715
 6568TIP3    H241264   3.930   1.523   2.597
 6569TIP3   OH241265   4.036   0.943   7.332
 6569TIP3    H141266   4.000   0.949   7.243
 6569TIP3    H241267   3.960   0.921   7.387
 6570TIP3   OH241268   4.438   1.950   7.845
 6570TIP3    H141269   4.381   1.917   7.914
 6570TIP3    H241270   4.489   1.874   7.817
 6571TIP3   OH241271   6.508   1.531   7.464
 6571TIP3    H141272   6.587   1.548   7.517
 6571TIP3    H241273   6.448   1.487   7.524
 6572TIP3   OH241274   1.331   0.224   8.124
 6572TIP3    H141275   1.251   0.232   8.071
 6572TIP3    H241276   1.318   0.143   8.175
 6573TIP3   OH241277   6.464   5.281   7.682
 6573TIP3    H141278   6.520   5.357   7.694
 6573TIP3    H241279   6.431   5.289   7.592
 6574TIP3   OH241280   0.197   2.270   8.544
 6574TIP3    H141281   0.106   2.247   8.561
 6574TIP3    H241282   0.207   2.357   8.584
 6575TIP3   OH241283   1.838   4.172   0.468
 6575TIP3    H141284   1.890   4.251   0.474
 6575TIP3    H241285   1.859   4.135   0.383
 6576TIP3   OH241286   4.345   5.987   8.386
 6576TIP3    H141287   4.418   5.949   8.435
 6576TIP3    H241288   4.295   5.912   8.355
 6577TIP3   OH241289   3.541   2.426   6.874
 6577TIP3    H141290   3.497   2.402   6.792
 6577TIP3    H241291   3.552   2.521   6.868
 6578TIP3   OH241292   1.545   0.218   2.125
 6578TIP3    H141293   1.466   0.271   2.121
 6578TIP3    H241294   1.615   0.280   2.146
 6579TIP3   OH241295   2.229   2.795   1.553
 6579TIP3    H141296   2.309   2.805   1.605
 6579TIP3    H241297   2.234   2.865   1.488
 6580TIP3   OH241298   5.265   0.359   7.877
 6580TIP3    H141299   5.284   0.310   7.957
 6580TIP3    H241300   5.208   0.431   7.905
 6581TIP3   OH241301   4.730   2.225   8.373
 6581TIP3    H141302   4.795   2.285   8.409
 6581TIP3    H241303   4.770   2.191   8.293
 6582TIP3   OH241304   0.638   1.910   1.265
 6582TIP3    H141305   0.683   1.826   1.265
 6582TIP3    H241306   0.564   1.898   1.325
 6583TIP3   OH241307   0.894   3.918   0.279
 6583TIP3    H141308   0.989   3.908   0.270
 6583TIP3    H241309   0.879   4.012   0.267
 6584TIP3   OH241310   4.348   4.980   8.833
 6584TIP3    H141311   4.315   4.899   8.871
 6584TIP3    H241312   4.304   5.050   8.881
 6585TIP3   OH241313   0.185   6.611   7.048
 6585TIP3    H141314   0.204   6.692   7.001
 6585TIP3    H241315   0.227   6.542   6.995
 6586TIP3   OH241316   1.057   1.691   8.060
 6586TIP3    H141317   0.982   1.745   8.035
 6586TIP3    H241318   1.065   1.627   7.989
 6587TIP3   OH241319   5.067   6.677   7.417
 6587TIP3    H141320   5.044   6.598   7.369
 6587TIP3    H241321   5.150   6.706   7.378
 6588TIP3   OH241322   4.364   0.838   1.237
 6588TIP3    H141323   4.399   0.848   1.149
 6588TIP3    H241324   4.439   0.854   1.294
 6589TIP3   OH241325   4.755   5.960   7.170
 6589TIP3    H141326   4.695   5.899   7.126
 6589TIP3    H241327   4.796   5.907   7.239
 6590TIP3   OH241328   3.577   4.026   6.788
 6590TIP3    H141329   3.666   4.047   6.758
 6590TIP3    H241330   3.584   3.937   6.822
 6591TIP3   OH241331   3.103   0.055   1.621
 6591TIP3    H141332   3.132   0.110   1.548
 6591TIP3    H241333   3.079  -0.028   1.581
 6592TIP3   OH241334   3.456   2.702   7.762
 6592TIP3    H141335   3.499   2.777   7.801
 6592TIP3    H241336   3.363   2.716   7.776
 6593TIP3   OH241337   3.359   3.356   1.517
 6593TIP3    H141338   3.346   3.356   1.423
 6593TIP3    H241339   3.277   3.323   1.554
 6594TIP3   OH241340   2.776   0.592   1.755
 6594TIP3    H141341   2.813   0.557   1.837
 6594TIP3    H241342   2.731   0.672   1.782
 6595TIP3   OH241343   2.718   2.627   7.123
 6595TIP3    H141344   2.808   2.602   7.141
 6595TIP3    H241345   2.724   2.714   7.082
 6596TIP3   OH241346   1.961   0.867   1.864
 6596TIP3    H141347   1.868   0.892   1.865
 6596TIP3    H241348   1.965   0.789   1.921
 6597TIP3   OH241349   3.529   2.038   0.967
 6597TIP3    H141350   3.477   2.111   0.934
 6597TIP3    H241351   3.539   1.979   0.892
 6598TIP3   OH241352   6.466   2.842   8.821
 6598TIP3    H141353   6.459   2.916   8.761
 6598TIP3    H241354   6.552   2.805   8.802
 6599TIP3   OH241355   2.432   1.385   8.617
 6599TIP3    H141356   2.478   1.340   8.546
 6599TIP3    H241357   2.348   1.411   8.579
 6600TIP3   OH241358   3.850   4.061   1.891
 6600TIP3    H141359   3.831   3.973   1.860
 6600TIP3    H241360   3.845   4.055   1.986
 6601TIP3   OH241361   6.764   3.758   8.787
 6601TIP3    H141362   6.730   3.678   8.747
 6601TIP3    H241363   6.859   3.747   8.786
 6602TIP3   OH241364   6.131   0.733   6.894
 6602TIP3    H141365   6.184   0.769   6.823
 6602TIP3    H241366   6.041   0.741   6.864
 6603TIP3   OH241367   0.003   0.736   7.336
 6603TIP3    H141368   0.051   0.815   7.314
 6603TIP3    H241369  -0.006   0.690   7.253
 6604TIP3   OH241370   6.343   5.272   8.598
 6604TIP3    H141371   6.305   5.249   8.683
 6604TIP3    H241372   6.277   5.246   8.535
 6605TIP3   OH241373   5.603   1.583   0.405
 6605TIP3    H141374   5.514   1.551   0.421
 6605TIP3    H241375   5.659   1.506   0.418
 6606TIP3   OH241376   3.006   1.505   1.163
 6606TIP3    H141377   3.091   1.470   1.189
 6606TIP3    H241378   3.015   1.600   1.170
 6607TIP3   OH241379   4.450   1.180   8.279
 6607TIP3    H141380   4.512   1.189   8.206
 6607TIP3    H241381   4.405   1.265   8.282
 6608TIP3   OH241382   6.152   0.765   8.775
 6608TIP3    H141383   6.214   0.700   8.808
 6608TIP3    H241384   6.203   0.846   8.771
 6609TIP3   OH241385   0.266   0.666   6.424
 6609TIP3    H141386   0.314   0.749   6.418
 6609TIP3    H241387   0.188   0.680   6.371
 6610TIP3   OH241388   3.008   0.448   1.346
 6610TIP3    H141389   2.932   0.466   1.401
 6610TIP3    H241390   2.991   0.495   1.265
 6611TIP3   OH241391   0.204   1.869   6.679
 6611TIP3    H141392   0.187   1.802   6.613
 6611TIP3    H241393   0.138   1.854   6.747
 6612TIP3   OH241394   0.894   6.044   8.485
 6612TIP3    H141395   0.973   6.042   8.540
 6612TIP3    H241396   0.880   6.137   8.468
 6613TIP3   OH241397   3.420   3.983   8.419
 6613TIP3    H141398   3.424   3.908   8.479
 6613TIP3    H241399   3.429   4.059   8.475
 6614TIP3   OH241400   5.647   5.549   0.832
 6614TIP3    H141401   5.568   5.525   0.880
 6614TIP3    H241402   5.617   5.611   0.766
 6615TIP3   OH241403   1.418   0.618   6.740
 6615TIP3    H141404   1.387   0.539   6.784
 6615TIP3    H241405   1.468   0.585   6.665
 6616TIP3   OH241406   3.016   2.884   7.106
 6616TIP3    H141407   2.991   2.964   7.060
 6616TIP3    H241408   3.027   2.819   7.037
 6617TIP3   OH241409   3.126   2.467   7.815
 6617TIP3    H141410   3.045   2.434   7.856
 6617TIP3    H241411   3.192   2.401   7.836
 6618TIP3   OH241412   4.982   0.106   7.739
 6618TIP3    H141413   5.018   0.149   7.662
 6618TIP3    H241414   4.887   0.121   7.734
 6619TIP3   OH241415   3.706   1.138   8.663
 6619TIP3    H141416   3.612   1.153   8.672
 6619TIP3    H241417   3.746   1.222   8.686
 6620TIP3   OH241418   1.141   3.476   1.993
 6620TIP3    H141419   1.208   3.528   1.949
 6620TIP3    H241420   1.085   3.540   2.036
 6621TIP3   OH241421   4.181   0.803   0.406
 6621TIP3    H141422   4.237   0.767   0.475
 6621TIP3    H241423   4.122   0.732   0.382
 6622TIP3   OH241424   5.428   1.320   6.726
 6622TIP3    H141425   5.464   1.237   6.694
 6622TIP3    H241426   5.483   1.387   6.686
 6623TIP3   OH241427   5.908   4.083   8.239
 6623TIP3    H141428   5.956   4.126   8.310
 6623TIP3    H241429   5.931   3.991   8.248
 6624TIP3   OH241430   1.634   2.662   6.847
 6624TIP3    H141431   1.699   2.625   6.787
 6624TIP3    H241432   1.657   2.755   6.852
 6625TIP3   OH241433   5.851   1.798   6.857
 6625TIP3    H141434   5.884   1.829   6.941
 6625TIP3    H241435   5.915   1.831   6.793
 6626TIP3   OH241436   5.119   3.173   0.307
 6626TIP3    H141437   5.101   3.085   0.339
 6626TIP3    H241438   5.060   3.184   0.233
 6627TIP3   OH241439   2.909   1.238   7.524
 6627TIP3    H141440   2.899   1.193   7.441
 6627TIP3    H241441   2.845   1.309   7.521
 6628TIP3   OH241442   1.684   1.699   7.655
 6628TIP3    H141443   1.605   1.662   7.695
 6628TIP3    H241444   1.747   1.705   7.727
 6629TIP3   OH241445   0.021   5.405   8.603
 6629TIP3    H141446   0.015   5.499   8.617
 6629TIP3    H241447  -0.038   5.367   8.669
 6630TIP3   OH241448   1.116   1.580   7.505
 6630TIP3    H141449   1.127   1.500   7.557
 6630TIP3    H241450   1.026   1.575   7.474
 6631TIP3   OH241451   1.990   5.782   8.649
 6631TIP3    H141452   1.983   5.764   8.555
 6631TIP3    H241453   2.021   5.699   8.686
 6632TIP3   OH241454   3.407   5.548   6.672
 6632TIP3    H141455   3.357   5.594   6.604
 6632TIP3    H241456   3.469   5.493   6.622
 6633TIP3   OH241457   0.162   3.887   1.126
 6633TIP3    H141458   0.105   3.857   1.197
 6633TIP3    H241459   0.215   3.810   1.104
 6634TIP3   OH241460   5.196   1.110   1.537
 6634TIP3    H141461   5.197   1.175   1.466
 6634TIP3    H241462   5.124   1.051   1.514
 6635TIP3   OH241463   6.325   1.405   7.640
 6635TIP3    H141464   6.231   1.391   7.654
 6635TIP3    H241465   6.367   1.359   7.713
 6636TIP3   OH241466   3.801   1.988   8.726
 6636TIP3    H141467   3.778   1.896   8.731
 6636TIP3    H241468   3.873   1.999   8.787
 6637TIP3   OH241469   1.694   1.591   1.690
 6637TIP3    H141470   1.789   1.598   1.694
 6637TIP3    H241471   1.666   1.672   1.646
 6638TIP3   OH241472   4.658   2.015   8.046
 6638TIP3    H141473   4.600   2.090   8.035
 6638TIP3    H241474   4.605   1.950   8.092
 6639TIP3   OH241475   2.433   2.715   1.128
 6639TIP3    H141476   2.488   2.782   1.089
 6639TIP3    H241477   2.364   2.764   1.173
 6640TIP3   OH241478   2.515   5.150   8.109
 6640TIP3    H141479   2.546   5.147   8.019
 6640TIP3    H241480   2.538   5.238   8.139
 6641TIP3   OH241481   2.087   1.654   8.720
 6641TIP3    H141482   2.136   1.728   8.685
 6641TIP3    H241483   2.005   1.692   8.752
 6642TIP3   OH241484   2.088   1.576   0.243
 6642TIP3    H141485   2.139   1.543   0.318
 6642TIP3    H241486   2.104   1.512   0.173
 6643TIP3   OH241487   0.939   5.138   8.176
 6643TIP3    H141488   0.880   5.180   8.239
 6643TIP3    H241489   0.896   5.150   8.091
 6644TIP3   OH241490   0.721   3.943   8.251
 6644TIP3    H141491   0.802   3.893   8.242
 6644TIP3    H241492   0.652   3.882   8.228
 6645TIP3   OH241493   4.354   6.506   1.489
 6645TIP3    H141494   4.280   6.532   1.434
 6645TIP3    H241495   4.419   6.575   1.477
 6646TIP3   OH241496   1.531   1.957   8.230
 6646TIP3    H141497   1.625   1.965   8.244
 6646TIP3    H241498   1.500   2.046   8.217
 6647TIP3   OH241499   2.179   6.213   8.653
 6647TIP3    H141500   2.192   6.301   8.616
 6647TIP3    H241501   2.123   6.169   8.589
 6648TIP3   OH241502   0.313   6.673   1.310
 6648TIP3    H141503   0.389   6.629   1.271
 6648TIP3    H241504   0.329   6.766   1.294
 6649TIP3   OH241505   6.366   5.186   1.212
 6649TIP3    H141506   6.416   5.165   1.290
 6649TIP3    H241507   6.422   5.249   1.164
 6650TIP3   OH241508   5.027   4.814   7.493
 6650TIP3    H141509   5.002   4.900   7.460
 6650TIP3    H241510   4.949   4.760   7.482
 6651TIP3   OH241511   4.367   2.642   7.315
 6651TIP3    H141512   4.382   2.714   7.254
 6651TIP3    H241513   4.297   2.590   7.275
 6652TIP3   OH241514   5.975   2.323   7.851
 6652TIP3    H141515   6.006   2.274   7.775
 6652TIP3    H241516   6.018   2.408   7.844
 6653TIP3   OH241517   1.714   2.935   0.392
 6653TIP3    H141518   1.724   2.840   0.403
 6653TIP3    H241519   1.663   2.962   0.469
 6654TIP3   OH241520   5.703   2.167   2.797
 6654TIP3    H141521   5.711   2.256   2.831
 6654TIP3    H241522   5.689   2.178   2.703
 6655TIP3   OH241523   4.177   6.240   8.531
 6655TIP3    H141524   4.198   6.317   8.584
 6655TIP3    H241525   4.236   6.172   8.564
 6656TIP3   OH241526   2.758   1.572   8.020
 6656TIP3    H141527   2.773   1.599   8.110
 6656TIP3    H241528   2.679   1.619   7.993
 6657TIP3   OH241529   3.670   2.886   0.121
 6657TIP3    H141530   3.750   2.923   0.083
 6657TIP3    H241531   3.608   2.958   0.122
 6658TIP3   OH241532   0.979   4.110   8.741
 6658TIP3    H141533   0.990   4.175   8.672
 6658TIP3    H241534   0.943   4.159   8.815
 6659TIP3   OH241535   0.068   4.681   0.426
 6659TIP3    H141536   0.114   4.725   0.498
 6659TIP3    H241537   0.050   4.752   0.363
 6660TIP3   OH241538   3.945   6.051   1.348
 6660TIP3    H141539   4.034   6.084   1.334
 6660TIP3    H241540   3.947   5.963   1.310
 6661TIP3   OH241541   4.099   3.088   8.382
 6661TIP3    H141542   4.043   3.098   8.459
 6661TIP3    H241543   4.186   3.075   8.418
 6662TIP3   OH241544   4.109   5.646   7.924
 6662TIP3    H141545   4.098   5.740   7.916
 6662TIP3    H241546   4.204   5.633   7.918
 6663TIP3   OH241547   3.319   5.436   7.719
 6663TIP3    H141548   3.306   5.460   7.627
 6663TIP3    H241549   3.234   5.406   7.748
 6664TIP3   OH241550   0.741   5.635   2.416
 6664TIP3    H141551   0.678   5.624   2.486
 6664TIP3    H241552   0.721   5.565   2.354
 6665TIP3   OH241553   3.932   1.018   1.231
 6665TIP3    H141554   4.020   1.056   1.231
 6665TIP3    H241555   3.886   1.063   1.302
 6666TIP3   OH241556   2.807   3.455   1.352
 6666TIP3    H141557   2.788   3.371   1.394
 6666TIP3    H241558   2.772   3.447   1.264
 6667TIP3   OH241559   3.207   0.693   2.303
 6667TIP3    H141560   3.292   0.648   2.305
 6667TIP3    H241561   3.197   0.728   2.392
 6668TIP3   OH241562   1.927   1.242   0.213
 6668TIP3    H141563   1.928   1.307   0.142
 6668TIP3    H241564   1.907   1.293   0.291
 6669TIP3   OH241565   2.038   3.885   8.065
 6669TIP3    H141566   1.964   3.829   8.042
 6669TIP3    H241567   1.998   3.970   8.085
 6670TIP3   OH241568   3.189   2.338   7.391
 6670TIP3    H141569   3.242   2.313   7.315
 6670TIP3    H241570   3.250   2.384   7.448
 6671TIP3   OH241571   6.080   3.189   8.431
 6671TIP3    H141572   6.145   3.183   8.361
 6671TIP3    H241573   6.050   3.280   8.429
 6672TIP3   OH241574   5.621   4.860   1.344
 6672TIP3    H141575   5.634   4.781   1.397
 6672TIP3    H241576   5.541   4.843   1.294
 6673TIP3   OH241577   4.386   0.000   6.992
 6673TIP3    H141578   4.468  -0.024   7.035
 6673TIP3    H241579   4.346  -0.083   6.966
 6674TIP3   OH241580   3.968   5.937   8.478
 6674TIP3    H141581   3.928   5.990   8.547
 6674TIP3    H241582   4.031   5.997   8.436
 6675TIP3   OH241583   3.942   4.137   0.055
 6675TIP3    H141584   3.852   4.124   0.027
 6675TIP3    H241585   3.936   4.152   0.150
 6676TIP3   OH241586   5.302   0.017   7.138
 6676TIP3    H141587   5.263   0.051   7.218
 6676TIP3    H241588   5.373   0.078   7.117
 6677TIP3   OH241589   6.372   2.676   7.037
 6677TIP3    H141590   6.409   2.682   7.125
 6677TIP3    H241591   6.366   2.582   7.021
 6678TIP3   OH241592   2.164   2.462   6.978
 6678TIP3    H141593   2.240   2.449   6.921
 6678TIP3    H241594   2.192   2.427   7.063
 6679TIP3   OH241595   6.457   6.207   8.783
 6679TIP3    H141596   6.531   6.148   8.768
 6679TIP3    H241597   6.428   6.231   8.695
 6680TIP3   OH241598   3.655   2.423   2.286
 6680TIP3    H141599   3.736   2.377   2.264
 6680TIP3    H241600   3.680   2.516   2.286
 6681TIP3   OH241601   2.148   3.529   6.773
 6681TIP3    H141602   2.242   3.525   6.755
 6681TIP3    H241603   2.134   3.617   6.808
 6682TIP3   OH241604   2.027   6.022   2.137
 6682TIP3    H141605   2.105   6.022   2.194
 6682TIP3    H241606   1.987   6.107   2.153
 6683TIP3   OH241607   2.953   2.959   8.553
 6683TIP3    H141608   3.036   2.936   8.510
 6683TIP3    H241609   2.926   3.040   8.510
 6684TIP3   OH241610   0.723   2.144   0.087
 6684TIP3    H141611   0.722   2.121   0.180
 6684TIP3    H241612   0.634   2.128   0.057
 6685TIP3   OH241613   2.920   6.675   1.255
 6685TIP3    H141614   2.929   6.710   1.344
 6685TIP3    H241615   2.844   6.618   1.259
 6686TIP3   OH241616   5.464   4.860   8.654
 6686TIP3    H141617   5.402   4.837   8.585
 6686TIP3    H241618   5.413   4.912   8.716
 6687TIP3   OH241619   6.201   1.285   1.425
 6687TIP3    H141620   6.141   1.340   1.477
 6687TIP3    H241621   6.183   1.196   1.454
 6688TIP3   OH241622   3.538   4.375   7.541
 6688TIP3    H141623   3.566   4.452   7.491
 6688TIP3    H241624   3.614   4.317   7.541
 6689TIP3   OH241625   3.217   0.558   0.670
 6689TIP3    H141626   3.197   0.647   0.640
 6689TIP3    H241627   3.249   0.570   0.759
 6690TIP3   OH241628   1.535   5.438   0.288
 6690TIP3    H141629   1.573   5.444   0.201
 6690TIP3    H241630   1.557   5.521   0.330
 6691TIP3   OH241631   0.053   4.411   7.561
 6691TIP3    H141632   0.149   4.418   7.552
 6691TIP3    H241633   0.020   4.442   7.477
 6692TIP3   OH241634   5.744   6.416   0.307
 6692TIP3    H141635   5.705   6.399   0.222
 6692TIP3    H241636   5.775   6.331   0.337
 6693TIP3   OH241637   3.999   3.459   0.190
 6693TIP3    H141638   3.938   3.390   0.213
 6693TIP3    H241639   4.083   3.430   0.223
 6694TIP3   OH241640   1.848   6.765   8.025
 6694TIP3    H141641   1.927   6.718   8.050
 6694TIP3    H241642   1.813   6.799   8.107
 6695TIP3   OH241643   1.694   4.943   7.420
 6695TIP3    H141644   1.641   4.871   7.454
 6695TIP3    H241645   1.756   4.901   7.361
 6696TIP3   OH241646   1.012   0.427   7.688
 6696TIP3    H141647   0.943   0.459   7.631
 6696TIP3    H241648   0.981   0.341   7.717
 6697TIP3   OH241649   5.525   1.323   1.924
 6697TIP3    H141650   5.449   1.378   1.940
 6697TIP3    H241651   5.537   1.275   2.007
 6698TIP3   OH241652   4.525   3.191   8.494
 6698TIP3    H141653   4.596   3.250   8.470
 6698TIP3    H241654   4.507   3.141   8.415
 6699TIP3   OH241655   5.741   4.300   0.870
 6699TIP3    H141656   5.777   4.301   0.958
 6699TIP3    H241657   5.673   4.232   0.873
 6700TIP3   OH241658   5.895   3.278   0.447
 6700TIP3    H141659   5.985   3.287   0.476
 6700TIP3    H241660   5.894   3.200   0.392
 6701TIP3   OH241661   6.150   1.115   7.208
 6701TIP3    H141662   6.105   1.165   7.276
 6701TIP3    H241663   6.083   1.058   7.171
 6702TIP3   OH241664   5.363   3.206   0.832
 6702TIP3    H141665   5.399   3.260   0.902
 6702TIP3    H241666   5.335   3.268   0.765
 6703TIP3   OH241667   2.362   6.681   7.835
 6703TIP3    H141668   2.361   6.673   7.740
 6703TIP3    H241669   2.452   6.658   7.860
 6704TIP3   OH241670   3.011   3.051   1.051
 6704TIP3    H141671   2.965   3.049   1.135
 6704TIP3    H241672   3.019   3.144   1.030
 6705TIP3   OH241673   5.048   6.306   8.420
 6705TIP3    H141674   5.127   6.358   8.405
 6705TIP3    H241675   5.018   6.331   8.507
 6706TIP3   OH241676   0.099   5.110   6.610
 6706TIP3    H141677   0.010   5.075   6.616
 6706TIP3    H241678   0.093   5.182   6.548
 6707TIP3   OH241679   0.786   5.908   2.302
 6707TIP3    H141680   0.858   5.871   2.354
 6707TIP3    H241681   0.723   5.836   2.295
 6708TIP3   OH241682   2.458   1.597   7.546
 6708TIP3    H141683   2.445   1.504   7.568
 6708TIP3    H241684   2.386   1.642   7.590
 6709TIP3   OH241685   6.409   5.344   1.846
 6709TIP3    H141686   6.369   5.372   1.763
 6709TIP3    H241687   6.502   5.337   1.826
 6710TIP3   OH241688   6.051   5.878   2.579
 6710TIP3    H141689   6.077   5.790   2.605
 6710TIP3    H241690   6.045   5.875   2.484
 6711TIP3   OH241691   4.666   3.307   6.471
 6711TIP3    H141692   4.716   3.227   6.451
 6711TIP3    H241693   4.679   3.320   6.565
 6712TIP3   OH241694   5.879   1.923   7.767
 6712TIP3    H141695   5.819   1.909   7.694
 6712TIP3    H241696   5.961   1.883   7.739
 6713TIP3   OH241697   2.984   3.355   0.951
 6713TIP3    H141698   3.035   3.378   1.029
 6713TIP3    H241699   2.893   3.370   0.977
 6714TIP3   OH241700   5.829   2.306   0.854
 6714TIP3    H141701   5.908   2.357   0.835
 6714TIP3    H241702   5.757   2.361   0.823
 6715TIP3   OH241703   6.336   6.101   0.632
 6715TIP3    H141704   6.261   6.147   0.594
 6715TIP3    H241705   6.351   6.027   0.575
 6716TIP3   OH241706   3.588   5.693   0.752
 6716TIP3    H141707   3.592   5.598   0.754
 6716TIP3    H241708   3.651   5.718   0.683
 6717TIP3   OH241709   5.842   2.661   7.894
 6717TIP3    H141710   5.762   2.609   7.882
 6717TIP3    H241711   5.865   2.648   7.985
 6718TIP3   OH241712   0.973   1.445   8.188
 6718TIP3    H141713   0.989   1.538   8.169
 6718TIP3    H241714   1.056   1.402   8.165
 6719TIP3   OH241715   1.958   5.716   0.370
 6719TIP3    H141716   1.876   5.679   0.402
 6719TIP3    H241717   1.933   5.799   0.329
 6720TIP3   OH241718   6.448   3.287   0.967
 6720TIP3    H141719   6.497   3.365   0.992
 6720TIP3    H241720   6.460   3.280   0.873
 6721TIP3   OH241721   5.585   3.232   8.370
 6721TIP3    H141722   5.662   3.205   8.420
 6721TIP3    H241723   5.517   3.170   8.397
 6722TIP3   OH241724   0.087   0.875   6.890
 6722TIP3    H141725   0.164   0.929   6.875
 6722TIP3    H241726   0.021   0.912   6.832
 6723TIP3   OH241727   6.074   4.260   6.675
 6723TIP3    H141728   5.981   4.251   6.654
 6723TIP3    H241729   6.114   4.290   6.593
 6724TIP3   OH241730   3.196   2.454   6.528
 6724TIP3    H141731   3.180   2.538   6.571
 6724TIP3    H241732   3.160   2.463   6.440
 6725TIP3   OH241733   4.686   0.845   6.827
 6725TIP3    H141734   4.639   0.826   6.908
 6725TIP3    H241735   4.678   0.939   6.815
 6726TIP3   OH241736   4.817   2.170   2.351
 6726TIP3    H141737   4.775   2.248   2.315
 6726TIP3    H241738   4.824   2.187   2.445
 6727TIP3   OH241739   3.908   0.691   0.290
 6727TIP3    H141740   3.985   0.677   0.234
 6727TIP3    H241741   3.837   0.644   0.247
 6728TIP3   OH241742   3.327   2.102   6.992
 6728TIP3    H141743   3.298   2.095   6.902
 6728TIP3    H241744   3.407   2.050   6.996
 6729TIP3   OH241745   0.650   1.201   1.521
 6729TIP3    H141746   0.736   1.207   1.563
 6729TIP3    H241747   0.651   1.116   1.477
 6730TIP3   OH241748   5.831   0.962   1.809
 6730TIP3    H141749   5.826   0.868   1.826
 6730TIP3    H241750   5.842   1.002   1.895
 6731TIP3   OH241751   2.517   4.960   0.342
 6731TIP3    H141752   2.512   4.926   0.431
 6731TIP3    H241753   2.566   5.042   0.350
 6732TIP3   OH241754   4.057   5.207   6.863
 6732TIP3    H141755   4.145   5.218   6.901
 6732TIP3    H241756   4.068   5.143   6.793
 6733TIP3   OH241757   5.698   0.088   1.141
 6733TIP3    H141758   5.606   0.095   1.118
 6733TIP3    H241759   5.700   0.085   1.237
 6734TIP3   OH241760   2.938   6.228   0.587
 6734TIP3    H141761   2.996   6.162   0.626
 6734TIP3    H241762   2.938   6.209   0.494
 6735TIP3   OH241763   2.163   5.179   0.833
 6735TIP3    H141764   2.178   5.271   0.856
 6735TIP3    H241765   2.097   5.182   0.763
 6736TIP3   OH241766   6.051   6.672   0.970
 6736TIP3    H141767   6.047   6.757   1.014
 6736TIP3    H241768   6.144   6.652   0.962
 6737TIP3   OH241769   2.483   0.848   5.938
 6737TIP3    H141770   2.392   0.822   5.926
 6737TIP3    H241771   2.511   0.800   6.016
 6738TIP3   OH241772   3.585   3.239   0.411
 6738TIP3    H141773   3.554   3.320   0.452
 6738TIP3    H241774   3.506   3.198   0.375
 6739TIP3   OH241775   0.392   4.601   0.193
 6739TIP3    H141776   0.407   4.634   0.282
 6739TIP3    H241777   0.401   4.679   0.138
 6740TIP3   OH241778   0.084   6.219   6.906
 6740TIP3    H141779   0.072   6.161   6.981
 6740TIP3    H241780   0.066   6.163   6.830
 6741TIP3   OH241781   5.274   0.232   0.446
 6741TIP3    H141782   5.277   0.318   0.405
 6741TIP3    H241783   5.309   0.172   0.380
 6742TIP3   OH241784   2.904   6.482   8.663
 6742TIP3    H141785   2.987   6.528   8.675
 6742TIP3    H241786   2.920   6.395   8.700
 6743TIP3   OH241787   5.432   5.355   7.375
 6743TIP3    H141788   5.434   5.444   7.410
 6743TIP3    H241789   5.490   5.305   7.432
 6744TIP3   OH241790   0.699   6.191   7.958
 6744TIP3    H141791   0.688   6.111   7.905
 6744TIP3    H241792   0.792   6.213   7.948
 6745TIP3   OH241793   0.209   5.335   0.963
 6745TIP3    H141794   0.206   5.295   1.051
 6745TIP3    H241795   0.244   5.265   0.907
 6746TIP3   OH241796   2.262   5.073   6.636
 6746TIP3    H141797   2.276   4.999   6.577
 6746TIP3    H241798   2.348   5.092   6.673
 6747TIP3   OH241799   5.335   0.564   8.118
 6747TIP3    H141800   5.410   0.589   8.172
 6747TIP3    H241801   5.275   0.521   8.178
 6748TIP3   OH241802   4.911   3.768   0.131
 6748TIP3    H141803   4.816   3.761   0.124
 6748TIP3    H241804   4.943   3.757   0.042
 6749TIP3   OH241805   1.599   6.194   7.517
 6749TIP3    H141806   1.582   6.115   7.466
 6749TIP3    H241807   1.680   6.176   7.564
 6750TIP3   OH241808   1.026   2.215   0.251
 6750TIP3    H141809   1.054   2.157   0.322
 6750TIP3    H241810   1.098   2.212   0.188
 6751TIP3   OH241811   1.096   4.683   0.764
 6751TIP3    H141812   1.120   4.622   0.834
 6751TIP3    H241813   1.049   4.754   0.808
 6752TIP3   OH241814   0.925   1.512   1.040
 6752TIP3    H141815   0.950   1.429   1.000
 6752TIP3    H241816   0.914   1.492   1.132
 6753TIP3   OH241817   5.531   4.770   7.874
 6753TIP3    H141818   5.570   4.765   7.787
 6753TIP3    H241819   5.469   4.698   7.877
 6754TIP3   OH241820   6.208   1.108   7.683
 6754TIP3    H141821   6.172   1.045   7.621
 6754TIP3    H241822   6.269   1.057   7.737
 6755TIP3   OH241823   0.183   5.706   1.325
 6755TIP3    H141824   0.163   5.794   1.356
 6755TIP3    H241825   0.275   5.709   1.299
 6756TIP3   OH241826   5.977   2.361   2.909
 6756TIP3    H141827   5.979   2.267   2.890
 6756TIP3    H241828   5.887   2.388   2.893
 6757TIP3   OH241829   3.423   2.935   2.063
 6757TIP3    H141830   3.495   2.923   2.001
 6757TIP3    H241831   3.345   2.915   2.011
 6758TIP3   OH241832   3.014   4.887   7.589
 6758TIP3    H141833   2.922   4.875   7.565
 6758TIP3    H241834   3.036   4.975   7.558
 6759TIP3   OH241835   4.093   0.803   1.694
 6759TIP3    H141836   4.046   0.842   1.768
 6759TIP3    H241837   4.026   0.794   1.625
 6760TIP3   OH241838   1.692   0.100   1.174
 6760TIP3    H141839   1.705   0.192   1.151
 6760TIP3    H241840   1.656   0.102   1.263
 6761TIP3   OH241841   1.475   4.043   8.464
 6761TIP3    H141842   1.400   4.044   8.403
 6761TIP3    H241843   1.500   4.135   8.471
 6762TIP3   OH241844   6.027   4.262   8.060
 6762TIP3    H141845   5.956   4.317   8.028
 6762TIP3    H241846   5.984   4.200   8.119
 6763TIP3   OH241847   1.462   4.038   1.373
 6763TIP3    H141848   1.465   4.112   1.313
 6763TIP3    H241849   1.536   4.052   1.432
 6764TIP3   OH241850   4.683   3.283   0.809
 6764TIP3    H141851   4.645   3.274   0.896
 6764TIP3    H241852   4.608   3.274   0.749
 6765TIP3   OH241853   5.342   0.330   0.079
 6765TIP3    H141854   5.362   0.421   0.058
 6765TIP3    H241855   5.266   0.309   0.026
 6766TIP3   OH241856   1.258   5.455   8.194
 6766TIP3    H141857   1.259   5.502   8.111
 6766TIP3    H241858   1.322   5.384   8.183
 6767TIP3   OH241859   5.731   3.528   1.571
 6767TIP3    H141860   5.666   3.576   1.623
 6767TIP3    H241861   5.807   3.522   1.628
 6768TIP3   OH241862   5.315   5.180   1.590
 6768TIP3    H141863   5.226   5.197   1.559
 6768TIP3    H241864   5.337   5.094   1.556
 6769TIP3   OH241865   4.861   2.456   0.708
 6769TIP3    H141866   4.809   2.487   0.782
 6769TIP3    H241867   4.871   2.533   0.651
 6770TIP3   OH241868   2.403   2.746   0.801
 6770TIP3    H141869   2.446   2.669   0.764
 6770TIP3    H241870   2.475   2.808   0.818
 6771TIP3   OH241871   0.073   0.507   0.329
 6771TIP3    H141872  -0.017   0.479   0.312
 6771TIP3    H241873   0.122   0.426   0.335
 6772TIP3   OH241874   4.758   4.051   6.915
 6772TIP3    H141875   4.730   4.022   7.002
 6772TIP3    H241876   4.786   4.142   6.927
 6773TIP3   OH241877   0.226   6.488   0.410
 6773TIP3    H141878   0.178   6.491   0.493
 6773TIP3    H241879   0.192   6.561   0.359
 6774TIP3   OH241880   3.827   3.919   7.575
 6774TIP3    H141881   3.739   3.902   7.610
 6774TIP3    H241882   3.881   3.849   7.612
 6775TIP3   OH241883   0.882   1.152   0.080
 6775TIP3    H141884   0.847   1.069   0.049
 6775TIP3    H241885   0.805   1.205   0.101
 6776TIP3   OH241886   0.136   2.124   8.839
 6776TIP3    H141887   0.068   2.184   8.868
 6776TIP3    H241888   0.148   2.144   8.746
 6777TIP3   OH241889   3.877   6.064   0.240
 6777TIP3    H141890   3.841   5.976   0.248
 6777TIP3    H241891   3.826   6.116   0.303
 6778TIP3   OH241892   6.363   6.217   8.207
 6778TIP3    H141893   6.410   6.137   8.184
 6778TIP3    H241894   6.309   6.237   8.131
 6779TIP3   OH241895   0.789   0.435   7.512
 6779TIP3    H141896   0.723   0.367   7.524
 6779TIP3    H241897   0.852   0.398   7.451
 6780TIP3   OH241898   1.516   5.362   1.255
 6780TIP3    H141899   1.530   5.431   1.320
 6780TIP3    H241900   1.446   5.309   1.292
 6781TIP3   OH241901   2.539   0.864   8.548
 6781TIP3    H141902   2.467   0.927   8.547
 6781TIP3    H241903   2.586   0.879   8.467
 6782TIP3   OH241904   5.528   3.356   0.513
 6782TIP3    H141905   5.467   3.312   0.454
 6782TIP3    H241906   5.481   3.435   0.542
 6783TIP3   OH241907   0.043   4.620   7.003
 6783TIP3    H141908   0.025   4.609   7.096
 6783TIP3    H241909   0.075   4.710   6.995
 6784TIP3   OH241910   1.196   0.903   1.157
 6784TIP3    H141911   1.105   0.887   1.184
 6784TIP3    H241912   1.189   0.938   1.068
 6785TIP3   OH241913   3.974   1.054   7.644
 6785TIP3    H141914   3.938   1.114   7.709
 6785TIP3    H241915   3.957   1.097   7.560
 6786TIP3   OH241916   1.958   6.693   7.671
 6786TIP3    H141917   1.906   6.751   7.726
 6786TIP3    H241918   1.894   6.650   7.614
 6787TIP3   OH241919   3.624   6.655   7.643
 6787TIP3    H141920   3.687   6.673   7.713
 6787TIP3    H241921   3.539   6.681   7.680
 6788TIP3   OH241922   6.445   6.494   7.903
 6788TIP3    H141923   6.474   6.573   7.949
 6788TIP3    H241924   6.424   6.524   7.815
 6789TIP3   OH241925   6.729   6.716   0.499
 6789TIP3    H141926   6.697   6.629   0.477
 6789TIP3    H241927   6.688   6.736   0.584
 6790TIP3   OH241928   2.678   0.785   7.100
 6790TIP3    H141929   2.657   0.871   7.135
 6790TIP3    H241930   2.718   0.803   7.015
 6791TIP3   OH241931   2.170   1.076   8.026
 6791TIP3    H141932   2.117   1.154   8.040
 6791TIP3    H241933   2.210   1.058   8.111
 6792TIP3   OH241934   2.490   2.919   7.176
 6792TIP3    H141935   2.522   3.004   7.146
 6792TIP3    H241936   2.476   2.869   7.096
 6793TIP3   OH241937   5.918   6.677   0.385
 6793TIP3    H141938   5.918   6.759   0.336
 6793TIP3    H241939   5.953   6.612   0.325
 6794TIP3   OH241940   3.795   5.230   1.568
 6794TIP3    H141941   3.712   5.200   1.530
 6794TIP3    H241942   3.781   5.223   1.663
 6795TIP3   OH241943   3.612   4.621   1.136
 6795TIP3    H141944   3.596   4.629   1.042
 6795TIP3    H241945   3.701   4.653   1.148
 6796TIP3   OH241946   0.941   5.262   0.219
 6796TIP3    H141947   0.907   5.176   0.195
 6796TIP3    H241948   0.955   5.307   0.136
 6797TIP3   OH241949   1.182   3.467   2.353
 6797TIP3    H141950   1.138   3.544   2.317
 6797TIP3    H241951   1.138   3.392   2.313
 6798TIP3   OH241952   5.906   0.159   8.007
 6798TIP3    H141953   5.892   0.075   7.963
 6798TIP3    H241954   5.939   0.217   7.938
 6799TIP3   OH241955   2.208   1.868   8.625
 6799TIP3    H141956   2.254   1.929   8.682
 6799TIP3    H241957   2.277   1.813   8.588
 6800TIP3   OH241958   0.898   2.085   7.436
 6800TIP3    H141959   0.908   1.999   7.477
 6800TIP3    H241960   0.926   2.072   7.345
 6801TIP3   OH241961   2.948   4.925   2.183
 6801TIP3    H141962   3.022   4.981   2.158
 6801TIP3    H241963   2.980   4.836   2.171
 6802TIP3   OH241964   2.073   3.194   7.737
 6802TIP3    H141965   2.106   3.106   7.718
 6802TIP3    H241966   2.132   3.253   7.689
 6803TIP3   OH241967   5.164   4.014   1.261
 6803TIP3    H141968   5.158   3.999   1.355
 6803TIP3    H241969   5.083   4.059   1.239
 6804TIP3   OH241970   6.566   1.741   6.919
 6804TIP3    H141971   6.497   1.678   6.900
 6804TIP3    H241972   6.533   1.824   6.884
 6805TIP3   OH241973   0.874   6.307   7.795
 6805TIP3    H141974   0.847   6.370   7.728
 6805TIP3    H241975   0.856   6.221   7.756
 6806TIP3   OH241976   2.702   2.394   8.085
 6806TIP3    H141977   2.624   2.338   8.092
 6806TIP3    H241978   2.704   2.442   8.168
 6807TIP3   OH241979   6.531   4.868   8.565
 6807TIP3    H141980   6.487   4.805   8.622
 6807TIP3    H241981   6.622   4.868   8.595
 6808TIP3   OH241982   4.478   1.278   0.295
 6808TIP3    H141983   4.554   1.335   0.292
 6808TIP3    H241984   4.409   1.329   0.252
 6809TIP3   OH241985   3.195   5.847   1.544
 6809TIP3    H141986   3.155   5.921   1.500
 6809TIP3    H241987   3.185   5.774   1.483
 6810TIP3   OH241988   1.763   2.442   1.554
 6810TIP3    H141989   1.762   2.444   1.650
 6810TIP3    H241990   1.795   2.355   1.532
 6811TIP3   OH241991   2.634   0.027   7.442
 6811TIP3    H141992   2.676  -0.051   7.407
 6811TIP3    H241993   2.541   0.003   7.449
 6812TIP3   OH241994   4.967   6.171   0.055
 6812TIP3    H141995   4.986   6.118   0.132
 6812TIP3    H241996   5.050   6.178   0.009
 6813TIP3   OH241997   3.556   3.808   6.988
 6813TIP3    H141998   3.481   3.818   7.047
 6813TIP3    H241999   3.530   3.740   6.926
 6814TIP3   OH242000   1.286   3.619   0.333
 6814TIP3    H142001   1.253   3.709   0.344
 6814TIP3    H242002   1.228   3.566   0.388
 6815TIP3   OH242003   0.323   6.109   1.391
 6815TIP3    H142004   0.275   6.161   1.326
 6815TIP3    H242005   0.276   6.025   1.393
 6816TIP3   OH242006   4.641   2.311   7.046
 6816TIP3    H142007   4.628   2.220   7.074
 6816TIP3    H242008   4.655   2.360   7.127
 6817TIP3   OH242009   3.527   0.522   0.633
 6817TIP3    H142010   3.603   0.570   0.667
 6817TIP3    H242011   3.452   0.576   0.656
 6818TIP3   OH242012   5.918   5.245   7.134
 6818TIP3    H142013   5.969   5.230   7.054
 6818TIP3    H242014   5.842   5.188   7.125
 6819TIP3   OH242015   3.888   3.104   8.571
 6819TIP3    H142016   3.910   3.062   8.654
 6819TIP3    H242017   3.808   3.059   8.543
 6820TIP3   OH242018   2.550   5.299   7.221
 6820TIP3    H142019   2.548   5.392   7.196
 6820TIP3    H242020   2.529   5.299   7.315
 6821TIP3   OH242021   1.523   3.428   7.433
 6821TIP3    H142022   1.609   3.451   7.467
 6821TIP3    H242023   1.521   3.466   7.345
 6822TIP3   OH242024   3.816   1.387   1.586
 6822TIP3    H142025   3.817   1.480   1.611
 6822TIP3    H242026   3.810   1.341   1.669
 6823TIP3   OH242027   0.739   3.494   6.923
 6823TIP3    H142028   0.787   3.446   6.991
 6823TIP3    H242029   0.707   3.572   6.968
 6824TIP3   OH242030   6.541   0.786   7.188
 6824TIP3    H142031   6.620   0.840   7.192
 6824TIP3    H242032   6.472   0.846   7.161
 6825TIP3   OH242033   4.362   1.051   0.380
 6825TIP3    H142034   4.415   1.125   0.348
 6825TIP3    H242035   4.427   0.987   0.409
 6826TIP3   OH242036   4.357   5.807   8.698
 6826TIP3    H142037   4.412   5.772   8.628
 6826TIP3    H242038   4.419   5.832   8.767
 6827TIP3   OH242039   0.007   3.783   7.748
 6827TIP3    H142040   0.080   3.819   7.799
 6827TIP3    H242041  -0.059   3.760   7.814
 6828TIP3   OH242042   4.005   0.271   6.877
 6828TIP3    H142043   3.957   0.353   6.888
 6828TIP3    H242044   3.940   0.209   6.844
 6829TIP3   OH242045   0.383   0.962   8.340
 6829TIP3    H142046   0.294   0.929   8.328
 6829TIP3    H242047   0.389   1.038   8.283
 6830TIP3   OH242048   1.277   5.832   6.944
 6830TIP3    H142049   1.369   5.817   6.920
 6830TIP3    H242050   1.280   5.850   7.038
 6831TIP3   OH242051   6.008   2.649   7.665
 6831TIP3    H142052   6.098   2.645   7.699
 6831TIP3    H242053   5.953   2.644   7.743
 6832TIP3   OH242054   6.451   1.709   7.736
 6832TIP3    H142055   6.518   1.764   7.695
 6832TIP3    H242056   6.490   1.622   7.739
 6833TIP3   OH242057   1.012   0.882   8.579
 6833TIP3    H142058   1.080   0.820   8.606
 6833TIP3    H242059   1.011   0.876   8.484
 6834TIP3   OH242060   5.053   2.031   1.848
 6834TIP3    H142061   5.077   1.975   1.775
 6834TIP3    H242062   4.964   2.003   1.872
 6835TIP3   OH242063   2.623   0.850   1.064
 6835TIP3    H142064   2.548   0.793   1.083
 6835TIP3    H242065   2.674   0.849   1.145
 6836TIP3   OH242066   3.327   4.740   0.037
 6836TIP3    H142067   3.239   4.774   0.048
 6836TIP3    H242068   3.346   4.749  -0.056
 6837TIP3   OH242069   3.873   3.332   8.783
 6837TIP3    H142070   3.852   3.264   8.847
 6837TIP3    H242071   3.841   3.413   8.822
 6838TIP3   OH242072   1.094   2.856   7.715
 6838TIP3    H142073   1.152   2.871   7.641
 6838TIP3    H242074   1.006   2.867   7.679
 6839TIP3   OH242075   4.647   0.161   1.649
 6839TIP3    H142076   4.624   0.072   1.674
 6839TIP3    H242077   4.663   0.206   1.732
 6840TIP3   OH242078   1.840   2.768   7.187
 6840TIP3    H142079   1.885   2.736   7.108
 6840TIP3    H242080   1.840   2.694   7.247
 6841TIP3   OH242081   1.832   3.451   0.536
 6841TIP3    H142082   1.900   3.387   0.518
 6841TIP3    H242083   1.776   3.410   0.601
 6842TIP3   OH242084   5.523   0.181   7.112
 6842TIP3    H142085   5.533   0.252   7.175
 6842TIP3    H242086   5.454   0.211   7.053
 6843TIP3   OH242087   0.724   1.486   1.559
 6843TIP3    H142088   0.775   1.421   1.607
 6843TIP3    H242089   0.634   1.456   1.567
 6844TIP3   OH242090   4.832   0.047   8.635
 6844TIP3    H142091   4.808   0.103   8.560
 6844TIP3    H242092   4.751   0.002   8.658
 6845TIP3   OH242093   3.669   1.904   0.163
 6845TIP3    H142094   3.610   1.862   0.226
 6845TIP3    H242095   3.669   1.844   0.087
 6846TIP3   OH242096   5.694   4.765   8.569
 6846TIP3    H142097   5.605   4.787   8.598
 6846TIP3    H242098   5.696   4.670   8.565
 6847TIP3   OH242099   1.470   5.023   7.634
 6847TIP3    H142100   1.472   4.948   7.694
 6847TIP3    H242101   1.394   5.074   7.662
 6848TIP3   OH242102   4.536   5.347   7.298
 6848TIP3    H142103   4.589   5.270   7.280
 6848TIP3    H242104   4.523   5.388   7.213
 6849TIP3   OH242105   4.203   1.441   1.363
 6849TIP3    H142106   4.185   1.444   1.269
 6849TIP3    H242107   4.258   1.363   1.374
 6850TIP3   OH242108   0.449   1.543   6.961
 6850TIP3    H142109   0.402   1.626   6.967
 6850TIP3    H242110   0.528   1.564   6.912
 6851TIP3   OH242111   1.194   2.703   8.825
 6851TIP3    H142112   1.208   2.609   8.835
 6851TIP3    H242113   1.282   2.740   8.830
 6852TIP3   OH242114   2.205   6.142   8.225
 6852TIP3    H142115   2.162   6.209   8.277
 6852TIP3    H242116   2.292   6.132   8.264
 6853TIP3   OH242117   2.552   5.469   0.920
 6853TIP3    H142118   2.546   5.390   0.866
 6853TIP3    H242119   2.646   5.488   0.924
 6854TIP3   OH242120   1.112   4.994   1.479
 6854TIP3    H142121   1.202   4.973   1.506
 6854TIP3    H242122   1.057   4.935   1.531
 6855TIP3   OH242123   2.734   4.766   6.787
 6855TIP3    H142124   2.719   4.833   6.720
 6855TIP3    H242125   2.805   4.802   6.841
 6856TIP3   OH242126   3.259   6.540   1.270
 6856TIP3    H142127   3.343   6.553   1.227
 6856TIP3    H242128   3.197   6.588   1.217
 6857TIP3   OH242129   2.387   1.097   8.462
 6857TIP3    H142130   2.362   1.067   8.375
 6857TIP3    H242131   2.465   1.151   8.448
 6858TIP3   OH242132   0.968   3.380   5.899
 6858TIP3    H142133   0.877   3.406   5.913
 6858TIP3    H242134   1.018   3.434   5.960
 6859TIP3   OH242135   0.482   5.291   1.541
 6859TIP3    H142136   0.570   5.265   1.517
 6859TIP3    H242137   0.479   5.385   1.523
 6860TIP3   OH242138   1.921   2.227   8.262
 6860TIP3    H142139   1.861   2.275   8.205
 6860TIP3    H242140   1.978   2.293   8.300
 6861TIP3   OH242141   0.552   5.570   1.854
 6861TIP3    H142142   0.534   5.542   1.944
 6861TIP3    H242143   0.579   5.491   1.809
 6862TIP3   OH242144   5.084   0.997   0.990
 6862TIP3    H142145   5.174   0.987   1.023
 6862TIP3    H242146   5.086   0.954   0.904
 6863TIP3   OH242147   3.100   6.639   6.954
 6863TIP3    H142148   3.095   6.632   6.858
 6863TIP3    H242149   3.185   6.678   6.970
 6864TIP3   OH242150   3.869   1.591   8.170
 6864TIP3    H142151   3.774   1.591   8.175
 6864TIP3    H242152   3.897   1.653   8.237
 6865TIP3   OH242153   3.249   0.848   6.665
 6865TIP3    H142154   3.251   0.915   6.733
 6865TIP3    H242155   3.177   0.790   6.691
 6866TIP3   OH242156   5.845   2.911   8.671
 6866TIP3    H142157   5.928   2.937   8.711
 6866TIP3    H242158   5.857   2.818   8.649
 6867TIP3   OH242159   4.092   0.603   8.059
 6867TIP3    H142160   4.138   0.671   8.108
 6867TIP3    H242161   4.036   0.651   7.998
 6868TIP3   OH242162   6.293   2.788   6.447
 6868TIP3    H142163   6.357   2.756   6.383
 6868TIP3    H242164   6.341   2.787   6.530
 6869TIP3   OH242165   5.020   1.384   8.346
 6869TIP3    H142166   5.107   1.419   8.325
 6869TIP3    H242167   5.032   1.336   8.428
 6870TIP3   OH242168   4.881   0.774   7.937
 6870TIP3    H142169   4.860   0.857   7.980
 6870TIP3    H242170   4.976   0.775   7.927
 6871TIP3   OH242171   6.362   2.300   8.469
 6871TIP3    H142172   6.314   2.220   8.487
 6871TIP3    H242173   6.373   2.342   8.554
 6872TIP3   OH242174   0.392   1.237   6.732
 6872TIP3    H142175   0.380   1.329   6.708
 6872TIP3    H242176   0.475   1.212   6.690
 6873TIP3   OH242177   3.589   0.950   2.459
 6873TIP3    H142178   3.614   0.867   2.419
 6873TIP3    H242179   3.639   0.954   2.540
 6874TIP3   OH242180   2.286   1.359   8.198
 6874TIP3    H142181   2.260   1.326   8.285
 6874TIP3    H242182   2.234   1.438   8.187
 6875TIP3   OH242183   4.621   0.880   7.747
 6875TIP3    H142184   4.714   0.886   7.728
 6875TIP3    H242185   4.600   0.787   7.733
 6876TIP3   OH242186   3.886   5.308   0.291
 6876TIP3    H142187   3.860   5.393   0.256
 6876TIP3    H242188   3.932   5.265   0.218
 6877TIP3   OH242189   5.480   2.331   7.483
 6877TIP3    H142190   5.524   2.384   7.549
 6877TIP3    H242191   5.388   2.329   7.510
 6878TIP3   OH242192   5.299   2.648   7.269
 6878TIP3    H142193   5.224   2.708   7.271
 6878TIP3    H242194   5.261   2.562   7.286
 6879TIP3   OH242195   2.658   0.778   8.166
 6879TIP3    H142196   2.563   0.767   8.163
 6879TIP3    H242197   2.691   0.690   8.186
 6880TIP3   OH242198   2.259   3.404   8.597
 6880TIP3    H142199   2.176   3.427   8.639
 6880TIP3    H242200   2.326   3.430   8.660
 6881TIP3   OH242201   4.451   5.226   7.011
 6881TIP3    H142202   4.486   5.281   6.941
 6881TIP3    H242203   4.408   5.154   6.964
 6882TIP3   OH242204   1.396   5.905   8.180
 6882TIP3    H142205   1.480   5.945   8.159
 6882TIP3    H242206   1.376   5.849   8.105
 6883TIP3   OH242207   2.020   5.446   8.446
 6883TIP3    H142208   2.040   5.377   8.509
 6883TIP3    H242209   2.083   5.516   8.466
 6884TIP3   OH242210   2.928   5.572   7.178
 6884TIP3    H142211   3.021   5.591   7.164
 6884TIP3    H242212   2.908   5.501   7.117
 6885TIP3   OH242213   3.892   2.112   8.238
 6885TIP3    H142214   3.880   2.169   8.163
 6885TIP3    H242215   3.823   2.138   8.299
 6886TIP3   OH242216   3.319   2.020   0.656
 6886TIP3    H142217   3.236   2.057   0.625
 6886TIP3    H242218   3.293   1.947   0.714
 6887TIP3   OH242219   1.991   6.080   7.325
 6887TIP3    H142220   2.033   6.029   7.395
 6887TIP3    H242221   2.016   6.035   7.244
 6888TIP3   OH242222   0.110   4.284   0.993
 6888TIP3    H142223   0.149   4.369   1.018
 6888TIP3    H242224   0.024   4.306   0.959
 6889TIP3   OH242225   1.701   6.537   0.673
 6889TIP3    H142226   1.748   6.609   0.630
 6889TIP3    H242227   1.690   6.471   0.605
 6890TIP3   OH242228   5.787   2.240   6.214
 6890TIP3    H142229   5.870   2.286   6.203
 6890TIP3    H242230   5.733   2.299   6.267
 6891TIP3   OH242231   1.203   1.732   7.712
 6891TIP3    H142232   1.184   1.669   7.781
 6891TIP3    H242233   1.181   1.686   7.631
 6892TIP3   OH242234   6.416   3.945   2.128
 6892TIP3    H142235   6.423   3.969   2.036
 6892TIP3    H242236   6.429   3.850   2.129
 6893TIP3   OH242237   6.697   5.344   7.920
 6893TIP3    H142238   6.719   5.264   7.870
 6893TIP3    H242239   6.664   5.404   7.854
 6894TIP3   OH242240   4.088   1.813   8.584
 6894TIP3    H142241   4.176   1.777   8.593
 6894TIP3    H242242   4.065   1.842   8.672
 6895TIP3   OH242243   0.911   0.327   1.744
 6895TIP3    H142244   0.960   0.245   1.733
 6895TIP3    H242245   0.828   0.299   1.783
 6896TIP3   OH242246   5.213   4.603   0.719
 6896TIP3    H142247   5.185   4.513   0.734
 6896TIP3    H242248   5.294   4.596   0.669
 6897TIP3   OH242249   3.006   4.774   0.499
 6897TIP3    H142250   2.976   4.734   0.418
 6897TIP3    H242251   3.047   4.701   0.547
 6898TIP3   OH242252   4.544   5.837   1.799
 6898TIP3    H142253   4.619   5.812   1.853
 6898TIP3    H242254   4.580   5.899   1.736
 6899TIP3   OH242255   0.635   1.019   7.349
 6899TIP3    H142256   0.635   0.923   7.349
 6899TIP3    H242257   0.656   1.042   7.258
 6900TIP3   OH242258   1.234   3.878   8.103
 6900TIP3    H142259   1.320   3.842   8.125
 6900TIP3    H242260   1.182   3.801   8.079
 6901TIP3   OH242261   4.790   4.659   7.484
 6901TIP3    H142262   4.698   4.638   7.501
 6901TIP3    H242263   4.813   4.607   7.407
 6902TIP3   OH242264   5.551   5.775   1.121
 6902TIP3    H142265   5.621   5.830   1.087
 6902TIP3    H242266   5.587   5.687   1.121
 6903TIP3   OH242267   1.204   3.347   1.759
 6903TIP3    H142268   1.252   3.268   1.735
 6903TIP3    H242269   1.198   3.343   1.855
 6904TIP3   OH242270   1.135   3.951   8.546
 6904TIP3    H142271   1.169   3.904   8.622
 6904TIP3    H242272   1.092   4.028   8.581
 6905TIP3   OH242273   4.315   4.536   8.647
 6905TIP3    H142274   4.228   4.540   8.687
 6905TIP3    H242275   4.319   4.614   8.592
 6906TIP3   OH242276   5.152   1.477   7.301
 6906TIP3    H142277   5.116   1.414   7.364
 6906TIP3    H242278   5.205   1.424   7.241
 6907TIP3   OH242279   0.091   3.521   7.788
 6907TIP3    H142280   0.023   3.454   7.786
 6907TIP3    H242281   0.047   3.600   7.757
 6908TIP3   OH242282   6.101   6.324   7.259
 6908TIP3    H142283   6.164   6.396   7.250
 6908TIP3    H242284   6.073   6.305   7.169
 6909TIP3   OH242285   3.049   1.687   8.215
 6909TIP3    H142286   2.985   1.651   8.276
 6909TIP3    H242287   2.999   1.707   8.136
 6910TIP3   OH242288   5.717   0.402   7.532
 6910TIP3    H142289   5.636   0.414   7.483
 6910TIP3    H242290   5.702   0.324   7.585
 6911TIP3   OH242291   5.309   5.610   8.784
 6911TIP3    H142292   5.384   5.666   8.765
 6911TIP3    H242293   5.346   5.536   8.832
 6912TIP3   OH242294   3.401   2.310   0.216
 6912TIP3    H142295   3.489   2.306   0.254
 6912TIP3    H242296   3.343   2.319   0.292
 6913TIP3   OH242297   0.310   4.173   7.157
 6913TIP3    H142298   0.255   4.134   7.090
 6913TIP3    H242299   0.276   4.138   7.240
 6914TIP3   OH242300   5.699   1.782   6.576
 6914TIP3    H142301   5.743   1.846   6.520
 6914TIP3    H242302   5.625   1.829   6.613
 6915TIP3   OH242303   1.938   1.843   7.409
 6915TIP3    H142304   1.898   1.927   7.433
 6915TIP3    H242305   1.923   1.836   7.315
 6916TIP3   OH242306   2.732   1.535   0.636
 6916TIP3    H142307   2.639   1.521   0.618
 6916TIP3    H242308   2.761   1.455   0.678
 6917TIP3   OH242309   0.163   0.603   0.782
 6917TIP3    H142310   0.141   0.679   0.836
 6917TIP3    H242311   0.204   0.640   0.704
 6918TIP3   OH242312   5.794   1.665   7.871
 6918TIP3    H142313   5.786   1.759   7.858
 6918TIP3    H242314   5.705   1.636   7.891
 6919TIP3   OH242315   1.989   1.822   0.234
 6919TIP3    H142316   1.896   1.804   0.222
 6919TIP3    H242317   2.029   1.735   0.238
 6920TIP3   OH242318   3.076   4.180   7.333
 6920TIP3    H142319   3.085   4.096   7.378
 6920TIP3    H242320   3.140   4.237   7.375
 6921TIP3   OH242321   4.616   6.144   8.197
 6921TIP3    H142322   4.683   6.134   8.129
 6921TIP3    H242323   4.562   6.066   8.188
 6922TIP3   OH242324   1.893   1.248   7.398
 6922TIP3    H142325   1.813   1.268   7.348
 6922TIP3    H242326   1.937   1.332   7.407
 6923TIP3   OH242327   5.929   4.063   6.921
 6923TIP3    H142328   6.019   4.096   6.922
 6923TIP3    H242329   5.875   4.142   6.930
 6924TIP3   OH242330   1.620   2.827   8.803
 6924TIP3    H142331   1.666   2.911   8.792
 6924TIP3    H242332   1.674   2.764   8.756
 6925TIP3   OH242333   2.579   0.284   7.435
 6925TIP3    H142334   2.613   0.197   7.456
 6925TIP3    H242335   2.578   0.287   7.339
 6926TIP3   OH242336   4.859   6.432   7.941
 6926TIP3    H142337   4.830   6.352   7.984
 6926TIP3    H242338   4.852   6.500   8.009
 6927TIP3   OH242339   1.470   2.818   7.883
 6927TIP3    H142340   1.482   2.908   7.854
 6927TIP3    H242341   1.478   2.766   7.803
 6928TIP3   OH242342   3.829   0.734   7.391
 6928TIP3    H142343   3.766   0.671   7.427
 6928TIP3    H242344   3.783   0.818   7.396
 6929TIP3   OH242345   1.103   4.059   7.322
 6929TIP3    H142346   1.174   4.123   7.319
 6929TIP3    H242347   1.064   4.063   7.234
 6930TIP3   OH242348   1.171   3.885   0.281
 6930TIP3    H142349   1.156   3.977   0.305
 6930TIP3    H242350   1.259   3.885   0.244
 6931TIP3   OH242351   3.246   5.338   1.912
 6931TIP3    H142352   3.275   5.254   1.875
 6931TIP3    H242353   3.326   5.391   1.915
 6932TIP3   OH242354   4.708   3.479   7.194
 6932TIP3    H142355   4.713   3.412   7.127
 6932TIP3    H242356   4.660   3.438   7.266
 6933TIP3   OH242357   0.652   0.955   1.337
 6933TIP3    H142358   0.688   1.003   1.262
 6933TIP3    H242359   0.716   0.886   1.354
 6934TIP3   OH242360   1.848   4.162   7.217
 6934TIP3    H142361   1.938   4.169   7.185
 6934TIP3    H242362   1.794   4.157   7.138
 6935TIP3   OH242363   0.480   0.686   7.539
 6935TIP3    H142364   0.504   0.710   7.449
 6935TIP3    H242365   0.392   0.722   7.551
 6936TIP3   OH242366   0.862   6.189   1.616
 6936TIP3    H142367   0.829   6.222   1.532
 6936TIP3    H242368   0.934   6.249   1.638
 6937TIP3   OH242369   1.875   2.317   0.459
 6937TIP3    H142370   1.864   2.233   0.414
 6937TIP3    H242371   1.928   2.295   0.536
 6938TIP3   OH242372   1.759   2.315   8.668
 6938TIP3    H142373   1.701   2.298   8.594
 6938TIP3    H242374   1.726   2.396   8.706
 6939TIP3   OH242375   6.496   5.494   8.463
 6939TIP3    H142376   6.472   5.408   8.496
 6939TIP3    H242377   6.474   5.555   8.533
 6940TIP3   OH242378   2.127   6.411   2.067
 6940TIP3    H142379   2.047   6.461   2.049
 6940TIP3    H242380   2.100   6.342   2.127
 6941TIP3   OH242381   5.049   1.489   1.822
 6941TIP3    H142382   5.005   1.572   1.801
 6941TIP3    H242383   5.026   1.472   1.913
 6942TIP3   OH242384   5.729   5.088   0.200
 6942TIP3    H142385   5.825   5.092   0.201
 6942TIP3    H242386   5.706   5.095   0.107
 6943TIP3   OH242387   6.319   2.004   7.832
 6943TIP3    H142388   6.345   1.969   7.747
 6943TIP3    H242389   6.393   1.984   7.889
 6944TIP3   OH242390   0.204   3.480   7.331
 6944TIP3    H142391   0.217   3.429   7.251
 6944TIP3    H242392   0.254   3.433   7.398
 6945TIP3   OH242393   5.136   2.466   1.660
 6945TIP3    H142394   5.044   2.494   1.657
 6945TIP3    H242395   5.138   2.401   1.730
 6946TIP3   OH242396   0.949   5.812   1.103
 6946TIP3    H142397   0.916   5.840   1.189
 6946TIP3    H242398   0.919   5.881   1.043
 6947TIP3   OH242399   3.307   5.904   0.413
 6947TIP3    H142400   3.317   5.876   0.504
 6947TIP3    H242401   3.218   5.877   0.389
 6948TIP3   OH242402   4.050   0.286   1.143
 6948TIP3    H142403   3.998   0.206   1.146
 6948TIP3    H242404   4.077   0.301   1.234
 6949TIP3   OH242405   1.815   1.547   0.284
 6949TIP3    H142406   1.911   1.547   0.274
 6949TIP3    H242407   1.799   1.606   0.358
 6950TIP3   OH242408   6.049   2.209   7.079
 6950TIP3    H142409   6.035   2.266   7.155
 6950TIP3    H242410   6.137   2.173   7.092
 6951TIP3   OH242411   6.226   3.694   8.610
 6951TIP3    H142412   6.240   3.682   8.516
 6951TIP3    H242413   6.196   3.784   8.619
 6952TIP3   OH242414   2.788   4.729   8.815
 6952TIP3    H142415   2.830   4.785   8.750
 6952TIP3    H242416   2.701   4.765   8.826
 6953TIP3   OH242417   3.143   1.469   7.302
 6953TIP3    H142418   3.160   1.560   7.278
 6953TIP3    H242419   3.127   1.425   7.218
 6954TIP3   OH242420   3.959   2.863   0.983
 6954TIP3    H142421   3.864   2.848   0.982
 6954TIP3    H242422   3.980   2.872   1.076
 6955TIP3   OH242423   0.392   5.485   0.238
 6955TIP3    H142424   0.465   5.546   0.233
 6955TIP3    H242425   0.433   5.400   0.257
 6956TIP3   OH242426   0.801   2.854   7.992
 6956TIP3    H142427   0.772   2.763   7.983
 6956TIP3    H242428   0.834   2.877   7.905
 6957TIP3   OH242429   0.525   3.872   7.188
 6957TIP3    H142430   0.548   3.856   7.096
 6957TIP3    H242431   0.433   3.846   7.194
 6958TIP3   OH242432   5.537   5.765   8.748
 6958TIP3    H142433   5.605   5.724   8.694
 6958TIP3    H242434   5.527   5.853   8.712
 6959TIP3   OH242435   2.073   0.743   1.189
 6959TIP3    H142436   2.120   0.659   1.190
 6959TIP3    H242437   1.980   0.718   1.181
 6960TIP3   OH242438   2.377   2.543   1.441
 6960TIP3    H142439   2.398   2.500   1.523
 6960TIP3    H242440   2.447   2.607   1.428
 6961TIP3   OH242441   4.036   5.325   7.187
 6961TIP3    H142442   3.975   5.259   7.222
 6961TIP3    H242443   4.123   5.289   7.206
 6962TIP3   OH242444   0.705   1.944   7.738
 6962TIP3    H142445   0.637   1.982   7.793
 6962TIP3    H242446   0.757   2.019   7.709
 6963TIP3   OH242447   1.165   4.533   7.189
 6963TIP3    H142448   1.072   4.517   7.173
 6963TIP3    H242449   1.172   4.628   7.191
 6964TIP3   OH242450   3.449   2.617   8.619
 6964TIP3    H142451   3.440   2.533   8.664
 6964TIP3    H242452   3.419   2.682   8.683
 6965TIP3   OH242453   2.202   1.014   1.361
 6965TIP3    H142454   2.159   0.933   1.330
 6965TIP3    H242455   2.295   0.991   1.366
 6966TIP3   OH242456   3.297   1.065   8.366
 6966TIP3    H142457   3.223   1.085   8.424
 6966TIP3    H242458   3.260   1.008   8.299
 6967TIP3   OH242459   4.480   6.100   1.225
 6967TIP3    H142460   4.471   6.110   1.131
 6967TIP3    H242461   4.528   6.018   1.236
 6968TIP3   OH242462   2.969   0.384   7.811
 6968TIP3    H142463   2.942   0.456   7.754
 6968TIP3    H242464   3.039   0.421   7.865
 6969TIP3   OH242465   3.267   0.954   1.092
 6969TIP3    H142466   3.252   0.987   1.003
 6969TIP3    H242467   3.334   1.011   1.128
 6970TIP3   OH242468   4.036   3.515   0.920
 6970TIP3    H142469   4.027   3.558   1.005
 6970TIP3    H242470   3.946   3.509   0.886
 6971TIP3   OH242471   4.902   6.195   7.393
 6971TIP3    H142472   4.816   6.155   7.376
 6971TIP3    H242473   4.941   6.140   7.460
 6972TIP3   OH242474   1.097   2.634   8.355
 6972TIP3    H142475   1.080   2.624   8.262
 6972TIP3    H242476   1.189   2.662   8.360
 6973TIP3   OH242477   4.799   4.005   1.884
 6973TIP3    H142478   4.737   3.943   1.847
 6973TIP3    H242479   4.820   3.970   1.971
 6974TIP3   OH242480   1.355   3.106   5.990
 6974TIP3    H142481   1.375   3.017   5.962
 6974TIP3    H242482   1.287   3.136   5.929
 6975TIP3   OH242483   4.911   2.284   0.520
 6975TIP3    H142484   4.983   2.228   0.549
 6975TIP3    H242485   4.873   2.318   0.601
 6976TIP3   OH242486   3.077   3.347   6.203
 6976TIP3    H142487   2.987   3.364   6.232
 6976TIP3    H242488   3.070   3.340   6.107
 6977TIP3   OH242489   4.440   2.615   0.933
 6977TIP3    H142490   4.435   2.543   0.996
 6977TIP3    H242491   4.424   2.694   0.985
 6978TIP3   OH242492   1.613   4.069   0.578
 6978TIP3    H142493   1.618   3.977   0.553
 6978TIP3    H242494   1.697   4.106   0.550
 6979TIP3   OH242495   2.372   3.803   7.366
 6979TIP3    H142496   2.397   3.892   7.392
 6979TIP3    H242497   2.448   3.749   7.389
 6980TIP3   OH242498   0.690   3.071   0.298
 6980TIP3    H142499   0.760   3.054   0.235
 6980TIP3    H242500   0.735   3.101   0.377
 6981TIP3   OH242501   2.479   5.881   0.328
 6981TIP3    H142502   2.423   5.934   0.385
 6981TIP3    H242503   2.535   5.944   0.284
 6982TIP3   OH242504   6.267   5.710   7.673
 6982TIP3    H142505   6.313   5.721   7.756
 6982TIP3    H242506   6.182   5.753   7.687
 6983TIP3   OH242507   5.936   4.700   1.319
 6983TIP3    H142508   5.954   4.788   1.286
 6983TIP3    H242509   5.883   4.659   1.250
 6984TIP3   OH242510   6.766   3.125   1.471
 6984TIP3    H142511   6.692   3.181   1.450
 6984TIP3    H242512   6.843   3.181   1.456
 6985TIP3   OH242513   0.550   4.836   0.840
 6985TIP3    H142514   0.571   4.904   0.903
 6985TIP3    H242515   0.634   4.798   0.816
 6986TIP3   OH242516   2.949   0.021   8.698
 6986TIP3    H142517   2.854   0.033   8.707
 6986TIP3    H242518   2.965   0.025   8.604
 6987TIP3   OH242519   4.167   5.880   2.431
 6987TIP3    H142520   4.076   5.874   2.462
 6987TIP3    H242521   4.191   5.790   2.408
 6988TIP3   OH242522   6.123   3.165   7.406
 6988TIP3    H142523   6.152   3.225   7.337
 6988TIP3    H242524   6.027   3.172   7.406
 6989TIP3   OH242525   3.254   2.633   0.166
 6989TIP3    H142526   3.270   2.639   0.072
 6989TIP3    H242527   3.217   2.545   0.178
 6990TIP3   OH242528   5.185   3.086   7.005
 6990TIP3    H142529   5.115   3.035   6.965
 6990TIP3    H242530   5.265   3.036   6.987
 6991TIP3   OH242531   1.168   4.508   2.028
 6991TIP3    H142532   1.116   4.430   2.014
 6991TIP3    H242533   1.194   4.504   2.120
 6992TIP3   OH242534   3.482   0.258   8.237
 6992TIP3    H142535   3.566   0.242   8.194
 6992TIP3    H242536   3.493   0.342   8.282
 6993TIP3   OH242537   4.066   2.708   8.358
 6993TIP3    H142538   4.126   2.707   8.433
 6993TIP3    H242539   4.123   2.726   8.283
 6994TIP3   OH242540   5.555   4.957   2.671
 6994TIP3    H142541   5.635   5.004   2.698
 6994TIP3    H242542   5.556   4.960   2.576
 6995TIP3   OH242543   2.496   0.399   8.187
 6995TIP3    H142544   2.436   0.458   8.141
 6995TIP3    H242545   2.580   0.410   8.142
 6996TIP3   OH242546   2.841   4.256   0.629
 6996TIP3    H142547   2.830   4.320   0.700
 6996TIP3    H242548   2.761   4.204   0.631
 6997TIP3   OH242549   1.829   4.508   1.713
 6997TIP3    H142550   1.763   4.475   1.774
 6997TIP3    H242551   1.816   4.455   1.634
 6998TIP3   OH242552   2.016   4.829   8.726
 6998TIP3    H142553   2.090   4.889   8.737
 6998TIP3    H242554   1.959   4.848   8.801
 6999TIP3   OH242555   2.579   5.026   7.324
 6999TIP3    H142556   2.511   4.974   7.366
 6999TIP3    H242557   2.534   5.070   7.252
 7000TIP3   OH242558   4.738   3.101   6.819
 7000TIP3    H142559   4.817   3.134   6.776
 7000TIP3    H242560   4.749   3.006   6.820
 7001TIP3   OH242561   6.795   0.603   7.086
 7001TIP3    H142562   6.828   0.515   7.103
 7001TIP3    H242563   6.704   0.591   7.060
 7002TIP3   OH242564   4.647   5.980   0.464
 7002TIP3    H142565   4.610   6.055   0.511
 7002TIP3    H242566   4.610   5.903   0.506
 7003TIP3   OH242567   6.756   2.586   7.617
 7003TIP3    H142568   6.805   2.558   7.694
 7003TIP3    H242569   6.746   2.680   7.628
 7004TIP3   OH242570   5.509   4.254   7.429
 7004TIP3    H142571   5.582   4.266   7.368
 7004TIP3    H242572   5.447   4.198   7.381
 7005TIP3   OH242573   1.004   6.119   0.584
 7005TIP3    H142574   1.029   6.131   0.493
 7005TIP3    H242575   1.087   6.105   0.630
 7006TIP3   OH242576   4.311   6.475   8.554
 7006TIP3    H142577   4.317   6.492   8.460
 7006TIP3    H242578   4.397   6.437   8.576
 7007TIP3   OH242579   4.286   4.884   7.544
 7007TIP3    H142580   4.331   4.880   7.460
 7007TIP3    H242581   4.279   4.977   7.564
 7008TIP3   OH242582   4.420   3.735   0.509
 7008TIP3    H142583   4.334   3.728   0.552
 7008TIP3    H242584   4.404   3.786   0.430
 7009TIP3   OH242585   4.743   2.463   0.104
 7009TIP3    H142586   4.807   2.405   0.146
 7009TIP3    H242587   4.708   2.516   0.176
 7010TIP3   OH242588   2.187   6.559   7.632
 7010TIP3    H142589   2.179   6.501   7.708
 7010TIP3    H242590   2.112   6.619   7.640
 7011TIP3   OH242591   0.655   5.122   6.201
 7011TIP3    H142592   0.657   5.209   6.240
 7011TIP3    H242593   0.592   5.130   6.129
 7012TIP3   OH242594   1.185   2.982   8.710
 7012TIP3    H142595   1.281   2.989   8.705
 7012TIP3    H242596   1.169   2.914   8.774
 7013TIP3   OH242597   6.661   3.770   0.200
 7013TIP3    H142598   6.668   3.778   0.105
 7013TIP3    H242599   6.729   3.707   0.224
 7014TIP3   OH242600   3.032   3.672   6.125
 7014TIP3    H142601   2.997   3.759   6.148
 7014TIP3    H242602   3.093   3.652   6.195
 7015TIP3   OH242603   2.026   3.160   1.385
 7015TIP3    H142604   1.943   3.121   1.359
 7015TIP3    H242605   2.036   3.237   1.330
 7016TIP3   OH242606   4.511   4.673   1.472
 7016TIP3    H142607   4.453   4.734   1.518
 7016TIP3    H242608   4.470   4.587   1.484
 7017TIP3   OH242609   6.042   0.044   1.372
 7017TIP3    H142610   5.970  -0.019   1.378
 7017TIP3    H242611   6.115  -0.007   1.337
 7018TIP3   OH242612   1.083   2.143   8.097
 7018TIP3    H142613   1.125   2.186   8.171
 7018TIP3    H242614   1.107   2.051   8.106
 7019TIP3   OH242615   6.647   4.246   6.545
 7019TIP3    H142616   6.579   4.179   6.541
 7019TIP3    H242617   6.713   4.217   6.483
 7020TIP3   OH242618   3.974   4.479   8.337
 7020TIP3    H142619   3.942   4.389   8.339
 7020TIP3    H242620   4.064   4.473   8.306
 7021TIP3   OH242621   3.675   6.340   8.333
 7021TIP3    H142622   3.719   6.425   8.332
 7021TIP3    H242623   3.734   6.282   8.285
 7022TIP3   OH242624   6.602   3.500   0.840
 7022TIP3    H142625   6.615   3.593   0.823
 7022TIP3    H242626   6.636   3.456   0.762
 7023TIP3   OH242627   5.895   3.148   0.123
 7023TIP3    H142628   5.887   3.057   0.151
 7023TIP3    H242629   5.989   3.164   0.120
 7024TIP3   OH242630   2.207   0.025   8.387
 7024TIP3    H142631   2.192   0.081   8.311
 7024TIP3    H242632   2.120   0.006   8.421
 7025TIP3   OH242633   2.427   3.779   8.615
 7025TIP3    H142634   2.335   3.774   8.638
 7025TIP3    H242635   2.434   3.735   8.530
 7026TIP3   OH242636   4.802   1.680   1.256
 7026TIP3    H142637   4.758   1.746   1.203
 7026TIP3    H242638   4.805   1.602   1.200
 7027TIP3   OH242639   4.420   1.675   1.820
 7027TIP3    H142640   4.396   1.684   1.728
 7027TIP3    H242641   4.404   1.583   1.841
 7028TIP3   OH242642   1.432   2.671   1.757
 7028TIP3    H142643   1.504   2.716   1.802
 7028TIP3    H242644   1.416   2.593   1.810
 7029TIP3   OH242645   6.317   2.388   6.674
 7029TIP3    H142646   6.321   2.416   6.583
 7029TIP3    H242647   6.273   2.303   6.672
 7030TIP3   OH242648   3.114   4.144   1.977
 7030TIP3    H142649   3.191   4.188   2.013
 7030TIP3    H242650   3.050   4.215   1.963
 7031TIP3   OH242651   5.633   5.078   8.139
 7031TIP3    H142652   5.675   5.104   8.057
 7031TIP3    H242653   5.698   5.023   8.183
 7032TIP3   OH242654   3.875   3.385   0.615
 7032TIP3    H142655   3.838   3.408   0.700
 7032TIP3    H242656   3.969   3.400   0.624
 7033TIP3   OH242657   3.291   4.369   2.011
 7033TIP3    H142658   3.220   4.415   1.966
 7033TIP3    H242659   3.316   4.427   2.083
 7034TIP3   OH242660   2.380   4.369   7.560
 7034TIP3    H142661   2.374   4.407   7.472
 7034TIP3    H242662   2.327   4.428   7.614
 7035TIP3   OH242663   5.695   3.692   1.255
 7035TIP3    H142664   5.744   3.616   1.288
 7035TIP3    H242665   5.729   3.705   1.167
 7036TIP3   OH242666   2.234   1.882   6.789
 7036TIP3    H142667   2.248   1.907   6.880
 7036TIP3    H242668   2.295   1.937   6.739
 7037TIP3   OH242669   4.181   6.005   6.148
 7037TIP3    H142670   4.235   5.942   6.196
 7037TIP3    H242671   4.095   6.000   6.190
 7038TIP3   OH242672   2.219   2.158   8.501
 7038TIP3    H142673   2.155   2.191   8.563
 7038TIP3    H242674   2.294   2.133   8.554
 7039TIP3   OH242675   6.051   3.643   1.558
 7039TIP3    H142676   5.964   3.660   1.522
 7039TIP3    H242677   6.108   3.708   1.517
 7040TIP3   OH242678   4.825   5.384   0.552
 7040TIP3    H142679   4.805   5.405   0.643
 7040TIP3    H242680   4.864   5.297   0.555
 7041TIP3   OH242681   0.033   2.457   1.813
 7041TIP3    H142682   0.127   2.442   1.804
 7041TIP3    H242683   0.027   2.524   1.881
 7042TIP3   OH242684   6.582   5.474   2.355
 7042TIP3    H142685   6.664   5.509   2.389
 7042TIP3    H242686   6.593   5.379   2.357
 7043TIP3   OH242687   5.902   6.642   7.926
 7043TIP3    H142688   5.983   6.646   7.977
 7043TIP3    H242689   5.835   6.613   7.988
 7044TIP3   OH242690   2.257   2.290   7.633
 7044TIP3    H142691   2.296   2.224   7.690
 7044TIP3    H242692   2.330   2.326   7.583
 7045TIP3   OH242693   4.387   2.944   8.000
 7045TIP3    H142694   4.470   2.990   8.011
 7045TIP3    H242695   4.320   3.008   8.023
 7046TIP3   OH242696   2.746   0.418   8.456
 7046TIP3    H142697   2.828   0.369   8.447
 7046TIP3    H242698   2.702   0.407   8.372
 7047TIP3   OH242699   5.035   0.024   6.222
 7047TIP3    H142700   5.091  -0.033   6.169
 7047TIP3    H242701   4.946  -0.006   6.203
 7048TIP3   OH242702   1.338   4.963   8.366
 7048TIP3    H142703   1.247   4.992   8.369
 7048TIP3    H242704   1.378   5.004   8.442
 7049TIP3   OH242705   0.017   1.880   0.031
 7049TIP3    H142706   0.053   1.966   0.009
 7049TIP3    H242707   0.023   1.830  -0.051
 7050TIP3   OH242708   3.451   0.605   6.677
 7050TIP3    H142709   3.368   0.559   6.689
 7050TIP3    H242710   3.429   0.684   6.628
 7051TIP3   OH242711   0.617   5.975   1.862
 7051TIP3    H142712   0.706   5.990   1.894
 7051TIP3    H242713   0.618   5.888   1.825
 7052TIP3   OH242714   0.482   6.584   1.989
 7052TIP3    H142715   0.521   6.497   1.990
 7052TIP3    H242716   0.474   6.609   2.081
 7053TIP3   OH242717   5.107   0.565   0.655
 7053TIP3    H142718   5.150   0.563   0.570
 7053TIP3    H242719   5.089   0.473   0.675
 7054TIP3   OH242720   1.537   3.205   6.175
 7054TIP3    H142721   1.487   3.153   6.112
 7054TIP3    H242722   1.546   3.147   6.251
 7055TIP3   OH242723   6.573   2.983   8.545
 7055TIP3    H142724   6.503   3.022   8.599
 7055TIP3    H242725   6.597   3.052   8.483
 7056TIP3   OH242726   4.413   4.318   8.112
 7056TIP3    H142727   4.443   4.264   8.186
 7056TIP3    H242728   4.456   4.280   8.036
 7057TIP3   OH242729   0.193   4.388   6.328
 7057TIP3    H142730   0.127   4.411   6.262
 7057TIP3    H242731   0.277   4.404   6.284
 7058TIP3   OH242732   4.863   5.956   8.092
 7058TIP3    H142733   4.949   5.977   8.128
 7058TIP3    H242734   4.846   5.866   8.120
 7059TIP3   OH242735   0.805   0.773   0.717
 7059TIP3    H142736   0.898   0.752   0.724
 7059TIP3    H242737   0.802   0.869   0.718
 7060TIP3   OH242738   3.507   6.615   8.477
 7060TIP3    H142739   3.595   6.597   8.512
 7060TIP3    H242740   3.503   6.710   8.472
 7061TIP3   OH242741   1.258   4.558   7.881
 7061TIP3    H142742   1.297   4.645   7.874
 7061TIP3    H242743   1.319   4.501   7.833
 7062TIP3   OH242744   3.734   1.220   6.602
 7062TIP3    H142745   3.691   1.297   6.639
 7062TIP3    H242746   3.761   1.248   6.514
 7063TIP3   OH242747   2.531   3.982   6.392
 7063TIP3    H142748   2.496   4.070   6.405
 7063TIP3    H242749   2.513   3.936   6.474
 7064LIG     O142750   3.349   3.605   8.184
 7064LIG     O242751   3.492   3.691   7.753
 7064LIG     N142752   3.570   3.498   7.852
 7064LIG     N242753   3.516   3.349   8.169
 7064LIG     N342754   3.425   3.649   7.971
 7064LIG     N442755   3.632   3.300   7.983
 7064LIG     C142756   3.493   3.451   8.081
 7064LIG     C242757   3.566   3.418   7.966
 7064LIG     C342758   3.417   3.569   8.087
 7064LIG     C442759   3.495   3.617   7.852
 7064LIG     C542760   3.600   3.260   8.105
 7064LIG     C642761   3.645   3.463   7.731
 7064LIG     C742762   3.461   3.338   8.304
 7064LIG     C842763   3.346   3.774   7.970
 7064LIG     H142764   3.635   3.169   8.153
 7064LIG     H242765   3.699   3.366   7.743
 7064LIG     H342766   3.721   3.540   7.707
 7064LIG     H442767   3.578   3.452   7.643
 7064LIG     H542768   3.350   3.338   8.300
 7064LIG     H642769   3.493   3.426   8.365
 7064LIG     H742770   3.495   3.246   8.355
 7064LIG     H842771   3.337   3.819   8.071
 7064LIG     H942772   3.243   3.756   7.932
 7064LIG    H1042773   3.392   3.852   7.905
   6.80356   6.80356   8.83951
